<event>
 8    1  0.2959109E+004  0.1043930E+01  0.7957747E-01            NaN
         13   -1    0    0    0    0  0.00000000000E+00  0.00000000000E+00  0.74505805969E-08  0.10566000000E+00  0.10566000000E+00 0. -1.
     999900   -1    0    0    0    0 -0.00000000000E+00 -0.00000000000E+00 -0.74505805969E-08  0.93827000000E+00  0.93827000000E+00 0.  1.
     999902    2    1    2    0    0 -0.12594861769E-01 -0.41141128385E-02  0.18491890775E-02  0.10305518100E+01  0.10304649713E+01 0.  0.
     999903    2    3    3    0    0 -0.47253132013E-01 -0.33594983781E-01 -0.11986147165E+00  0.14101046617E+00  0.46429492387E-01 0.  0.
         14    1    1    2    0    0  0.12594861769E-01  0.41141128385E-02 -0.18491890775E-02  0.13378190000E-01  0.00000000000E+00 0.  1.
     999901    1    3    3    0    0  0.34658270244E-01  0.29480870943E-01  0.12171066073E+00  0.88954134383E+00  0.88000000000E+00 0. -1.
        -11    1    4    4    0    0 -0.43345188464E-01 -0.33887425370E-01 -0.61521441348E-01  0.82536730173E-01  0.51100000000E-03 0. -1.
         11    1    4    4    0    0 -0.39079435491E-02  0.29244158892E-03 -0.58340030301E-01  0.58473735997E-01  0.51100000000E-03 0.  1.
</event>
<event>
 8    1  0.2959109E+004  0.1043930E+01  0.7957747E-01            NaN
         13   -1    0    0    0    0  0.00000000000E+00  0.00000000000E+00  0.74505805969E-08  0.10566000000E+00  0.10566000000E+00 0. -1.
     999900   -1    0    0    0    0 -0.00000000000E+00 -0.00000000000E+00 -0.74505805969E-08  0.93827000000E+00  0.93827000000E+00 0.  1.
     999902    2    1    2    0    0  0.16275099657E-02 -0.24398751980E-02 -0.13619031721E-01  0.10299987472E+01  0.10299045293E+01 0.  0.
     999903    2    3    3    0    0  0.33932159692E-01 -0.70246975653E-01  0.10625503892E+00  0.13870127380E+00  0.43149519219E-01 0.  0.
         14    1    1    2    0    0 -0.16275099657E-02  0.24398751980E-02  0.13619031721E-01  0.13931252804E-01  0.00000000000E+00 0. -1.
     999901    1    3    3    0    0 -0.32304649726E-01  0.67807100455E-01 -0.11987407064E+00  0.89129747339E+00  0.88000000000E+00 0.  1.
        -11    1    4    4    0    0  0.15771782857E-01 -0.37571092813E-01  0.21517422178E-01  0.46082499150E-01  0.51100000000E-03 0. -1.
         11    1    4    4    0    0  0.18160376835E-01 -0.32675882839E-01  0.84737616741E-01  0.92618774652E-01  0.51100000000E-03 0.  1.
</event>
<event>
 8    1  0.2959109E+004  0.1043930E+01  0.7957747E-01            NaN
         13   -1    0    0    0    0  0.00000000000E+00  0.00000000000E+00  0.74505805969E-08  0.10566000000E+00  0.10566000000E+00 0. -1.
     999900   -1    0    0    0    0 -0.00000000000E+00 -0.00000000000E+00 -0.74505805969E-08  0.93827000000E+00  0.93827000000E+00 0. -1.
     999902    2    1    2    0    0 -0.63230078528E-02 -0.56949086855E-02 -0.11662469737E-01  0.10294930469E+01  0.10293918147E+01 0.  0.
     999903    2    3    3    0    0 -0.91503773111E-01  0.95063890535E-01  0.65892308973E-02  0.13946988827E+00  0.44702885744E-01 0.  0.
         14    1    1    2    0    0  0.63230078528E-02  0.56949086855E-02  0.11662469737E-01  0.14436953058E-01  0.00000000000E+00 0. -1.
     999901    1    3    3    0    0  0.85180765258E-01 -0.10075879922E+00 -0.18251700634E-01  0.89002315867E+00  0.88000000000E+00 0. -1.
        -11    1    4    4    0    0 -0.74561068864E-01  0.71770307227E-01 -0.13471630682E-01  0.10436510884E+00  0.51100000000E-03 0.  1.
         11    1    4    4    0    0 -0.16942704247E-01  0.23293583308E-01  0.20060861579E-01  0.35104779430E-01  0.51100000000E-03 0. -1.
</event>
<event>
 8    1  0.2959109E+004  0.1043930E+01  0.7957747E-01            NaN
         13   -1    0    0    0    0  0.00000000000E+00  0.00000000000E+00  0.74505805969E-08  0.10566000000E+00  0.10566000000E+00 0.  1.
     999900   -1    0    0    0    0 -0.00000000000E+00 -0.00000000000E+00 -0.74505805969E-08  0.93827000000E+00  0.93827000000E+00 0.  1.
     999902    2    1    2    0    0 -0.12140525440E-01 -0.43105714839E-02  0.36784888281E-02  0.10305320649E+01  0.10304449680E+01 0.  0.
     999903    2    3    3    0    0 -0.86384957524E-01  0.95965138370E-01 -0.33872266067E-01  0.14093804916E+00  0.45216530411E-01 0.  0.
         14    1    1    2    0    0  0.12140525440E-01  0.43105714839E-02 -0.36784888281E-02  0.13397935085E-01  0.00000000000E+00 0.  1.
     999901    1    3    3    0    0  0.74244432085E-01 -0.10027570985E+00  0.37550754895E-01  0.88959401576E+00  0.88000000000E+00 0.  1.
        -11    1    4    4    0    0 -0.41584203611E-01  0.73266935002E-01 -0.85193297009E-02  0.84676619288E-01  0.51100000000E-03 0. -1.
         11    1    4    4    0    0 -0.44800753914E-01  0.22698203369E-01 -0.25352936366E-01  0.56261429868E-01  0.51100000000E-03 0.  1.
</event>
<event>
 8    1  0.2959109E+004  0.1043930E+01  0.7957747E-01            NaN
         13   -1    0    0    0    0  0.00000000000E+00  0.00000000000E+00  0.74505805969E-08  0.10566000000E+00  0.10566000000E+00 0. -1.
     999900   -1    0    0    0    0 -0.00000000000E+00 -0.00000000000E+00 -0.74505805969E-08  0.93827000000E+00  0.93827000000E+00 0. -1.
     999902    2    1    2    0    0 -0.11565175306E-01  0.53913657000E-02  0.54605900794E-02  0.10300505855E+01  0.10299570721E+01 0.  0.
     999903    2    3    3    0    0 -0.12468940611E+00  0.50099660942E-01 -0.78029894988E-03  0.14166166615E+00  0.44832965187E-01 0.  0.
         14    1    1    2    0    0  0.11565175306E-01 -0.53913657000E-02 -0.54605900794E-02  0.13879414541E-01  0.00000000000E+00 0.  1.
     999901    1    3    3    0    0  0.11312423080E+00 -0.44708295242E-01  0.62408890292E-02  0.88838891931E+00  0.88000000000E+00 0.  1.
        -11    1    4    4    0    0 -0.86950372222E-01  0.15541022514E-01  0.11387500833E-01  0.89060804547E-01  0.51100000000E-03 0. -1.
         11    1    4    4    0    0 -0.37739033887E-01  0.34558638429E-01 -0.12167799783E-01  0.52600861602E-01  0.51100000000E-03 0.  1.
</event>
<event>
 8    1  0.2959109E+004  0.1043930E+01  0.7957747E-01            NaN
         13   -1    0    0    0    0  0.00000000000E+00  0.00000000000E+00  0.74505805969E-08  0.10566000000E+00  0.10566000000E+00 0. -1.
     999900   -1    0    0    0    0 -0.00000000000E+00 -0.00000000000E+00 -0.74505805969E-08  0.93827000000E+00  0.93827000000E+00 0.  1.
     999902    2    1    2    0    0 -0.23291102028E-02 -0.24281462444E-02 -0.13983857856E-01  0.10295470612E+01  0.10294465903E+01 0.  0.
     999903    2    3    3    0    0 -0.50817212319E-01  0.11433199223E+00 -0.46151250621E-01  0.13992985859E+00  0.42381999449E-01 0.  0.
         14    1    1    2    0    0  0.23291102028E-02  0.24281462444E-02  0.13983857856E-01  0.14382938819E-01  0.00000000000E+00 0. -1.
     999901    1    3    3    0    0  0.48488102116E-01 -0.11676013847E+00  0.32167392764E-01  0.88961720259E+00  0.88000000000E+00 0.  1.
        -11    1    4    4    0    0 -0.23359822217E-01  0.54166728255E-01 -0.44290285855E-01  0.73767243990E-01  0.51100000000E-03 0. -1.
         11    1    4    4    0    0 -0.27457390102E-01  0.60165263974E-01 -0.18609647660E-02  0.66162614603E-01  0.51100000000E-03 0.  1.
</event>
<event>
 8    1  0.2959109E+004  0.1043930E+01  0.7957747E-01            NaN
         13   -1    0    0    0    0  0.00000000000E+00  0.00000000000E+00  0.74505805969E-08  0.10566000000E+00  0.10566000000E+00 0.  1.
     999900   -1    0    0    0    0 -0.00000000000E+00 -0.00000000000E+00 -0.74505805969E-08  0.93827000000E+00  0.93827000000E+00 0. -1.
     999902    2    1    2    0    0 -0.29922101663E-02  0.57417746366E-02  0.12829359219E-01  0.10295594135E+01  0.10294591163E+01 0.  0.
     999903    2    3    3    0    0  0.62893233091E-01  0.59972372269E-01 -0.98641752878E-01  0.13843222946E+00  0.43370987277E-01 0.  0.
         14    1    1    2    0    0  0.29922101663E-02 -0.57417746366E-02 -0.12829359219E-01  0.14370586475E-01  0.00000000000E+00 0. -1.
     999901    1    3    3    0    0 -0.65885443257E-01 -0.54230597633E-01  0.11147111210E+00  0.89112718407E+00  0.88000000000E+00 0.  1.
        -11    1    4    4    0    0  0.35237172448E-01  0.50907035154E-02 -0.38549965753E-01  0.52477943605E-01  0.51100000000E-03 0. -1.
         11    1    4    4    0    0  0.27656060643E-01  0.54881668754E-01 -0.60091787125E-01  0.85954285852E-01  0.51100000000E-03 0.  1.
</event>
<event>
 8    1  0.2959109E+004  0.1043930E+01  0.7957747E-01            NaN
         13   -1    0    0    0    0  0.00000000000E+00  0.00000000000E+00  0.74505805969E-08  0.10566000000E+00  0.10566000000E+00 0. -1.
     999900   -1    0    0    0    0 -0.00000000000E+00 -0.00000000000E+00 -0.74505805969E-08  0.93827000000E+00  0.93827000000E+00 0. -1.
     999902    2    1    2    0    0 -0.42966111321E-02  0.11933542694E-02 -0.14093517532E-01  0.10291478419E+01  0.10290416747E+01 0.  0.
     999903    2    3    3    0    0 -0.90473458282E-01 -0.83431677564E-01 -0.49819781358E-01  0.14017978234E+00  0.44967424732E-01 0.  0.
         14    1    1    2    0    0  0.42966111321E-02 -0.11933542694E-02  0.14093517532E-01  0.14782158099E-01  0.00000000000E+00 0. -1.
     999901    1    3    3    0    0  0.86176847149E-01  0.84625031833E-01  0.35726263826E-01  0.88896805956E+00  0.88000000000E+00 0.  1.
        -11    1    4    4    0    0 -0.61318176386E-01 -0.26035614769E-01 -0.26859046133E-01  0.71829252202E-01  0.51100000000E-03 0.  1.
         11    1    4    4    0    0 -0.29155281896E-01 -0.57396062794E-01 -0.22960735225E-01  0.68350530135E-01  0.51100000000E-03 0. -1.
</event>
<event>
 8    1  0.2959109E+004  0.1043930E+01  0.7957747E-01            NaN
         13   -1    0    0    0    0  0.00000000000E+00  0.00000000000E+00  0.74505805969E-08  0.10566000000E+00  0.10566000000E+00 0. -1.
     999900   -1    0    0    0    0 -0.00000000000E+00 -0.00000000000E+00 -0.74505805969E-08  0.93827000000E+00  0.93827000000E+00 0. -1.
     999902    2    1    2    0    0 -0.13158850707E-01  0.45143505383E-02 -0.19253597092E-02  0.10298857228E+01  0.10297899593E+01 0.  0.
     999903    2    3    3    0    0 -0.10479722057E+00  0.78846131855E-01 -0.28358855973E-01  0.14161688156E+00  0.45298415922E-01 0.  0.
         14    1    1    2    0    0  0.13158850707E-01 -0.45143505383E-02  0.19253597092E-02  0.14044277223E-01  0.00000000000E+00 0.  1.
     999901    1    3    3    0    0  0.91638369859E-01 -0.74331781317E-01  0.26433496264E-01  0.88826884121E+00  0.88000000000E+00 0.  1.
        -11    1    4    4    0    0 -0.20558992697E-01  0.36060164905E-01 -0.21846808323E-01  0.46910039742E-01  0.51100000000E-03 0. -1.
         11    1    4    4    0    0 -0.84238227869E-01  0.42785966950E-01 -0.65120476502E-02  0.94706841822E-01  0.51100000000E-03 0.  1.
</event>
<event>
 8    1  0.2959109E+004  0.1043930E+01  0.7957747E-01            NaN
         13   -1    0    0    0    0  0.00000000000E+00  0.00000000000E+00  0.74505805969E-08  0.10566000000E+00  0.10566000000E+00 0. -1.
     999900   -1    0    0    0    0 -0.00000000000E+00 -0.00000000000E+00 -0.74505805969E-08  0.93827000000E+00  0.93827000000E+00 0.  1.
     999902    2    1    2    0    0 -0.10172806965E-01  0.90030634819E-02 -0.35237774492E-02  0.10298958217E+01  0.10298001968E+01 0.  0.
     999903    2    3    3    0    0 -0.23036910028E-01 -0.12296466518E+00  0.39943867567E-01  0.13890176855E+00  0.45245780391E-01 0.  0.
         14    1    1    2    0    0  0.10172806965E-01 -0.90030634819E-02  0.35237774492E-02  0.14034178320E-01  0.00000000000E+00 0. -1.
     999901    1    3    3    0    0  0.12864103062E-01  0.13196772866E+00 -0.43467645016E-01  0.89099405313E+00  0.88000000000E+00 0.  1.
        -11    1    4    4    0    0  0.76556214098E-02 -0.78392063795E-01  0.20454235063E-01  0.81379119301E-01  0.51100000000E-03 0.  1.
         11    1    4    4    0    0 -0.30692531438E-01 -0.44572601383E-01  0.19489632505E-01  0.57522649246E-01  0.51100000000E-03 0. -1.
</event>
<event>
 8    1  0.2959109E+004  0.1043930E+01  0.7957747E-01            NaN
         13   -1    0    0    0    0  0.00000000000E+00  0.00000000000E+00  0.74505805969E-08  0.10566000000E+00  0.10566000000E+00 0. -1.
     999900   -1    0    0    0    0 -0.00000000000E+00 -0.00000000000E+00 -0.74505805969E-08  0.93827000000E+00  0.93827000000E+00 0. -1.
     999902    2    1    2    0    0 -0.80263071191E-02  0.97885355179E-02 -0.54023375536E-02  0.10301669231E+01  0.10300749814E+01 0.  0.
     999903    2    3    3    0    0 -0.48031055624E-02 -0.22260892416E-01  0.12984112306E+00  0.13925259028E+00  0.44877048803E-01 0.  0.
         14    1    1    2    0    0  0.80263071191E-02 -0.97885355179E-02  0.54023375536E-02  0.13763076858E-01  0.00000000000E+00 0. -1.
     999901    1    3    3    0    0 -0.32232015567E-02  0.32049427934E-01 -0.13524346061E+00  0.89091433286E+00  0.88000000000E+00 0. -1.
        -11    1    4    4    0    0 -0.49855991301E-03 -0.29455879018E-01  0.43714519088E-01  0.52717337478E-01  0.51100000000E-03 0.  1.
         11    1    4    4    0    0 -0.43045456494E-02  0.71949866025E-02  0.86126603969E-01  0.86535252803E-01  0.51100000000E-03 0. -1.
</event>
<event>
 8    1  0.2959109E+004  0.1043930E+01  0.7957747E-01            NaN
         13   -1    0    0    0    0  0.00000000000E+00  0.00000000000E+00  0.74505805969E-08  0.10566000000E+00  0.10566000000E+00 0. -1.
     999900   -1    0    0    0    0 -0.00000000000E+00 -0.00000000000E+00 -0.74505805969E-08  0.93827000000E+00  0.93827000000E+00 0. -1.
     999902    2    1    2    0    0  0.54385086593E-02  0.12152718466E-01  0.26440678699E-02  0.10303558688E+01  0.10302664507E+01 0.  0.
     999903    2    3    3    0    0 -0.14805098339E-01 -0.40591063074E-01 -0.12549103524E+00  0.13928330456E+00  0.42249422089E-01 0.  0.
         14    1    1    2    0    0 -0.54385086593E-02 -0.12152718466E-01 -0.26440678699E-02  0.13574131186E-01  0.00000000000E+00 0. -1.
     999901    1    3    3    0    0  0.20243606998E-01  0.52743781540E-01  0.12813510311E+00  0.89107256425E+00  0.88000000000E+00 0.  1.
        -11    1    4    4    0    0  0.11342586369E-01 -0.30128758164E-01 -0.70159842475E-01  0.77194954182E-01  0.51100000000E-03 0. -1.
         11    1    4    4    0    0 -0.26147684707E-01 -0.10462304910E-01 -0.55331192760E-01  0.62088350380E-01  0.51100000000E-03 0.  1.
</event>
<event>
 8    1  0.2959109E+004  0.1043930E+01  0.7957747E-01            NaN
         13   -1    0    0    0    0  0.00000000000E+00  0.00000000000E+00  0.74505805969E-08  0.10566000000E+00  0.10566000000E+00 0.  1.
     999900   -1    0    0    0    0 -0.00000000000E+00 -0.00000000000E+00 -0.74505805969E-08  0.93827000000E+00  0.93827000000E+00 0.  1.
     999902    2    1    2    0    0 -0.13907907317E-01  0.16421295573E-03  0.53672121186E-03  0.10300107715E+01  0.10299167173E+01 0.  0.
     999903    2    3    3    0    0 -0.11285290159E+00 -0.71865934310E-01 -0.10135299687E-01  0.14147695335E+00  0.44861053445E-01 0.  0.
         14    1    1    2    0    0  0.13907907317E-01 -0.16421295573E-03 -0.53672121186E-03  0.13919228481E-01  0.00000000000E+00 0. -1.
     999901    1    3    3    0    0  0.98944994275E-01  0.72030147266E-01  0.10672020898E-01  0.88853381817E+00  0.88000000000E+00 0.  1.
        -11    1    4    4    0    0 -0.75610619665E-01 -0.25261110462E-01 -0.16720640209E-01  0.81455082333E-01  0.51100000000E-03 0.  1.
         11    1    4    4    0    0 -0.37242281927E-01 -0.46604823849E-01  0.65853405221E-02  0.60021871013E-01  0.51100000000E-03 0. -1.
</event>
<event>
 8    1  0.2959109E+004  0.1043930E+01  0.7957747E-01            NaN
         13   -1    0    0    0    0  0.00000000000E+00  0.00000000000E+00  0.74505805969E-08  0.10566000000E+00  0.10566000000E+00 0. -1.
     999900   -1    0    0    0    0 -0.00000000000E+00 -0.00000000000E+00 -0.74505805969E-08  0.93827000000E+00  0.93827000000E+00 0.  1.
     999902    2    1    2    0    0  0.69660676722E-02 -0.10524177602E-02 -0.12871763269E-01  0.10292563511E+01  0.10291517480E+01 0.  0.
     999903    2    3    3    0    0 -0.13092829919E+00 -0.48978010632E-02 -0.42856455272E-03  0.13842276588E+00  0.44659494664E-01 0.  0.
         14    1    1    2    0    0 -0.69660676722E-02  0.10524177602E-02  0.12871763269E-01  0.14673648885E-01  0.00000000000E+00 0. -1.
     999901    1    3    3    0    0  0.13789436686E+00  0.38453833029E-02 -0.12443198716E-01  0.89083358523E+00  0.88000000000E+00 0.  1.
        -11    1    4    4    0    0 -0.56853215077E-02 -0.94569839574E-02 -0.67345211334E-02  0.12937245538E-01  0.51100000000E-03 0. -1.
         11    1    4    4    0    0 -0.12524297768E+00  0.45591828942E-02  0.63059565807E-02  0.12548552034E+00  0.51100000000E-03 0.  1.
</event>
<event>
 8    1  0.2959109E+004  0.1043930E+01  0.7957747E-01            NaN
         13   -1    0    0    0    0  0.00000000000E+00  0.00000000000E+00  0.74505805969E-08  0.10566000000E+00  0.10566000000E+00 0. -1.
     999900   -1    0    0    0    0 -0.00000000000E+00 -0.00000000000E+00 -0.74505805969E-08  0.93827000000E+00  0.93827000000E+00 0. -1.
     999902    2    1    2    0    0 -0.94196889869E-04 -0.84429708307E-02  0.12643874080E-01  0.10287260472E+01  0.10286136884E+01 0.  0.
     999903    2    3    3    0    0 -0.97863316694E-01  0.71559268251E-01  0.51022627630E-01  0.13887657240E+00  0.44558233863E-01 0.  0.
         14    1    1    2    0    0  0.94196889869E-04  0.84429708307E-02 -0.12643874080E-01  0.15203952817E-01  0.00000000000E+00 0.  1.
     999901    1    3    3    0    0  0.97769119804E-01 -0.80002239081E-01 -0.38378753550E-01  0.88984947478E+00  0.88000000000E+00 0.  1.
        -11    1    4    4    0    0 -0.73220596249E-01  0.30371244003E-01  0.43090079209E-01  0.90225740366E-01  0.51100000000E-03 0.  1.
         11    1    4    4    0    0 -0.24642720445E-01  0.41188024247E-01  0.79325484207E-02  0.48650832036E-01  0.51100000000E-03 0. -1.
</event>
<event>
 8    1  0.2959109E+004  0.1043930E+01  0.7957747E-01            NaN
         13   -1    0    0    0    0  0.00000000000E+00  0.00000000000E+00  0.74505805969E-08  0.10566000000E+00  0.10566000000E+00 0.  1.
     999900   -1    0    0    0    0 -0.00000000000E+00 -0.00000000000E+00 -0.74505805969E-08  0.93827000000E+00  0.93827000000E+00 0. -1.
     999902    2    1    2    0    0  0.55139865887E-02 -0.67869248110E-02 -0.11069117179E-01  0.10298235564E+01  0.10297269374E+01 0.  0.
     999903    2    3    3    0    0 -0.41469520663E-01  0.67468986641E-01  0.10389485288E+00  0.13800625180E+00  0.44494941042E-01 0.  0.
         14    1    1    2    0    0 -0.55139865887E-02  0.67869248110E-02  0.11069117179E-01  0.14106443620E-01  0.00000000000E+00 0.  1.
     999901    1    3    3    0    0  0.46983507252E-01 -0.74255911452E-01 -0.11496397006E+00  0.89181730458E+00  0.88000000000E+00 0.  1.
        -11    1    4    4    0    0 -0.21832741325E-01  0.36230887809E-01  0.20915378981E-01  0.47191736821E-01  0.51100000000E-03 0.  1.
         11    1    4    4    0    0 -0.19636779339E-01  0.31238098832E-01  0.82979473897E-01  0.90814514978E-01  0.51100000000E-03 0. -1.
</event>
<event>
 8    1  0.2959109E+004  0.1043930E+01  0.7957747E-01            NaN
         13   -1    0    0    0    0  0.00000000000E+00  0.00000000000E+00  0.74505805969E-08  0.10566000000E+00  0.10566000000E+00 0.  1.
     999900   -1    0    0    0    0 -0.00000000000E+00 -0.00000000000E+00 -0.74505805969E-08  0.93827000000E+00  0.93827000000E+00 0.  1.
     999902    2    1    2    0    0  0.58092619867E-03  0.15505879340E-01  0.10529093097E-03  0.10284128851E+01  0.10282958141E+01 0.  0.
     999903    2    3    3    0    0  0.52131824861E-01  0.11936451703E+00 -0.26098413786E-01  0.14042034799E+00  0.45509689510E-01 0.  0.
         14    1    1    2    0    0 -0.58092619867E-03 -0.15505879340E-01 -0.10529093097E-03  0.15517114923E-01  0.00000000000E+00 0. -1.
     999901    1    3    3    0    0 -0.51550898662E-01 -0.10385863769E+00  0.26203704717E-01  0.88799253708E+00  0.88000000000E+00 0. -1.
        -11    1    4    4    0    0  0.41921677781E-01  0.81212263240E-01  0.28660370374E-02  0.91440330587E-01  0.51100000000E-03 0. -1.
         11    1    4    4    0    0  0.10210147080E-01  0.38152253790E-01 -0.28964450823E-01  0.48980017406E-01  0.51100000000E-03 0.  1.
</event>
<event>
 8    1  0.2959109E+004  0.1043930E+01  0.7957747E-01            NaN
         13   -1    0    0    0    0  0.00000000000E+00  0.00000000000E+00  0.74505805969E-08  0.10566000000E+00  0.10566000000E+00 0. -1.
     999900   -1    0    0    0    0 -0.00000000000E+00 -0.00000000000E+00 -0.74505805969E-08  0.93827000000E+00  0.93827000000E+00 0.  1.
     999902    2    1    2    0    0  0.35784767084E-02 -0.12420361951E-01  0.47011744207E-02  0.10301760214E+01  0.10300842020E+01 0.  0.
     999903    2    3    3    0    0  0.96847550072E-01 -0.13746783338E-01 -0.89707600058E-01  0.14022439566E+00  0.45243846257E-01 0.  0.
         14    1    1    2    0    0 -0.35784767084E-02  0.12420361951E-01 -0.47011744207E-02  0.13753978606E-01  0.00000000000E+00 0.  1.
     999901    1    3    3    0    0 -0.93269073364E-01  0.13264213869E-02  0.94408774479E-01  0.88995162573E+00  0.88000000000E+00 0. -1.
        -11    1    4    4    0    0  0.82674784916E-01 -0.27363373753E-01 -0.65113698759E-01  0.10873789207E+00  0.51100000000E-03 0. -1.
         11    1    4    4    0    0  0.14172765156E-01  0.13616590415E-01 -0.24593901300E-01  0.31486503598E-01  0.51100000000E-03 0.  1.
</event>
<event>
 8    1  0.2959109E+004  0.1043930E+01  0.7957747E-01            NaN
         13   -1    0    0    0    0  0.00000000000E+00  0.00000000000E+00  0.74505805969E-08  0.10566000000E+00  0.10566000000E+00 0. -1.
     999900   -1    0    0    0    0 -0.00000000000E+00 -0.00000000000E+00 -0.74505805969E-08  0.93827000000E+00  0.93827000000E+00 0. -1.
     999902    2    1    2    0    0 -0.12336653391E-01 -0.93755890016E-03  0.53668803717E-02  0.10304438798E+01  0.10303556250E+01 0.  0.
     999903    2    3    3    0    0 -0.11664907159E+00  0.22202284115E-01 -0.62299020319E-01  0.14140214452E+00  0.44871496730E-01 0.  0.
         14    1    1    2    0    0  0.12336653391E-01  0.93755890016E-03 -0.53668803717E-02  0.13486120217E-01  0.00000000000E+00 0.  1.
     999901    1    3    3    0    0  0.10431241820E+00 -0.23139843015E-01  0.67665900691E-01  0.88904173526E+00  0.88000000000E+00 0.  1.
        -11    1    4    4    0    0 -0.74862099743E-01 -0.59639049140E-02 -0.26721039391E-01  0.79713093070E-01  0.51100000000E-03 0.  1.
         11    1    4    4    0    0 -0.41786971849E-01  0.28166189029E-01 -0.35577980928E-01  0.61689051449E-01  0.51100000000E-03 0. -1.
</event>
<event>
 8    1  0.2959109E+004  0.1043930E+01  0.7957747E-01            NaN
         13   -1    0    0    0    0  0.00000000000E+00  0.00000000000E+00  0.74505805969E-08  0.10566000000E+00  0.10566000000E+00 0.  1.
     999900   -1    0    0    0    0 -0.00000000000E+00 -0.00000000000E+00 -0.74505805969E-08  0.93827000000E+00  0.93827000000E+00 0.  1.
     999902    2    1    2    0    0 -0.66058072932E-02 -0.63736523250E-02 -0.13175272474E-01  0.10278723558E+01  0.10277469201E+01 0.  0.
     999903    2    3    3    0    0  0.38850052173E-01 -0.92515193550E-01 -0.85849622431E-01  0.13952098303E+00  0.45028429264E-01 0.  0.
         14    1    1    2    0    0  0.66058072932E-02  0.63736523250E-02  0.13175272474E-01  0.16057644246E-01  0.00000000000E+00 0.  1.
     999901    1    3    3    0    0 -0.45455859467E-01  0.86141541225E-01  0.72674349957E-01  0.88835137273E+00  0.88000000000E+00 0. -1.
        -11    1    4    4    0    0 -0.89474423228E-02 -0.29098800294E-01 -0.20911925059E-01  0.36937333869E-01  0.51100000000E-03 0. -1.
         11    1    4    4    0    0  0.47797494496E-01 -0.63416393256E-01 -0.64937697372E-01  0.10258364916E+00  0.51100000000E-03 0.  1.
</event>
<event>
 8    1  0.2959109E+004  0.1043930E+01  0.7957747E-01            NaN
         13   -1    0    0    0    0  0.00000000000E+00  0.00000000000E+00  0.74505805969E-08  0.10566000000E+00  0.10566000000E+00 0.  1.
     999900   -1    0    0    0    0 -0.00000000000E+00 -0.00000000000E+00 -0.74505805969E-08  0.93827000000E+00  0.93827000000E+00 0. -1.
     999902    2    1    2    0    0  0.67194516728E-02 -0.80865577281E-02 -0.94738441562E-02  0.10297773617E+01  0.10296801045E+01 0.  0.
     999903    2    3    3    0    0 -0.43366090102E-01  0.54834694592E-01  0.10554662923E+00  0.13865595879E+00  0.56550176520E-01 0.  0.
         14    1    1    2    0    0 -0.67194516728E-02  0.80865577281E-02  0.94738441562E-02  0.14152638262E-01  0.00000000000E+00 0. -1.
     999901    1    3    3    0    0  0.50085541775E-01 -0.62921252320E-01 -0.11502047339E+00  0.89112140295E+00  0.88000000000E+00 0. -1.
        -11    1    4    4    0    0 -0.41232729161E-01  0.11863671021E-01  0.32301234141E-01  0.53707685597E-01  0.51100000000E-03 0. -1.
         11    1    4    4    0    0 -0.21333609408E-02  0.42971023571E-01  0.73245395093E-01  0.84948273196E-01  0.51100000000E-03 0.  1.
</event>
<event>
 8    1  0.2959109E+004  0.1043930E+01  0.7957747E-01            NaN
         13   -1    0    0    0    0  0.00000000000E+00  0.00000000000E+00  0.74505805969E-08  0.10566000000E+00  0.10566000000E+00 0. -1.
     999900   -1    0    0    0    0 -0.00000000000E+00 -0.00000000000E+00 -0.74505805969E-08  0.93827000000E+00  0.93827000000E+00 0.  1.
     999902    2    1    2    0    0  0.10924491291E-01  0.11780297864E-04 -0.98314773098E-02  0.10292329733E+01  0.10291280341E+01 0.  0.
     999903    2    3    3    0    0 -0.11151749497E+00  0.55741002697E-02 -0.69418758817E-01  0.13874230879E+00  0.44308485563E-01 0.  0.
         14    1    1    2    0    0 -0.10924491291E-01 -0.11780297864E-04  0.98314773098E-02  0.14697026735E-01  0.00000000000E+00 0. -1.
     999901    1    3    3    0    0  0.12244198627E+00 -0.55623199719E-02  0.59587281507E-01  0.89049066448E+00  0.88000000000E+00 0. -1.
        -11    1    4    4    0    0 -0.29124678797E-01 -0.11968104742E-01 -0.36727627041E-01  0.48380390193E-01  0.51100000000E-03 0. -1.
         11    1    4    4    0    0 -0.82392816178E-01  0.17542205012E-01 -0.32691131775E-01  0.90361918595E-01  0.51100000000E-03 0.  1.
</event>
<event>
 8    1  0.2959109E+004  0.1043930E+01  0.7957747E-01            NaN
         13   -1    0    0    0    0  0.00000000000E+00  0.00000000000E+00  0.74505805969E-08  0.10566000000E+00  0.10566000000E+00 0.  1.
     999900   -1    0    0    0    0 -0.00000000000E+00 -0.00000000000E+00 -0.74505805969E-08  0.93827000000E+00  0.93827000000E+00 0.  1.
     999902    2    1    2    0    0 -0.15814938281E-01  0.19133752569E-02  0.23906746887E-02  0.10278213501E+01  0.10276951100E+01 0.  0.
     999903    2    3    3    0    0  0.32666008880E-01 -0.77397481528E-02  0.12600045599E+00  0.13780844955E+00  0.44587913389E-01 0.  0.
         14    1    1    2    0    0  0.15814938281E-01 -0.19133752569E-02 -0.23906746887E-02  0.16108649949E-01  0.00000000000E+00 0.  1.
     999901    1    3    3    0    0 -0.48480947161E-01  0.96531234096E-02 -0.12360978130E+00  0.89001290050E+00  0.88000000000E+00 0.  1.
        -11    1    4    4    0    0  0.51989837762E-02 -0.21314792486E-01  0.76548669543E-01  0.79632341048E-01  0.51100000000E-03 0.  1.
         11    1    4    4    0    0  0.27467025104E-01  0.13575044333E-01  0.49451786444E-01  0.58176108500E-01  0.51100000000E-03 0. -1.
</event>
<event>
 8    1  0.2959109E+004  0.1043930E+01  0.7957747E-01            NaN
         13   -1    0    0    0    0  0.00000000000E+00  0.00000000000E+00  0.74505805969E-08  0.10566000000E+00  0.10566000000E+00 0.  1.
     999900   -1    0    0    0    0 -0.00000000000E+00 -0.00000000000E+00 -0.74505805969E-08  0.93827000000E+00  0.93827000000E+00 0.  1.
     999902    2    1    2    0    0 -0.13026450706E-01  0.15061494403E-02 -0.46956786512E-02  0.10300013855E+01  0.10299072035E+01 0.  0.
     999903    2    3    3    0    0 -0.72195550752E-01  0.74930200305E-01 -0.84599745347E-01  0.14136381397E+00  0.44720001353E-01 0.  0.
         14    1    1    2    0    0  0.13026450706E-01 -0.15061494403E-02  0.46956786512E-02  0.13928614509E-01  0.00000000000E+00 0.  1.
     999901    1    3    3    0    0  0.59169100045E-01 -0.73424050865E-01  0.79904066696E-01  0.88863757152E+00  0.88000000000E+00 0.  1.
        -11    1    4    4    0    0 -0.31491020515E-01  0.44901356555E-02 -0.26260659226E-01  0.41252018560E-01  0.51100000000E-03 0. -1.
         11    1    4    4    0    0 -0.40704530237E-01  0.70440064650E-01 -0.58339086120E-01  0.10011179541E+00  0.51100000000E-03 0.  1.
</event>
<event>
 8    1  0.2959109E+004  0.1043930E+01  0.7957747E-01            NaN
         13   -1    0    0    0    0  0.00000000000E+00  0.00000000000E+00  0.74505805969E-08  0.10566000000E+00  0.10566000000E+00 0. -1.
     999900   -1    0    0    0    0 -0.00000000000E+00 -0.00000000000E+00 -0.74505805969E-08  0.93827000000E+00  0.93827000000E+00 0.  1.
     999902    2    1    2    0    0  0.11843628954E-01  0.33900266436E-02  0.39700068028E-02  0.10309868635E+01  0.10309056155E+01 0.  0.
     999903    2    3    3    0    0  0.10818164905E+00 -0.12678117223E-01  0.80048140346E-01  0.14232096357E+00  0.44537041345E-01 0.  0.
         14    1    1    2    0    0 -0.11843628954E-01 -0.33900266436E-02 -0.39700068028E-02  0.12943136462E-01  0.00000000000E+00 0. -1.
     999901    1    3    3    0    0 -0.96338020093E-01  0.16068143867E-01 -0.76078133543E-01  0.88866589997E+00  0.88000000000E+00 0.  1.
        -11    1    4    4    0    0  0.39916570672E-01  0.16081433971E-01  0.22824016757E-01  0.48714905262E-01  0.51100000000E-03 0. -1.
         11    1    4    4    0    0  0.68265078376E-01 -0.28759551194E-01  0.57224123589E-01  0.93606058308E-01  0.51100000000E-03 0.  1.
</event>
<event>
 8    1  0.2959109E+004  0.1043930E+01  0.7957747E-01            NaN
         13   -1    0    0    0    0  0.00000000000E+00  0.00000000000E+00  0.74505805969E-08  0.10566000000E+00  0.10566000000E+00 0. -1.
     999900   -1    0    0    0    0 -0.00000000000E+00 -0.00000000000E+00 -0.74505805969E-08  0.93827000000E+00  0.93827000000E+00 0. -1.
     999902    2    1    2    0    0  0.19343782442E-02 -0.13471735157E-01  0.28157432466E-02  0.10300318750E+01  0.10299381077E+01 0.  0.
     999903    2    3    3    0    0  0.94022147680E-01 -0.29619556909E-01  0.89743579714E-01  0.14082022522E+00  0.45375580712E-01 0.  0.
         14    1    1    2    0    0 -0.19343782442E-02  0.13471735157E-01 -0.28157432466E-02  0.13898124959E-01  0.00000000000E+00 0.  1.
     999901    1    3    3    0    0 -0.92087769435E-01  0.16147821752E-01 -0.86927836468E-01  0.88921164982E+00  0.88000000000E+00 0.  1.
        -11    1    4    4    0    0  0.62309542644E-01 -0.14905568260E-01  0.83589559909E-01  0.10531918494E+00  0.51100000000E-03 0.  1.
         11    1    4    4    0    0  0.31712605036E-01 -0.14713988649E-01  0.61540198050E-02  0.35501040279E-01  0.51100000000E-03 0. -1.
</event>
<event>
 8    1  0.2959109E+004  0.1043930E+01  0.7957747E-01            NaN
         13   -1    0    0    0    0  0.00000000000E+00  0.00000000000E+00  0.74505805969E-08  0.10566000000E+00  0.10566000000E+00 0. -1.
     999900   -1    0    0    0    0 -0.00000000000E+00 -0.00000000000E+00 -0.74505805969E-08  0.93827000000E+00  0.93827000000E+00 0.  1.
     999902    2    1    2    0    0  0.13419031484E-01  0.43292352626E-02  0.20794869850E-02  0.10296773880E+01  0.10295787422E+01 0.  0.
     999903    2    3    3    0    0  0.89061609323E-01 -0.98904580311E-01 -0.71328058576E-03  0.14041543566E+00  0.44742592007E-01 0.  0.
         14    1    1    2    0    0 -0.13419031484E-01 -0.43292352626E-02 -0.20794869850E-02  0.14252612043E-01  0.00000000000E+00 0.  1.
     999901    1    3    3    0    0 -0.75642577839E-01  0.10323381557E+00  0.27927675707E-02  0.88926195230E+00  0.88000000000E+00 0. -1.
        -11    1    4    4    0    0  0.33852359842E-01 -0.62710576456E-01 -0.15100290962E-01  0.72848325818E-01  0.51100000000E-03 0.  1.
         11    1    4    4    0    0  0.55209249480E-01 -0.36194003855E-01  0.14387010376E-01  0.67567109838E-01  0.51100000000E-03 0. -1.
</event>
<event>
 8    1  0.2959109E+004  0.1043930E+01  0.7957747E-01            NaN
         13   -1    0    0    0    0  0.00000000000E+00  0.00000000000E+00  0.74505805969E-08  0.10566000000E+00  0.10566000000E+00 0. -1.
     999900   -1    0    0    0    0 -0.00000000000E+00 -0.00000000000E+00 -0.74505805969E-08  0.93827000000E+00  0.93827000000E+00 0. -1.
     999902    2    1    2    0    0  0.64713469517E-02 -0.13487091959E-01  0.83253974554E-02  0.10268100636E+01  0.10266673339E+01 0.  0.
     999903    2    3    3    0    0 -0.66189451660E-01  0.10581152267E+00 -0.25148949806E-01  0.13516423531E+00  0.45384788087E-01 0.  0.
         14    1    1    2    0    0 -0.64713469517E-02  0.13487091959E-01 -0.83253974554E-02  0.17119936439E-01  0.00000000000E+00 0.  1.
     999901    1    3    3    0    0  0.72660798612E-01 -0.11929861463E+00  0.33474347261E-01  0.89164582825E+00  0.88000000000E+00 0. -1.
        -11    1    4    4    0    0 -0.53759176606E-01  0.93448068613E-01 -0.42670943498E-02  0.10789374316E+00  0.51100000000E-03 0.  1.
         11    1    4    4    0    0 -0.12430275054E-01  0.12363454061E-01 -0.20881855456E-01  0.27270492158E-01  0.51100000000E-03 0. -1.
</event>
<event>
 8    1  0.2959109E+004  0.1043930E+01  0.7957747E-01            NaN
         13   -1    0    0    0    0  0.00000000000E+00  0.00000000000E+00  0.74505805969E-08  0.10566000000E+00  0.10566000000E+00 0. -1.
     999900   -1    0    0    0    0 -0.00000000000E+00 -0.00000000000E+00 -0.74505805969E-08  0.93827000000E+00  0.93827000000E+00 0.  1.
     999902    2    1    2    0    0 -0.40911863356E-03 -0.48132422668E-02 -0.11799180900E-01  0.10311802804E+01  0.10311014574E+01 0.  0.
     999903    2    3    3    0    0 -0.42436807717E-01  0.12396592797E+00  0.20675837835E-01  0.14022291435E+00  0.45459228907E-01 0.  0.
         14    1    1    2    0    0  0.40911863356E-03  0.48132422668E-02  0.11799180900E-01  0.12749719569E-01  0.00000000000E+00 0. -1.
     999901    1    3    3    0    0  0.42027689083E-01 -0.12877917023E+00 -0.32475018735E-01  0.89095736608E+00  0.88000000000E+00 0.  1.
        -11    1    4    4    0    0 -0.92825111443E-02  0.76048753683E-01 -0.44974995906E-02  0.76746769140E-01  0.51100000000E-03 0.  1.
         11    1    4    4    0    0 -0.33154296572E-01  0.47917174282E-01  0.25173337426E-01  0.63476145209E-01  0.51100000000E-03 0. -1.
</event>
<event>
 8    1  0.2959109E+004  0.1043930E+01  0.7957747E-01            NaN
         13   -1    0    0    0    0  0.00000000000E+00  0.00000000000E+00  0.74505805969E-08  0.10566000000E+00  0.10566000000E+00 0. -1.
     999900   -1    0    0    0    0 -0.00000000000E+00 -0.00000000000E+00 -0.74505805969E-08  0.93827000000E+00  0.93827000000E+00 0.  1.
     999902    2    1    2    0    0  0.14357646333E-02  0.13762603333E-01 -0.25396007529E-02  0.10298615871E+01  0.10297654919E+01 0.  0.
     999903    2    3    3    0    0  0.13170674453E-01  0.45880819756E-01 -0.12477597704E+00  0.14075472081E+00  0.44320770474E-01 0.  0.
         14    1    1    2    0    0 -0.14357646333E-02 -0.13762603333E-01  0.25396007529E-02  0.14068412937E-01  0.00000000000E+00 0.  1.
     999901    1    3    3    0    0 -0.11734909819E-01 -0.32118216422E-01  0.12223637629E+00  0.88910686626E+00  0.88000000000E+00 0. -1.
        -11    1    4    4    0    0 -0.65579684902E-02  0.28888379846E-02 -0.60619406450E-01  0.61043639267E-01  0.51100000000E-03 0. -1.
         11    1    4    4    0    0  0.19728642943E-01  0.42991981771E-01 -0.64156570593E-01  0.79711081539E-01  0.51100000000E-03 0.  1.
</event>
<event>
 8    1  0.2959109E+004  0.1043930E+01  0.7957747E-01            NaN
         13   -1    0    0    0    0  0.00000000000E+00  0.00000000000E+00  0.74505805969E-08  0.10566000000E+00  0.10566000000E+00 0.  1.
     999900   -1    0    0    0    0 -0.00000000000E+00 -0.00000000000E+00 -0.74505805969E-08  0.93827000000E+00  0.93827000000E+00 0.  1.
     999902    2    1    2    0    0 -0.14629945373E-01 -0.21089551004E-02  0.17704592188E-01  0.10208662714E+01  0.10206057067E+01 0.  0.
     999903    2    3    3    0    0 -0.56385493774E-01  0.10714046320E+00  0.39210099547E-01  0.13286770828E+00  0.38183677606E-01 0.  0.
         14    1    1    2    0    0  0.14629945373E-01  0.21089551004E-02 -0.17704592188E-01  0.23063728619E-01  0.00000000000E+00 0.  1.
     999901    1    3    3    0    0  0.41755548401E-01 -0.10924941830E+00 -0.21505507358E-01  0.88799856310E+00  0.88000000000E+00 0. -1.
        -11    1    4    4    0    0 -0.33761966152E-01  0.29516116852E-01  0.51921320645E-02  0.45147434798E-01  0.51100000000E-03 0.  1.
         11    1    4    4    0    0 -0.22623527622E-01  0.77624346344E-01  0.34017967482E-01  0.87720273484E-01  0.51100000000E-03 0. -1.
</event>
<event>
 8    1  0.2959109E+004  0.1043930E+01  0.7957747E-01            NaN
         13   -1    0    0    0    0  0.00000000000E+00  0.00000000000E+00  0.74505805969E-08  0.10566000000E+00  0.10566000000E+00 0.  1.
     999900   -1    0    0    0    0 -0.00000000000E+00 -0.00000000000E+00 -0.74505805969E-08  0.93827000000E+00  0.93827000000E+00 0. -1.
     999902    2    1    2    0    0 -0.64231779134E-02 -0.11073480356E-01 -0.65046772929E-02  0.10295706822E+01  0.10294705433E+01 0.  0.
     999903    2    3    3    0    0 -0.51185287743E-02  0.30247001769E-01 -0.12912739082E+00  0.14010712799E+00  0.44889239262E-01 0.  0.
         14    1    1    2    0    0  0.64231779134E-02  0.11073480356E-01  0.65046772929E-02  0.14359317825E-01  0.00000000000E+00 0. -1.
     999901    1    3    3    0    0 -0.13046491391E-02 -0.41320482126E-01  0.12262271352E+00  0.88946355419E+00  0.88000000000E+00 0.  1.
        -11    1    4    4    0    0 -0.37473729303E-03  0.82085153083E-02  0.76836515060E-03  0.82687155961E-02  0.51100000000E-03 0.  1.
         11    1    4    4    0    0 -0.47437914813E-02  0.22038486461E-01 -0.12989575597E+00  0.13183841239E+00  0.51100000000E-03 0. -1.
</event>
<event>
 8    1  0.2959109E+004  0.1043930E+01  0.7957747E-01            NaN
         13   -1    0    0    0    0  0.00000000000E+00  0.00000000000E+00  0.74505805969E-08  0.10566000000E+00  0.10566000000E+00 0.  1.
     999900   -1    0    0    0    0 -0.00000000000E+00 -0.00000000000E+00 -0.74505805969E-08  0.93827000000E+00  0.93827000000E+00 0.  1.
     999902    2    1    2    0    0  0.12775165727E-01  0.66446595293E-03 -0.59419935420E-02  0.10298249065E+01  0.10297283061E+01 0.  0.
     999903    2    3    3    0    0  0.15797850563E-01  0.20914199464E-01  0.12965826926E+00  0.13920342712E+00  0.43351488016E-01 0.  0.
         14    1    1    2    0    0 -0.12775165727E-01 -0.66446595293E-03  0.59419935420E-02  0.14105093464E-01  0.00000000000E+00 0.  1.
     999901    1    3    3    0    0 -0.30226848352E-02 -0.20249733511E-01 -0.13560026280E+00  0.89062147942E+00  0.88000000000E+00 0.  1.
        -11    1    4    4    0    0  0.66704030590E-02  0.32437263044E-01  0.65704460319E-01  0.73579939776E-01  0.51100000000E-03 0. -1.
         11    1    4    4    0    0  0.91274475036E-02 -0.11523063580E-01  0.63953808938E-01  0.65623487341E-01  0.51100000000E-03 0.  1.
</event>
<event>
 8    1  0.2959109E+004  0.1043930E+01  0.7957747E-01            NaN
         13   -1    0    0    0    0  0.00000000000E+00  0.00000000000E+00  0.74505805969E-08  0.10566000000E+00  0.10566000000E+00 0.  1.
     999900   -1    0    0    0    0 -0.00000000000E+00 -0.00000000000E+00 -0.74505805969E-08  0.93827000000E+00  0.93827000000E+00 0.  1.
     999902    2    1    2    0    0 -0.36415338609E-02  0.80093934920E-02  0.11657039412E-01  0.10293252843E+01  0.10292216686E+01 0.  0.
     999903    2    3    3    0    0  0.71511030077E-01 -0.79586239265E-01 -0.74077737430E-01  0.13765754645E+00  0.44880864634E-01 0.  0.
         14    1    1    2    0    0  0.36415338609E-02 -0.80093934920E-02 -0.11657039412E-01  0.14604715705E-01  0.00000000000E+00 0. -1.
     999901    1    3    3    0    0 -0.75152563938E-01  0.87595632757E-01  0.85734776842E-01  0.89166773784E+00  0.88000000000E+00 0. -1.
        -11    1    4    4    0    0  0.26340920772E-01 -0.32686499581E-01 -0.42778861330E-02  0.42199677638E-01  0.51100000000E-03 0.  1.
         11    1    4    4    0    0  0.45170109304E-01 -0.46899739684E-01 -0.69799851297E-01  0.95457868817E-01  0.51100000000E-03 0. -1.
</event>
<event>
 8    1  0.2959109E+004  0.1043930E+01  0.7957747E-01            NaN
         13   -1    0    0    0    0  0.00000000000E+00  0.00000000000E+00  0.74505805969E-08  0.10566000000E+00  0.10566000000E+00 0.  1.
     999900   -1    0    0    0    0 -0.00000000000E+00 -0.00000000000E+00 -0.74505805969E-08  0.93827000000E+00  0.93827000000E+00 0. -1.
     999902    2    1    2    0    0  0.10124424287E-01 -0.37736854264E-02 -0.89197554809E-02  0.10299190505E+01  0.10298237441E+01 0.  0.
     999903    2    3    3    0    0 -0.11891318663E-01  0.11827189235E+00  0.55843512259E-01  0.13886680911E+00  0.45120381530E-01 0.  0.
         14    1    1    2    0    0 -0.10124424287E-01  0.37736854264E-02  0.89197554809E-02  0.14010949528E-01  0.00000000000E+00 0.  1.
     999901    1    3    3    0    0  0.22015742950E-01 -0.12204557778E+00 -0.64763267740E-01  0.89105224137E+00  0.88000000000E+00 0. -1.
        -11    1    4    4    0    0  0.16128147577E-01  0.62967414346E-01  0.25300733435E-01  0.69752423951E-01  0.51100000000E-03 0.  1.
         11    1    4    4    0    0 -0.28019466240E-01  0.55304478009E-01  0.30542778823E-01  0.69114385155E-01  0.51100000000E-03 0. -1.
</event>
<event>
 7    1  0.2959109E+004  0.1043930E+01  0.7957747E-01            NaN
         13   -1    0    0    0    0  0.00000000000E+00  0.00000000000E+00  0.74505805969E-08  0.10566000000E+00  0.10566000000E+00 0.  1.
     999900   -1    0    0    0    0 -0.00000000000E+00 -0.00000000000E+00 -0.74505805969E-08  0.93827000000E+00  0.93827000000E+00 0. -1.
     999902    2    1    2    0    0  0.74673288454E-02  0.30588781084E-02  0.10941931113E-01  0.10303342804E+01  0.10302445757E+01 0.  0.
         14    1    1    2    0    0 -0.74673288454E-02 -0.30588781084E-02 -0.10941931113E-01  0.13595719615E-01  0.00000000000E+00 0. -1.
     999901    1    3    3    0    0 -0.23520029201E-01  0.11504504531E+00 -0.41881706672E-01  0.88878716889E+00  0.88000000000E+00 0. -1.
        -11    1    3    3    0    0  0.94076020534E-02 -0.13220853480E-01 -0.13095664732E-01  0.20857888170E-01  0.51100000000E-03 0. -1.
         11    1    3    3    0    0  0.21579755993E-01 -0.98765313717E-01  0.65919302517E-01  0.12068922333E+00  0.51100000000E-03 0.  1.
</event>
<event>
 8    1  0.2959109E+004  0.1043930E+01  0.7957747E-01            NaN
         13   -1    0    0    0    0  0.00000000000E+00  0.00000000000E+00  0.74505805969E-08  0.10566000000E+00  0.10566000000E+00 0.  1.
     999900   -1    0    0    0    0 -0.00000000000E+00 -0.00000000000E+00 -0.74505805969E-08  0.93827000000E+00  0.93827000000E+00 0.  1.
     999902    2    1    2    0    0 -0.10006932545E-01 -0.68408173401E-02  0.45717800149E-02  0.10309748214E+01  0.10308934211E+01 0.  0.
     999903    2    3    3    0    0 -0.36893191462E-01 -0.92917339096E-01 -0.87391594003E-01  0.14159902865E+00  0.49175753486E-01 0.  0.
         14    1    1    2    0    0  0.10006932545E-01  0.68408173401E-02 -0.45717800149E-02  0.12955178631E-01  0.00000000000E+00 0. -1.
     999901    1    3    3    0    0  0.26886258917E-01  0.86076521756E-01  0.91963374018E-01  0.88937579272E+00  0.88000000000E+00 0. -1.
        -11    1    4    4    0    0 -0.28229039017E-02 -0.58428520358E-01 -0.67159347514E-01  0.89064582507E-01  0.51100000000E-03 0. -1.
         11    1    4    4    0    0 -0.34070287561E-01 -0.34488818739E-01 -0.20232246489E-01  0.52534446142E-01  0.51100000000E-03 0.  1.
</event>
<event>
 8    1  0.2959109E+004  0.1043930E+01  0.7957747E-01            NaN
         13   -1    0    0    0    0  0.00000000000E+00  0.00000000000E+00  0.74505805969E-08  0.10566000000E+00  0.10566000000E+00 0.  1.
     999900   -1    0    0    0    0 -0.00000000000E+00 -0.00000000000E+00 -0.74505805969E-08  0.93827000000E+00  0.93827000000E+00 0. -1.
     999902    2    1    2    0    0 -0.36858798117E-02  0.11854793804E-01 -0.80469824167E-02  0.10291355493E+01  0.10290292042E+01 0.  0.
     999903    2    3    3    0    0  0.16912765224E-01 -0.11421293624E+00  0.64137974559E-01  0.13698755441E+00  0.36349330800E-01 0.  0.
         14    1    1    2    0    0  0.36858798117E-02 -0.11854793804E-01  0.80469824167E-02  0.14794450721E-01  0.00000000000E+00 0.  1.
     999901    1    3    3    0    0 -0.20598645036E-01  0.12606773005E+00 -0.72184956975E-01  0.89214799487E+00  0.88000000000E+00 0. -1.
        -11    1    4    4    0    0 -0.96449163804E-02 -0.17166251105E-01  0.51667884889E-02  0.20363236807E-01  0.51100000000E-03 0. -1.
         11    1    4    4    0    0  0.26557681604E-01 -0.97046685138E-01  0.58971186070E-01  0.11662431760E+00  0.51100000000E-03 0.  1.
</event>
<event>
 7    1  0.2959109E+004  0.1043930E+01  0.7957747E-01            NaN
         13   -1    0    0    0    0  0.00000000000E+00  0.00000000000E+00  0.74505805969E-08  0.10566000000E+00  0.10566000000E+00 0.  1.
     999900   -1    0    0    0    0 -0.00000000000E+00 -0.00000000000E+00 -0.74505805969E-08  0.93827000000E+00  0.93827000000E+00 0.  1.
     999903    2    1    2    0    0  0.12258434045E-01 -0.34198984367E-01  0.10742351866E+00  0.12230182137E+00  0.45804840489E-01 0.  0.
         14    1    1    2    0    0 -0.60030125991E-02  0.10200704849E-01  0.28488352288E-01  0.30849258594E-01  0.00000000000E+00 0. -1.
     999901    1    1    2    0    0 -0.62554214461E-02  0.23998279518E-01 -0.13591187095E+00  0.89077892004E+00  0.88000000000E+00 0.  1.
        -11    1    3    3    0    0 -0.10823917751E-01 -0.14795135974E-01  0.78146855044E-01  0.80269828194E-01  0.51100000000E-03 0. -1.
         11    1    3    3    0    0  0.23082351796E-01 -0.19403848393E-01  0.29276663615E-01  0.42031993175E-01  0.51100000000E-03 0.  1.
</event>
<event>
 8    1  0.2959109E+004  0.1043930E+01  0.7957747E-01            NaN
         13   -1    0    0    0    0  0.00000000000E+00  0.00000000000E+00  0.74505805969E-08  0.10566000000E+00  0.10566000000E+00 0. -1.
     999900   -1    0    0    0    0 -0.00000000000E+00 -0.00000000000E+00 -0.74505805969E-08  0.93827000000E+00  0.93827000000E+00 0. -1.
     999902    2    1    2    0    0  0.85881385725E-02  0.94499893797E-02 -0.26876071231E-02  0.10308807987E+01  0.10307982050E+01 0.  0.
     999903    2    3    3    0    0  0.23118840962E-01  0.12770930644E+00  0.36010086787E-01  0.14200852500E+00  0.45006078066E-01 0.  0.
         14    1    1    2    0    0 -0.85881385725E-02 -0.94499893797E-02  0.26876071231E-02  0.13049201334E-01  0.00000000000E+00 0.  1.
     999901    1    3    3    0    0 -0.14530702389E-01 -0.11825931706E+00 -0.38697693910E-01  0.88887227367E+00  0.88000000000E+00 0.  1.
        -11    1    4    4    0    0 -0.11601236656E-01  0.19516499727E-01  0.12678650043E-01  0.26009454848E-01  0.51100000000E-03 0. -1.
         11    1    4    4    0    0  0.34720077618E-01  0.10819280671E+00  0.23331436744E-01  0.11599907015E+00  0.51100000000E-03 0.  1.
</event>
<event>
 8    1  0.2959109E+004  0.1043930E+01  0.7957747E-01            NaN
         13   -1    0    0    0    0  0.00000000000E+00  0.00000000000E+00  0.74505805969E-08  0.10566000000E+00  0.10566000000E+00 0. -1.
     999900   -1    0    0    0    0 -0.00000000000E+00 -0.00000000000E+00 -0.74505805969E-08  0.93827000000E+00  0.93827000000E+00 0. -1.
     999902    2    1    2    0    0 -0.13412812677E-01 -0.43892439065E-02  0.16801920171E-02  0.10297176092E+01  0.10296195233E+01 0.  0.
     999903    2    3    3    0    0  0.12945883457E+00  0.63779433599E-02  0.15515759758E-01  0.13802278317E+00  0.44825013788E-01 0.  0.
         14    1    1    2    0    0  0.13412812677E-01  0.43892439065E-02 -0.16801920171E-02  0.14212390762E-01  0.00000000000E+00 0. -1.
     999901    1    3    3    0    0 -0.14287164725E+00 -0.10767187266E-01 -0.13835567741E-01  0.89169482607E+00  0.88000000000E+00 0.  1.
        -11    1    4    4    0    0  0.71410355718E-01  0.24975351008E-01  0.25180890604E-02  0.75695501553E-01  0.51100000000E-03 0.  1.
         11    1    4    4    0    0  0.58048478855E-01 -0.18597407648E-01  0.12997670698E-01  0.62327281612E-01  0.51100000000E-03 0. -1.
</event>
<event>
 8    1  0.2959109E+004  0.1043930E+01  0.7957747E-01            NaN
         13   -1    0    0    0    0  0.00000000000E+00  0.00000000000E+00  0.74505805969E-08  0.10566000000E+00  0.10566000000E+00 0.  1.
     999900   -1    0    0    0    0 -0.00000000000E+00 -0.00000000000E+00 -0.74505805969E-08  0.93827000000E+00  0.93827000000E+00 0. -1.
     999902    2    1    2    0    0  0.33000699961E-02  0.71377543388E-02 -0.11106524157E-01  0.10303214410E+01  0.10302315657E+01 0.  0.
     999903    2    3    3    0    0 -0.29123090545E-01 -0.12014955973E+00  0.42763456206E-01  0.13894312825E+00  0.46823163022E-01 0.  0.
         14    1    1    2    0    0 -0.33000699961E-02 -0.71377543388E-02  0.11106524157E-01  0.13608558991E-01  0.00000000000E+00 0.  1.
     999901    1    3    3    0    0  0.32423160541E-01  0.12728731407E+00 -0.53869980362E-01  0.89137831275E+00  0.88000000000E+00 0.  1.
        -11    1    4    4    0    0 -0.15727902112E-01 -0.27975117661E-01  0.31754564586E-01  0.45150720991E-01  0.51100000000E-03 0.  1.
         11    1    4    4    0    0 -0.13395188433E-01 -0.92174442073E-01  0.11008891620E-01  0.93792407264E-01  0.51100000000E-03 0. -1.
</event>
<event>
 8    1  0.2959109E+004  0.1043930E+01  0.7957747E-01            NaN
         13   -1    0    0    0    0  0.00000000000E+00  0.00000000000E+00  0.74505805969E-08  0.10566000000E+00  0.10566000000E+00 0.  1.
     999900   -1    0    0    0    0 -0.00000000000E+00 -0.00000000000E+00 -0.74505805969E-08  0.93827000000E+00  0.93827000000E+00 0. -1.
     999902    2    1    2    0    0 -0.97176862596E-02 -0.55527913203E-02 -0.89599516053E-02  0.10295930669E+01  0.10294932422E+01 0.  0.
     999903    2    3    3    0    0 -0.12898390483E+00 -0.94673391187E-02 -0.33479278213E-01  0.14120072568E+00  0.45719849591E-01 0.  0.
         14    1    1    2    0    0  0.97176862596E-02  0.55527913203E-02  0.89599516053E-02  0.14336933091E-01  0.00000000000E+00 0.  1.
     999901    1    3    3    0    0  0.11926621857E+00  0.39145477985E-02  0.24519326608E-01  0.88839234123E+00  0.88000000000E+00 0. -1.
        -11    1    4    4    0    0 -0.10203965927E+00 -0.25566397507E-01 -0.20204845707E-01  0.10711783071E+00  0.51100000000E-03 0. -1.
         11    1    4    4    0    0 -0.26944245562E-01  0.16099058388E-01 -0.13274432506E-01  0.34082894966E-01  0.51100000000E-03 0.  1.
</event>
<event>
 8    1  0.2959109E+004  0.1043930E+01  0.7957747E-01            NaN
         13   -1    0    0    0    0  0.00000000000E+00  0.00000000000E+00  0.74505805969E-08  0.10566000000E+00  0.10566000000E+00 0. -1.
     999900   -1    0    0    0    0 -0.00000000000E+00 -0.00000000000E+00 -0.74505805969E-08  0.93827000000E+00  0.93827000000E+00 0.  1.
     999902    2    1    2    0    0 -0.11430279434E-02 -0.12571186769E-01  0.39911997575E-02  0.10306910074E+01  0.10306059780E+01 0.  0.
     999903    2    3    3    0    0 -0.12217190445E+00 -0.17413909479E-01 -0.55524978179E-01  0.14040250565E+00  0.37424883559E-01 0.  0.
         14    1    1    2    0    0  0.11430279434E-02  0.12571186769E-01 -0.39911997575E-02  0.13238992604E-01  0.00000000000E+00 0. -1.
     999901    1    3    3    0    0  0.12102887651E+00  0.48427227102E-02  0.59516177936E-01  0.89028850175E+00  0.88000000000E+00 0. -1.
        -11    1    4    4    0    0 -0.49967590112E-01 -0.22293495020E-01 -0.35811376657E-01  0.65394768911E-01  0.51100000000E-03 0. -1.
         11    1    4    4    0    0 -0.72204314339E-01  0.48795855405E-02 -0.19713601522E-01  0.75007736736E-01  0.51100000000E-03 0.  1.
</event>
<event>
 8    1  0.2959109E+004  0.1043930E+01  0.7957747E-01            NaN
         13   -1    0    0    0    0  0.00000000000E+00  0.00000000000E+00  0.74505805969E-08  0.10566000000E+00  0.10566000000E+00 0.  1.
     999900   -1    0    0    0    0 -0.00000000000E+00 -0.00000000000E+00 -0.74505805969E-08  0.93827000000E+00  0.93827000000E+00 0.  1.
     999902    2    1    2    0    0  0.32504296449E-02 -0.14844385469E-01  0.49039660406E-02  0.10279622213E+01  0.10278381967E+01 0.  0.
     999903    2    3    3    0    0  0.88381396842E-01  0.47042145059E-01  0.83501051599E-01  0.13821241037E+00  0.45891285045E-01 0.  0.
         14    1    1    2    0    0 -0.32504296449E-02  0.14844385469E-01 -0.49039660406E-02  0.15967778673E-01  0.00000000000E+00 0. -1.
     999901    1    3    3    0    0 -0.85130967197E-01 -0.61886530528E-01 -0.78597085558E-01  0.88974981096E+00  0.88000000000E+00 0.  1.
        -11    1    4    4    0    0  0.46290020565E-01  0.46481602803E-01  0.36337247408E-01  0.74993080169E-01  0.51100000000E-03 0.  1.
         11    1    4    4    0    0  0.42091376277E-01  0.56054225625E-03  0.47163804191E-01  0.63219330202E-01  0.51100000000E-03 0. -1.
</event>
<event>
 8    1  0.2959109E+004  0.1043930E+01  0.7957747E-01            NaN
         13   -1    0    0    0    0  0.00000000000E+00  0.00000000000E+00  0.74505805969E-08  0.10566000000E+00  0.10566000000E+00 0.  1.
     999900   -1    0    0    0    0 -0.00000000000E+00 -0.00000000000E+00 -0.74505805969E-08  0.93827000000E+00  0.93827000000E+00 0.  1.
     999902    2    1    2    0    0  0.33524992604E-02  0.43775564022E-02 -0.12576698188E-01  0.10301977173E+01  0.10301061892E+01 0.  0.
     999903    2    3    3    0    0 -0.57137253505E-01 -0.19287372533E-01 -0.11928022941E+00  0.14137564137E+00  0.46072012858E-01 0.  0.
         14    1    1    2    0    0 -0.33524992604E-02 -0.43775564022E-02  0.12576698188E-01  0.13732282719E-01  0.00000000000E+00 0.  1.
     999901    1    3    3    0    0  0.60489752765E-01  0.23664928936E-01  0.10670353122E+00  0.88882207591E+00  0.88000000000E+00 0. -1.
        -11    1    4    4    0    0 -0.46628127211E-01 -0.33042155254E-01 -0.78766542442E-01  0.97315957583E-01  0.51100000000E-03 0.  1.
         11    1    4    4    0    0 -0.10509126294E-01  0.13754782721E-01 -0.40513686963E-01  0.44059683788E-01  0.51100000000E-03 0. -1.
</event>
<event>
 8    1  0.2959109E+004  0.1043930E+01  0.7957747E-01            NaN
         13   -1    0    0    0    0  0.00000000000E+00  0.00000000000E+00  0.74505805969E-08  0.10566000000E+00  0.10566000000E+00 0.  1.
     999900   -1    0    0    0    0 -0.00000000000E+00 -0.00000000000E+00 -0.74505805969E-08  0.93827000000E+00  0.93827000000E+00 0. -1.
     999902    2    1    2    0    0 -0.90569607606E-02  0.82390149178E-02 -0.21157765532E-02  0.10315047670E+01  0.10314299287E+01 0.  0.
     999903    2    3    3    0    0  0.12333121187E+00  0.20480178976E-01  0.44954155968E-01  0.14027412742E+00  0.45010322527E-01 0.  0.
         14    1    1    2    0    0  0.90569607606E-02 -0.82390149178E-02  0.21157765532E-02  0.12425233014E-01  0.00000000000E+00 0. -1.
     999901    1    3    3    0    0 -0.13238817263E+00 -0.12241164058E-01 -0.47069932521E-01  0.89123063956E+00  0.88000000000E+00 0. -1.
        -11    1    4    4    0    0  0.17484824883E-01 -0.71182061040E-02  0.21099680586E-01  0.28316878380E-01  0.51100000000E-03 0. -1.
         11    1    4    4    0    0  0.10584638698E+00  0.27598385080E-01  0.23854475381E-01  0.11195724904E+00  0.51100000000E-03 0.  1.
</event>
<event>
 8    1  0.2959109E+004  0.1043930E+01  0.7957747E-01            NaN
         13   -1    0    0    0    0  0.00000000000E+00  0.00000000000E+00  0.74505805969E-08  0.10566000000E+00  0.10566000000E+00 0.  1.
     999900   -1    0    0    0    0 -0.00000000000E+00 -0.00000000000E+00 -0.74505805969E-08  0.93827000000E+00  0.93827000000E+00 0. -1.
     999902    2    1    2    0    0 -0.77610584444E-02 -0.10677089310E-01 -0.34137600674E-02  0.10302959242E+01  0.10302057093E+01 0.  0.
     999903    2    3    3    0    0 -0.15284616412E-02 -0.11599533680E+00  0.67058093289E-01  0.14119690802E+00  0.44525550018E-01 0.  0.
         14    1    1    2    0    0  0.77610584444E-02  0.10677089310E-01  0.34137600674E-02  0.13634075770E-01  0.00000000000E+00 0.  1.
     999901    1    3    3    0    0 -0.62325968032E-02  0.10531824749E+00 -0.70471853356E-01  0.88909901621E+00  0.88000000000E+00 0. -1.
        -11    1    4    4    0    0 -0.69574215774E-02 -0.38007713636E-01  0.46305596258E-01  0.60311370211E-01  0.51100000000E-03 0.  1.
         11    1    4    4    0    0  0.54289599362E-02 -0.77987623160E-01  0.20752497031E-01  0.80885537806E-01  0.51100000000E-03 0. -1.
</event>
<event>
 8    1  0.2959109E+004  0.1043930E+01  0.7957747E-01            NaN
         13   -1    0    0    0    0  0.00000000000E+00  0.00000000000E+00  0.74505805969E-08  0.10566000000E+00  0.10566000000E+00 0.  1.
     999900   -1    0    0    0    0 -0.00000000000E+00 -0.00000000000E+00 -0.74505805969E-08  0.93827000000E+00  0.93827000000E+00 0. -1.
     999902    2    1    2    0    0 -0.64158726680E-02 -0.17124171268E-02  0.12158265560E-01  0.10300765089E+01  0.10299833469E+01 0.  0.
     999903    2    3    3    0    0  0.61108088838E-01 -0.11771598042E+00  0.40600931213E-02  0.13986198841E+00  0.44200009927E-01 0.  0.
         14    1    1    2    0    0  0.64158726680E-02  0.17124171268E-02 -0.12158265560E-01  0.13853491110E-01  0.00000000000E+00 0. -1.
     999901    1    3    3    0    0 -0.67523961506E-01  0.11600356330E+00  0.80981724384E-02  0.89021452048E+00  0.88000000000E+00 0. -1.
        -11    1    4    4    0    0  0.52147000366E-01 -0.82836468683E-01 -0.15138578468E-01  0.99048613671E-01  0.51100000000E-03 0. -1.
         11    1    4    4    0    0  0.89610884720E-02 -0.34879511741E-01  0.19198671590E-01  0.40813374740E-01  0.51100000000E-03 0.  1.
</event>
<event>
 8    1  0.2959109E+004  0.1043930E+01  0.7957747E-01            NaN
         13   -1    0    0    0    0  0.00000000000E+00  0.00000000000E+00  0.74505805969E-08  0.10566000000E+00  0.10566000000E+00 0. -1.
     999900   -1    0    0    0    0 -0.00000000000E+00 -0.00000000000E+00 -0.74505805969E-08  0.93827000000E+00  0.93827000000E+00 0.  1.
     999902    2    1    2    0    0  0.66679629885E-02  0.22629203285E-02 -0.11992810627E-01  0.10300228060E+01  0.10299289154E+01 0.  0.
     999903    2    3    3    0    0 -0.27782449894E-01 -0.12904816076E+00 -0.20379597709E-02  0.13955746133E+00  0.45242009394E-01 0.  0.
         14    1    1    2    0    0 -0.66679629885E-02 -0.22629203285E-02  0.11992810627E-01  0.13907194022E-01  0.00000000000E+00 0. -1.
     999901    1    3    3    0    0  0.34450412882E-01  0.13131108109E+00 -0.99548508564E-02  0.89046534465E+00  0.88000000000E+00 0. -1.
        -11    1    4    4    0    0 -0.96908245479E-02 -0.45426061371E-01  0.20961734297E-01  0.50961696968E-01  0.51100000000E-03 0. -1.
         11    1    4    4    0    0 -0.18091625346E-01 -0.83622099392E-01 -0.22999694068E-01  0.88595764361E-01  0.51100000000E-03 0.  1.
</event>
<event>
 8    1  0.2959109E+004  0.1043930E+01  0.7957747E-01            NaN
         13   -1    0    0    0    0  0.00000000000E+00  0.00000000000E+00  0.74505805969E-08  0.10566000000E+00  0.10566000000E+00 0.  1.
     999900   -1    0    0    0    0 -0.00000000000E+00 -0.00000000000E+00 -0.74505805969E-08  0.93827000000E+00  0.93827000000E+00 0. -1.
     999902    2    1    2    0    0 -0.48651984811E-02  0.12854628007E-01  0.15659854860E-03  0.10301845957E+01  0.10300928914E+01 0.  0.
     999903    2    3    3    0    0 -0.98904695529E-01 -0.84834136274E-01  0.20111976391E-01  0.13957540034E+00  0.45802088506E-01 0.  0.
         14    1    1    2    0    0  0.48651984811E-02 -0.12854628007E-01 -0.15659854860E-03  0.13745404344E-01  0.00000000000E+00 0. -1.
     999901    1    3    3    0    0  0.94039497048E-01  0.97688764281E-01 -0.19955377842E-01  0.89060919531E+00  0.88000000000E+00 0. -1.
        -11    1    4    4    0    0 -0.20610790083E-01 -0.45423124879E-01  0.11693892795E-02  0.49896828897E-01  0.51100000000E-03 0. -1.
         11    1    4    4    0    0 -0.78293905447E-01 -0.39411011394E-01  0.18942587111E-01  0.89678571447E-01  0.51100000000E-03 0.  1.
</event>
<event>
 8    1  0.2959109E+004  0.1043930E+01  0.7957747E-01            NaN
         13   -1    0    0    0    0  0.00000000000E+00  0.00000000000E+00  0.74505805969E-08  0.10566000000E+00  0.10566000000E+00 0. -1.
     999900   -1    0    0    0    0 -0.00000000000E+00 -0.00000000000E+00 -0.74505805969E-08  0.93827000000E+00  0.93827000000E+00 0.  1.
     999902    2    1    2    0    0 -0.88296087743E-02  0.66118531727E-02 -0.90092445395E-02  0.10296876308E+01  0.10295891277E+01 0.  0.
     999903    2    3    3    0    0 -0.74283234130E-01  0.42879381323E-01  0.10147179371E+00  0.13962832351E+00  0.42929053006E-01 0.  0.
         14    1    1    2    0    0  0.88296087743E-02 -0.66118531727E-02  0.90092445395E-02  0.14242369208E-01  0.00000000000E+00 0. -1.
     999901    1    3    3    0    0  0.65453625356E-01 -0.36267528150E-01 -0.11048103825E+00  0.89005930728E+00  0.88000000000E+00 0.  1.
        -11    1    4    4    0    0 -0.51280296381E-01  0.68966114751E-02  0.67521403324E-01  0.85068402328E-01  0.51100000000E-03 0.  1.
         11    1    4    4    0    0 -0.23002937749E-01  0.35982769847E-01  0.33950390383E-01  0.54559921180E-01  0.51100000000E-03 0. -1.
</event>
<event>
 8    1  0.2959109E+004  0.1043930E+01  0.7957747E-01            NaN
         13   -1    0    0    0    0  0.00000000000E+00  0.00000000000E+00  0.74505805969E-08  0.10566000000E+00  0.10566000000E+00 0.  1.
     999900   -1    0    0    0    0 -0.00000000000E+00 -0.00000000000E+00 -0.74505805969E-08  0.93827000000E+00  0.93827000000E+00 0. -1.
     999902    2    1    2    0    0  0.32853360345E-02 -0.92903213261E-02  0.99999281886E-02  0.10298906956E+01  0.10297950004E+01 0.  0.
     999903    2    3    3    0    0 -0.88945912371E-02  0.12763199229E+00  0.29804270194E-01  0.13899884891E+00  0.45424071457E-01 0.  0.
         14    1    1    2    0    0 -0.32853360345E-02  0.92903213261E-02 -0.99999281886E-02  0.14039304362E-01  0.00000000000E+00 0. -1.
     999901    1    3    3    0    0  0.12179927272E-01 -0.13692231362E+00 -0.19804342005E-01  0.89089184672E+00  0.88000000000E+00 0. -1.
        -11    1    4    4    0    0  0.88069920225E-03  0.70986060887E-01  0.38656922179E-01  0.80835729876E-01  0.51100000000E-03 0. -1.
         11    1    4    4    0    0 -0.97752904394E-02  0.56645931407E-01 -0.88526519849E-02  0.58163119038E-01  0.51100000000E-03 0.  1.
</event>
<event>
 8    1  0.2959109E+004  0.1043930E+01  0.7957747E-01            NaN
         13   -1    0    0    0    0  0.00000000000E+00  0.00000000000E+00  0.74505805969E-08  0.10566000000E+00  0.10566000000E+00 0.  1.
     999900   -1    0    0    0    0 -0.00000000000E+00 -0.00000000000E+00 -0.74505805969E-08  0.93827000000E+00  0.93827000000E+00 0.  1.
     999902    2    1    2    0    0  0.56354145202E-03  0.13447170919E-01  0.39934770508E-03  0.10304651026E+01  0.10303771271E+01 0.  0.
     999903    2    3    3    0    0  0.83742953667E-01  0.10249258890E+00 -0.23639536349E-01  0.14174367881E+00  0.44886854797E-01 0.  0.
         14    1    1    2    0    0 -0.56354145202E-03 -0.13447170919E-01 -0.39934770508E-03  0.13464897447E-01  0.00000000000E+00 0.  1.
     999901    1    3    3    0    0 -0.83179412215E-01 -0.89045417985E-01  0.24038884054E-01  0.88872142375E+00  0.88000000000E+00 0. -1.
        -11    1    4    4    0    0  0.78844164107E-01  0.66636491525E-01 -0.21763415909E-01  0.10550228249E+00  0.51100000000E-03 0. -1.
         11    1    4    4    0    0  0.48987895597E-02  0.35856097378E-01 -0.18761204399E-02  0.36241396320E-01  0.51100000000E-03 0.  1.
</event>
<event>
 8    1  0.2959109E+004  0.1043930E+01  0.7957747E-01            NaN
         13   -1    0    0    0    0  0.00000000000E+00  0.00000000000E+00  0.74505805969E-08  0.10566000000E+00  0.10566000000E+00 0.  1.
     999900   -1    0    0    0    0 -0.00000000000E+00 -0.00000000000E+00 -0.74505805969E-08  0.93827000000E+00  0.93827000000E+00 0.  1.
     999902    2    1    2    0    0  0.53660065166E-02  0.66307424893E-02 -0.95072822002E-02  0.10311570134E+01  0.10310779006E+01 0.  0.
     999903    2    3    3    0    0 -0.15616062276E-01 -0.13154839227E+00  0.10164332200E-03  0.14007561872E+00  0.45522826356E-01 0.  0.
         14    1    1    2    0    0 -0.53660065166E-02 -0.66307424893E-02  0.95072822002E-02  0.12772986602E-01  0.00000000000E+00 0.  1.
     999901    1    3    3    0    0  0.20982068792E-01  0.13817913476E+00 -0.96089255222E-02  0.89108139468E+00  0.88000000000E+00 0.  1.
        -11    1    4    4    0    0 -0.22329512329E-01 -0.53854484213E-01  0.16061123569E-01  0.60474237507E-01  0.51100000000E-03 0.  1.
         11    1    4    4    0    0  0.67134500538E-02 -0.77693908053E-01 -0.15959480247E-01  0.79601381213E-01  0.51100000000E-03 0. -1.
</event>
<event>
 8    1  0.2959109E+004  0.1043930E+01  0.7957747E-01            NaN
         13   -1    0    0    0    0  0.00000000000E+00  0.00000000000E+00  0.74505805969E-08  0.10566000000E+00  0.10566000000E+00 0. -1.
     999900   -1    0    0    0    0 -0.00000000000E+00 -0.00000000000E+00 -0.74505805969E-08  0.93827000000E+00  0.93827000000E+00 0.  1.
     999902    2    1    2    0    0 -0.93674699810E-02 -0.31142982694E-02 -0.70289570635E-02  0.10318116426E+01  0.10317404767E+01 0.  0.
     999903    2    3    3    0    0 -0.87176363106E-01 -0.64039712359E-01  0.80262631583E-01  0.14198809195E+00  0.44919095968E-01 0.  0.
         14    1    1    2    0    0  0.93674699810E-02  0.31142982694E-02  0.70289570635E-02  0.12118357354E-01  0.00000000000E+00 0. -1.
     999901    1    3    3    0    0  0.77808893125E-01  0.60925414090E-01 -0.87291588647E-01  0.88982355070E+00  0.88000000000E+00 0.  1.
        -11    1    4    4    0    0 -0.49310444806E-01 -0.45384225052E-01  0.73095571490E-01  0.99168904113E-01  0.51100000000E-03 0.  1.
         11    1    4    4    0    0 -0.37865918299E-01 -0.18655487306E-01  0.71670600931E-02  0.42819187833E-01  0.51100000000E-03 0. -1.
</event>
<event>
 8    1  0.2959109E+004  0.1043930E+01  0.7957747E-01            NaN
         13   -1    0    0    0    0  0.00000000000E+00  0.00000000000E+00  0.74505805969E-08  0.10566000000E+00  0.10566000000E+00 0. -1.
     999900   -1    0    0    0    0 -0.00000000000E+00 -0.00000000000E+00 -0.74505805969E-08  0.93827000000E+00  0.93827000000E+00 0. -1.
     999902    2    1    2    0    0 -0.39959946939E-02 -0.83122005757E-02 -0.68260203877E-02  0.10324558897E+01  0.10323921295E+01 0.  0.
     999903    2    3    3    0    0  0.91046899250E-01 -0.44261816328E-01 -0.89894017809E-01  0.14272232357E+00  0.45167255404E-01 0.  0.
         14    1    1    2    0    0  0.39959946939E-02  0.83122005757E-02  0.68260203877E-02  0.11474110263E-01  0.00000000000E+00 0. -1.
     999901    1    3    3    0    0 -0.95042893944E-01  0.35949615753E-01  0.83067997421E-01  0.88973356616E+00  0.88000000000E+00 0.  1.
        -11    1    4    4    0    0  0.64608653572E-01 -0.52370066877E-01 -0.66094155212E-01  0.10623370696E+00  0.51100000000E-03 0.  1.
         11    1    4    4    0    0  0.26438245678E-01  0.81082505481E-02 -0.23799862596E-01  0.36488616610E-01  0.51100000000E-03 0. -1.
</event>
<event>
 8    1  0.2959109E+004  0.1043930E+01  0.7957747E-01            NaN
         13   -1    0    0    0    0  0.00000000000E+00  0.00000000000E+00  0.74505805969E-08  0.10566000000E+00  0.10566000000E+00 0. -1.
     999900   -1    0    0    0    0 -0.00000000000E+00 -0.00000000000E+00 -0.74505805969E-08  0.93827000000E+00  0.93827000000E+00 0. -1.
     999902    2    1    2    0    0  0.52709120111E-02  0.10994361906E-01 -0.26677193477E-02  0.10314490051E+01  0.10313734895E+01 0.  0.
     999903    2    3    3    0    0 -0.71818029648E-01 -0.10926528551E+00  0.19562035491E-01  0.13965348497E+00  0.44985449114E-01 0.  0.
         14    1    1    2    0    0 -0.52709120111E-02 -0.10994361906E-01  0.26677193477E-02  0.12480994899E-01  0.00000000000E+00 0.  1.
     999901    1    3    3    0    0  0.77088941660E-01  0.12025964742E+00 -0.22229754839E-01  0.89179552013E+00  0.88000000000E+00 0.  1.
        -11    1    4    4    0    0 -0.19935058877E-01 -0.70727289682E-01  0.70561153322E-02  0.73822801103E-01  0.51100000000E-03 0. -1.
         11    1    4    4    0    0 -0.51882970772E-01 -0.38537995828E-01  0.12505920159E-01  0.65830683869E-01  0.51100000000E-03 0.  1.
</event>
<event>
 8    1  0.2959109E+004  0.1043930E+01  0.7957747E-01            NaN
         13   -1    0    0    0    0  0.00000000000E+00  0.00000000000E+00  0.74505805969E-08  0.10566000000E+00  0.10566000000E+00 0.  1.
     999900   -1    0    0    0    0 -0.00000000000E+00 -0.00000000000E+00 -0.74505805969E-08  0.93827000000E+00  0.93827000000E+00 0. -1.
     999902    2    1    2    0    0 -0.56572431079E-02  0.84967963465E-02 -0.84635597955E-02  0.10306698419E+01  0.10305845386E+01 0.  0.
     999903    2    3    3    0    0  0.11858534076E+00  0.59744199548E-01 -0.12844533083E-01  0.14045542455E+00  0.43941914286E-01 0.  0.
         14    1    1    2    0    0  0.56572431079E-02 -0.84967963465E-02  0.84635597955E-02  0.13260158074E-01  0.00000000000E+00 0. -1.
     999901    1    3    3    0    0 -0.12424258387E+00 -0.51247403201E-01  0.43809732870E-02  0.89021441738E+00  0.88000000000E+00 0.  1.
        -11    1    4    4    0    0  0.10919023076E+00  0.57753961560E-01 -0.23886214198E-01  0.12581271366E+00  0.51100000000E-03 0.  1.
         11    1    4    4    0    0  0.93951100057E-02  0.19902379879E-02  0.11041681116E-01  0.14642710887E-01  0.51100000000E-03 0. -1.
</event>
<event>
 8    1  0.2959109E+004  0.1043930E+01  0.7957747E-01            NaN
         13   -1    0    0    0    0  0.00000000000E+00  0.00000000000E+00  0.74505805969E-08  0.10566000000E+00  0.10566000000E+00 0.  1.
     999900   -1    0    0    0    0 -0.00000000000E+00 -0.00000000000E+00 -0.74505805969E-08  0.93827000000E+00  0.93827000000E+00 0.  1.
     999902    2    1    2    0    0  0.30824550720E-03  0.10028290994E-01 -0.74238422280E-02  0.10314490117E+01  0.10313734962E+01 0.  0.
     999903    2    3    3    0    0 -0.52012833161E-02  0.13166058067E+00  0.27946019081E-01  0.14236195416E+00  0.46091042056E-01 0.  0.
         14    1    1    2    0    0 -0.30824550720E-03 -0.10028290994E-01  0.74238422280E-02  0.12480988301E-01  0.00000000000E+00 0.  1.
     999901    1    3    3    0    0  0.55095288233E-02 -0.12163228968E+00 -0.35369861309E-01  0.88908705754E+00  0.88000000000E+00 0.  1.
        -11    1    4    4    0    0  0.85039475048E-02  0.52900388316E-01  0.31828417998E-01  0.62322367737E-01  0.51100000000E-03 0.  1.
         11    1    4    4    0    0 -0.13705230821E-01  0.78760192356E-01 -0.38823989170E-02  0.80039586419E-01  0.51100000000E-03 0. -1.
</event>
<event>
 8    1  0.2959109E+004  0.1043930E+01  0.7957747E-01            NaN
         13   -1    0    0    0    0  0.00000000000E+00  0.00000000000E+00  0.74505805969E-08  0.10566000000E+00  0.10566000000E+00 0. -1.
     999900   -1    0    0    0    0 -0.00000000000E+00 -0.00000000000E+00 -0.74505805969E-08  0.93827000000E+00  0.93827000000E+00 0. -1.
     999902    2    1    2    0    0 -0.13329047983E-01 -0.11138930836E-02 -0.30647543069E-02  0.10302078647E+01  0.10301164728E+01 0.  0.
     999903    2    3    3    0    0 -0.51085749553E-01  0.15590301504E-02  0.12244653635E+00  0.14049678963E+00  0.46195337994E-01 0.  0.
         14    1    1    2    0    0  0.13329047983E-01  0.11138930836E-02  0.30647543069E-02  0.13722135289E-01  0.00000000000E+00 0. -1.
     999901    1    3    3    0    0  0.37756701570E-01 -0.26729232339E-02 -0.12551129065E+00  0.88971107508E+00  0.88000000000E+00 0. -1.
        -11    1    4    4    0    0 -0.29133966126E-01 -0.21765319669E-01  0.56712966295E-01  0.67373131065E-01  0.51100000000E-03 0. -1.
         11    1    4    4    0    0 -0.21951783427E-01  0.23324349819E-01  0.65733570050E-01  0.73123658570E-01  0.51100000000E-03 0.  1.
</event>
<event>
 8    1  0.2959109E+004  0.1043930E+01  0.7957747E-01            NaN
         13   -1    0    0    0    0  0.00000000000E+00  0.00000000000E+00  0.74505805969E-08  0.10566000000E+00  0.10566000000E+00 0.  1.
     999900   -1    0    0    0    0 -0.00000000000E+00 -0.00000000000E+00 -0.74505805969E-08  0.93827000000E+00  0.93827000000E+00 0.  1.
     999902    2    1    2    0    0  0.82933483012E-02  0.46565042950E-02  0.23721578500E-02  0.10341274600E+01  0.10340809996E+01 0.  0.
     999903    2    3    3    0    0 -0.72675198793E-01 -0.11404631072E+00  0.63438052620E-02  0.14246494651E+00  0.44359571821E-01 0.  0.
         14    1    1    2    0    0 -0.82933483012E-02 -0.46565042950E-02 -0.23721578500E-02  0.98025400361E-02  0.00000000000E+00 0. -1.
     999901    1    3    3    0    0  0.80968547095E-01  0.11870281501E+00 -0.39716474120E-02  0.89166251345E+00  0.88000000000E+00 0. -1.
        -11    1    4    4    0    0 -0.47083302814E-01 -0.10296854345E+00 -0.23562419678E-02  0.11324827302E+00  0.51100000000E-03 0.  1.
         11    1    4    4    0    0 -0.25591895980E-01 -0.11077767268E-01  0.87000472298E-02  0.29216673498E-01  0.51100000000E-03 0. -1.
</event>
<event>
 7    1  0.2959109E+004  0.1043930E+01  0.7957747E-01            NaN
         13   -1    0    0    0    0  0.00000000000E+00  0.00000000000E+00  0.74505805969E-08  0.10566000000E+00  0.10566000000E+00 0. -1.
     999900   -1    0    0    0    0 -0.00000000000E+00 -0.00000000000E+00 -0.74505805969E-08  0.93827000000E+00  0.93827000000E+00 0. -1.
     999903    2    1    2    0    0  0.45771769577E-01 -0.70881872250E-01  0.82988207184E-01  0.12624527878E+00  0.43949211341E-01 0.  0.
         14    1    1    2    0    0 -0.22424559905E-01 -0.65508777092E-02 -0.21647939936E-01  0.31849775339E-01  0.00000000000E+00 0. -1.
     999901    1    1    2    0    0 -0.23347209672E-01  0.77432749960E-01 -0.61340267248E-01  0.88583494589E+00  0.88000000000E+00 0. -1.
        -11    1    3    3    0    0  0.16750607216E-01 -0.60478934112E-01  0.65862897064E-01  0.90975088041E-01  0.51100000000E-03 0.  1.
         11    1    3    3    0    0  0.29021162361E-01 -0.10402938138E-01  0.17125310120E-01  0.35270190734E-01  0.51100000000E-03 0. -1.
</event>
<event>
 8    1  0.2959109E+004  0.1043930E+01  0.7957747E-01            NaN
         13   -1    0    0    0    0  0.00000000000E+00  0.00000000000E+00  0.74505805969E-08  0.10566000000E+00  0.10566000000E+00 0.  1.
     999900   -1    0    0    0    0 -0.00000000000E+00 -0.00000000000E+00 -0.74505805969E-08  0.93827000000E+00  0.93827000000E+00 0.  1.
     999902    2    1    2    0    0  0.12234489189E-01 -0.51181994186E-03  0.98068868466E-02  0.10282417969E+01  0.10281221101E+01 0.  0.
     999903    2    3    3    0    0 -0.38404426665E-01 -0.11917289815E+00  0.39197976371E-01  0.13834933860E+00  0.43897363249E-01 0.  0.
         14    1    1    2    0    0 -0.12234489189E-01  0.51181994186E-03 -0.98068868466E-02  0.15688203051E-01  0.00000000000E+00 0. -1.
     999901    1    3    3    0    0  0.50638915853E-01  0.11866107820E+00 -0.29391089525E-01  0.88989245835E+00  0.88000000000E+00 0.  1.
        -11    1    4    4    0    0 -0.25949301456E-01 -0.57644199364E-01  0.41339046291E-01  0.75534083933E-01  0.51100000000E-03 0. -1.
         11    1    4    4    0    0 -0.12455125209E-01 -0.61528698781E-01 -0.21410699198E-02  0.62815254669E-01  0.51100000000E-03 0.  1.
</event>
<event>
 8    1  0.2959109E+004  0.1043930E+01  0.7957747E-01            NaN
         13   -1    0    0    0    0  0.00000000000E+00  0.00000000000E+00  0.74505805969E-08  0.10566000000E+00  0.10566000000E+00 0.  1.
     999900   -1    0    0    0    0 -0.00000000000E+00 -0.00000000000E+00 -0.74505805969E-08  0.93827000000E+00  0.93827000000E+00 0.  1.
     999902    2    1    2    0    0 -0.86847747080E-02  0.39002479947E-02  0.12860185048E-01  0.10279293248E+01  0.10278047846E+01 0.  0.
     999903    2    3    3    0    0 -0.12867870836E+00 -0.17105565444E-01 -0.20961606601E-01  0.13889406013E+00  0.44736569286E-01 0.  0.
         14    1    1    2    0    0  0.86847747080E-02 -0.39002479947E-02 -0.12860185048E-01  0.16000675161E-01  0.00000000000E+00 0. -1.
     999901    1    3    3    0    0  0.11999393366E+00  0.21005813438E-01  0.33821791649E-01  0.88903526471E+00  0.88000000000E+00 0. -1.
        -11    1    4    4    0    0 -0.58129285398E-01  0.66757122847E-02 -0.26504437715E-01  0.64236479472E-01  0.51100000000E-03 0.  1.
         11    1    4    4    0    0 -0.70549422967E-01 -0.23781277728E-01  0.55428311140E-02  0.74657580654E-01  0.51100000000E-03 0. -1.
</event>
<event>
 8    1  0.2959109E+004  0.1043930E+01  0.7957747E-01            NaN
         13   -1    0    0    0    0  0.00000000000E+00  0.00000000000E+00  0.74505805969E-08  0.10566000000E+00  0.10566000000E+00 0.  1.
     999900   -1    0    0    0    0 -0.00000000000E+00 -0.00000000000E+00 -0.74505805969E-08  0.93827000000E+00  0.93827000000E+00 0. -1.
     999902    2    1    2    0    0  0.10542306231E-01  0.83198524832E-02  0.55362326426E-02  0.10294038154E+01  0.10293013190E+01 0.  0.
     999903    2    3    3    0    0 -0.10255986398E+00 -0.77229984078E-01 -0.20571943108E-01  0.13766814144E+00  0.45236226446E-01 0.  0.
         14    1    1    2    0    0 -0.10542306231E-01 -0.83198524832E-02 -0.55362326426E-02  0.14526184560E-01  0.00000000000E+00 0. -1.
     999901    1    3    3    0    0  0.11310217022E+00  0.85549836561E-01  0.26108175751E-01  0.89173567400E+00  0.88000000000E+00 0. -1.
        -11    1    4    4    0    0 -0.74501603161E-01 -0.76009516741E-01 -0.24739007745E-01  0.10927129144E+00  0.51100000000E-03 0. -1.
         11    1    4    4    0    0 -0.28058260824E-01 -0.12204673365E-02  0.41670646368E-02  0.28396849995E-01  0.51100000000E-03 0.  1.
</event>
<event>
 8    1  0.2959109E+004  0.1043930E+01  0.7957747E-01            NaN
         13   -1    0    0    0    0  0.00000000000E+00  0.00000000000E+00  0.74505805969E-08  0.10566000000E+00  0.10566000000E+00 0.  1.
     999900   -1    0    0    0    0 -0.00000000000E+00 -0.00000000000E+00 -0.74505805969E-08  0.93827000000E+00  0.93827000000E+00 0.  1.
     999902    2    1    2    0    0 -0.20642610975E-01  0.12246114978E-01  0.13327183019E-01  0.10164764296E+01  0.10161056212E+01 0.  0.
     999903    2    3    3    0    0  0.10354969188E+00 -0.30069181196E-01 -0.44982622735E-01  0.12484065990E+00  0.43989313133E-01 0.  0.
         14    1    1    2    0    0  0.20642610975E-01 -0.12246114978E-01 -0.13327183019E-01  0.27453570390E-01  0.00000000000E+00 0.  1.
     999901    1    3    3    0    0 -0.12419230286E+00  0.42315296174E-01  0.58309805754E-01  0.89163576971E+00  0.88000000000E+00 0.  1.
        -11    1    4    4    0    0  0.73332380960E-01 -0.41046275748E-01 -0.36233758051E-01  0.91518201433E-01  0.51100000000E-03 0.  1.
         11    1    4    4    0    0  0.30217310921E-01  0.10977094552E-01 -0.87488646837E-02  0.33322458468E-01  0.51100000000E-03 0. -1.
</event>
<event>
 8    1  0.2959109E+004  0.1043930E+01  0.7957747E-01            NaN
         13   -1    0    0    0    0  0.00000000000E+00  0.00000000000E+00  0.74505805969E-08  0.10566000000E+00  0.10566000000E+00 0.  1.
     999900   -1    0    0    0    0 -0.00000000000E+00 -0.00000000000E+00 -0.74505805969E-08  0.93827000000E+00  0.93827000000E+00 0.  1.
     999902    2    1    2    0    0 -0.12092442068E-02  0.10406185159E-02  0.13778864951E-01  0.10300590852E+01  0.10299656871E+01 0.  0.
     999903    2    3    3    0    0 -0.12636036349E+00 -0.25770341281E-01 -0.29508337508E-01  0.13974711058E+00  0.45027335952E-01 0.  0.
         14    1    1    2    0    0  0.12092442068E-02 -0.10406185159E-02 -0.13778864951E-01  0.13870914814E-01  0.00000000000E+00 0. -1.
     999901    1    3    3    0    0  0.12515111928E+00  0.26810959797E-01  0.43287202459E-01  0.89031197460E+00  0.88000000000E+00 0. -1.
        -11    1    4    4    0    0 -0.47065479921E-01  0.24169861341E-02 -0.29478040418E-01  0.55589722162E-01  0.51100000000E-03 0.  1.
         11    1    4    4    0    0 -0.79294883569E-01 -0.28187327415E-01 -0.30297090116E-04  0.84157388422E-01  0.51100000000E-03 0. -1.
</event>
<event>
 8    1  0.2959109E+004  0.1043930E+01  0.7957747E-01            NaN
         13   -1    0    0    0    0  0.00000000000E+00  0.00000000000E+00  0.74505805969E-08  0.10566000000E+00  0.10566000000E+00 0. -1.
     999900   -1    0    0    0    0 -0.00000000000E+00 -0.00000000000E+00 -0.74505805969E-08  0.93827000000E+00  0.93827000000E+00 0. -1.
     999902    2    1    2    0    0  0.40255976521E-02  0.95325083907E-02  0.76390499372E-02  0.10310680703E+01  0.10309878449E+01 0.  0.
     999903    2    3    3    0    0  0.35908026972E-01  0.12710671277E+00  0.28347999355E-01  0.14243482565E+00  0.45150500103E-01 0.  0.
         14    1    1    2    0    0 -0.40255976521E-02 -0.95325083907E-02 -0.76390499372E-02  0.12861929739E-01  0.00000000000E+00 0.  1.
     999901    1    3    3    0    0 -0.31882429320E-01 -0.11757420438E+00 -0.20708949417E-01  0.88863324461E+00  0.88000000000E+00 0. -1.
        -11    1    4    4    0    0  0.37921419436E-01  0.77443473104E-01  0.21748199974E-02  0.86258428814E-01  0.51100000000E-03 0.  1.
         11    1    4    4    0    0 -0.20133924631E-02  0.49663239665E-01  0.26173179357E-01  0.56176396840E-01  0.51100000000E-03 0. -1.
</event>
<event>
 8    1  0.2959109E+004  0.1043930E+01  0.7957747E-01            NaN
         13   -1    0    0    0    0  0.00000000000E+00  0.00000000000E+00  0.74505805969E-08  0.10566000000E+00  0.10566000000E+00 0. -1.
     999900   -1    0    0    0    0 -0.00000000000E+00 -0.00000000000E+00 -0.74505805969E-08  0.93827000000E+00  0.93827000000E+00 0. -1.
     999902    2    1    2    0    0 -0.52006560655E-02 -0.87578692863E-02  0.90761369891E-02  0.10302872964E+01  0.10301969665E+01 0.  0.
     999903    2    3    3    0    0  0.66682435911E-02 -0.69311105083E-01 -0.11223161246E+00  0.13982498099E+00  0.45897665679E-01 0.  0.
         14    1    1    2    0    0  0.52006560655E-02  0.87578692863E-02 -0.90761369891E-02  0.13642703566E-01  0.00000000000E+00 0.  1.
     999901    1    3    3    0    0 -0.11868899657E-01  0.60553235797E-01  0.12130774945E+00  0.89046231544E+00  0.88000000000E+00 0.  1.
        -11    1    4    4    0    0 -0.16283793233E-01 -0.49556659896E-01 -0.80794796237E-01  0.96172161679E-01  0.51100000000E-03 0. -1.
         11    1    4    4    0    0  0.22952036824E-01 -0.19754445187E-01 -0.31436816219E-01  0.43652819314E-01  0.51100000000E-03 0.  1.
</event>
<event>
 8    1  0.2959109E+004  0.1043930E+01  0.7957747E-01            NaN
         13   -1    0    0    0    0  0.00000000000E+00  0.00000000000E+00  0.74505805969E-08  0.10566000000E+00  0.10566000000E+00 0.  1.
     999900   -1    0    0    0    0 -0.00000000000E+00 -0.00000000000E+00 -0.74505805969E-08  0.93827000000E+00  0.93827000000E+00 0. -1.
     999902    2    1    2    0    0 -0.49141014001E-02  0.66165800442E-02 -0.10260610857E-01  0.10307691619E+01  0.10306851398E+01 0.  0.
     999903    2    3    3    0    0  0.29080121231E-01 -0.37028424202E-01  0.12173517773E+00  0.13920683556E+00  0.48397643726E-01 0.  0.
         14    1    1    2    0    0  0.49141014001E-02 -0.66165800442E-02  0.10260610857E-01  0.13160838089E-01  0.00000000000E+00 0.  1.
     999901    1    3    3    0    0 -0.33994222631E-01  0.43645004246E-01 -0.13199578859E+00  0.89156232635E+00  0.88000000000E+00 0. -1.
        -11    1    4    4    0    0  0.38356497517E-01 -0.23979081524E-01  0.58368855952E-01  0.73847151053E-01  0.51100000000E-03 0.  1.
         11    1    4    4    0    0 -0.92763762858E-02 -0.13049342678E-01  0.63366321782E-01  0.65359684504E-01  0.51100000000E-03 0. -1.
</event>
<event>
 8    1  0.2959109E+004  0.1043930E+01  0.7957747E-01            NaN
         13   -1    0    0    0    0  0.00000000000E+00  0.00000000000E+00  0.74505805969E-08  0.10566000000E+00  0.10566000000E+00 0.  1.
     999900   -1    0    0    0    0 -0.00000000000E+00 -0.00000000000E+00 -0.74505805969E-08  0.93827000000E+00  0.93827000000E+00 0.  1.
     999902    2    1    2    0    0 -0.10386372553E-01 -0.53406418551E-02  0.74060981911E-03  0.10322275347E+01  0.10321611966E+01 0.  0.
     999903    2    3    3    0    0 -0.11551975906E+00 -0.36851986444E-01 -0.61568298854E-01  0.14322337620E+00  0.44937694956E-01 0.  0.
         14    1    1    2    0    0  0.10386372553E-01  0.53406418551E-02 -0.74060981911E-03  0.11702465259E-01  0.00000000000E+00 0.  1.
     999901    1    3    3    0    0  0.10513338651E+00  0.31511344589E-01  0.62308908673E-01  0.88900415854E+00  0.88000000000E+00 0. -1.
        -11    1    4    4    0    0 -0.22776402713E-01 -0.25068267649E-01 -0.58109382264E-02  0.34368745796E-01  0.51100000000E-03 0.  1.
         11    1    4    4    0    0 -0.92743356351E-01 -0.11783718794E-01 -0.55757360628E-01  0.10885463041E+00  0.51100000000E-03 0. -1.
</event>
<event>
 8    1  0.2959109E+004  0.1043930E+01  0.7957747E-01            NaN
         13   -1    0    0    0    0  0.00000000000E+00  0.00000000000E+00  0.74505805969E-08  0.10566000000E+00  0.10566000000E+00 0. -1.
     999900   -1    0    0    0    0 -0.00000000000E+00 -0.00000000000E+00 -0.74505805969E-08  0.93827000000E+00  0.93827000000E+00 0. -1.
     999902    2    1    2    0    0 -0.11873437117E-01 -0.20018460493E-02 -0.65300755792E-02  0.10302322709E+01  0.10301412059E+01 0.  0.
     999903    2    3    3    0    0 -0.42859865817E-01 -0.62431973913E-01  0.10838791363E+00  0.14016592313E+00  0.46516950902E-01 0.  0.
         14    1    1    2    0    0  0.11873437117E-01  0.20018460493E-02  0.65300755792E-02  0.13697729142E-01  0.00000000000E+00 0. -1.
     999901    1    3    3    0    0  0.30986428700E-01  0.60430127864E-01 -0.11491798921E+00  0.89006634773E+00  0.88000000000E+00 0. -1.
        -11    1    4    4    0    0 -0.54585216821E-02 -0.22907845249E-01  0.69220556838E-01  0.73118475387E-01  0.51100000000E-03 0.  1.
         11    1    4    4    0    0 -0.37401344135E-01 -0.39524128664E-01  0.39167356791E-01  0.67047447742E-01  0.51100000000E-03 0. -1.
</event>
<event>
 8    1  0.2959109E+004  0.1043930E+01  0.7957747E-01            NaN
         13   -1    0    0    0    0  0.00000000000E+00  0.00000000000E+00  0.74505805969E-08  0.10566000000E+00  0.10566000000E+00 0.  1.
     999900   -1    0    0    0    0 -0.00000000000E+00 -0.00000000000E+00 -0.74505805969E-08  0.93827000000E+00  0.93827000000E+00 0.  1.
     999902    2    1    2    0    0 -0.12247946461E-01 -0.16067144359E-02 -0.63487841315E-02  0.10300411273E+01  0.10299474857E+01 0.  0.
     999903    2    3    3    0    0 -0.43293534271E-01  0.19711617396E-01  0.12352242916E+00  0.13971263075E+00  0.44709626662E-01 0.  0.
         14    1    1    2    0    0  0.12247946461E-01  0.16067144359E-02  0.63487841315E-02  0.13888872659E-01  0.00000000000E+00 0.  1.
     999901    1    3    3    0    0  0.31045587810E-01 -0.21318331832E-01 -0.12987121329E+00  0.89032849659E+00  0.88000000000E+00 0.  1.
        -11    1    4    4    0    0 -0.29214441989E-01  0.28178520245E-01  0.50140363378E-01  0.64512245230E-01  0.51100000000E-03 0. -1.
         11    1    4    4    0    0 -0.14079092282E-01 -0.84669028493E-02  0.73382065782E-01  0.75200385523E-01  0.51100000000E-03 0.  1.
</event>
<event>
 8    1  0.2959109E+004  0.1043930E+01  0.7957747E-01            NaN
         13   -1    0    0    0    0  0.00000000000E+00  0.00000000000E+00  0.74505805969E-08  0.10566000000E+00  0.10566000000E+00 0.  1.
     999900   -1    0    0    0    0 -0.00000000000E+00 -0.00000000000E+00 -0.74505805969E-08  0.93827000000E+00  0.93827000000E+00 0.  1.
     999902    2    1    2    0    0  0.10724411753E-01 -0.33021903005E-02  0.98598313839E-02  0.10289923381E+01  0.10288839090E+01 0.  0.
     999903    2    3    3    0    0  0.99770677450E-01 -0.86711336622E-01 -0.14239009687E-01  0.14024767439E+00  0.44649936140E-01 0.  0.
         14    1    1    2    0    0 -0.10724411753E-01  0.33021903005E-02 -0.98598313839E-02  0.14937661904E-01  0.00000000000E+00 0.  1.
     999901    1    3    3    0    0 -0.89046265697E-01  0.83409146322E-01  0.24098841071E-01  0.88874466371E+00  0.88000000000E+00 0. -1.
        -11    1    4    4    0    0  0.14966652992E-01 -0.25897504515E-01  0.12653617739E-01  0.32481634885E-01  0.51100000000E-03 0.  1.
         11    1    4    4    0    0  0.84804024458E-01 -0.60813832107E-01 -0.26892627426E-01  0.10776603951E+00  0.51100000000E-03 0. -1.
</event>
<event>
 7    1  0.2959109E+004  0.1043930E+01  0.7957747E-01            NaN
         13   -1    0    0    0    0  0.00000000000E+00  0.00000000000E+00  0.74505805969E-08  0.10566000000E+00  0.10566000000E+00 0. -1.
     999900   -1    0    0    0    0 -0.00000000000E+00 -0.00000000000E+00 -0.74505805969E-08  0.93827000000E+00  0.93827000000E+00 0.  1.
     999903    2    1    2    0    0  0.75504409297E-02  0.10063406188E+00 -0.29469345215E-01  0.11405146100E+00  0.44216172143E-01 0.  0.
         14    1    1    2    0    0  0.22811939359E-01  0.31284214269E-01  0.62941811048E-02  0.39226309482E-01  0.00000000000E+00 0.  1.
     999901    1    1    2    0    0 -0.30362380289E-01 -0.13191827615E+00  0.23175164110E-01  0.89065222952E+00  0.88000000000E+00 0.  1.
        -11    1    3    3    0    0 -0.10327048002E-01  0.86280602111E-01 -0.26950998842E-01  0.90981358973E-01  0.51100000000E-03 0.  1.
         11    1    3    3    0    0  0.17877488932E-01  0.14353459772E-01 -0.25183463730E-02  0.23070102024E-01  0.51100000000E-03 0. -1.
</event>
<event>
 8    1  0.2959109E+004  0.1043930E+01  0.7957747E-01            NaN
         13   -1    0    0    0    0  0.00000000000E+00  0.00000000000E+00  0.74505805969E-08  0.10566000000E+00  0.10566000000E+00 0.  1.
     999900   -1    0    0    0    0 -0.00000000000E+00 -0.00000000000E+00 -0.74505805969E-08  0.93827000000E+00  0.93827000000E+00 0.  1.
     999902    2    1    2    0    0 -0.72730748848E-02  0.12110253889E-01 -0.20042872362E-03  0.10298021538E+01  0.10297052393E+01 0.  0.
     999903    2    3    3    0    0  0.10622106116E+00  0.32528500081E-01 -0.71143592375E-01  0.13944786689E+00  0.45202651379E-01 0.  0.
         14    1    1    2    0    0  0.72730748848E-02 -0.12110253889E-01  0.20042872362E-03  0.14127846234E-01  0.00000000000E+00 0.  1.
     999901    1    3    3    0    0 -0.11349413605E+00 -0.20418246192E-01  0.70943163652E-01  0.89035428688E+00  0.88000000000E+00 0. -1.
        -11    1    4    4    0    0  0.32376233616E-01  0.21559927447E-01 -0.41189804681E-02  0.39118769098E-01  0.51100000000E-03 0.  1.
         11    1    4    4    0    0  0.73844827545E-01  0.10968572633E-01 -0.67024611907E-01  0.10032909779E+00  0.51100000000E-03 0. -1.
</event>
<event>
 8    1  0.2959109E+004  0.1043930E+01  0.7957747E-01            NaN
         13   -1    0    0    0    0  0.00000000000E+00  0.00000000000E+00  0.74505805969E-08  0.10566000000E+00  0.10566000000E+00 0. -1.
     999900   -1    0    0    0    0 -0.00000000000E+00 -0.00000000000E+00 -0.74505805969E-08  0.93827000000E+00  0.93827000000E+00 0. -1.
     999902    2    1    2    0    0  0.90134243574E-02 -0.10655016852E-01 -0.44923291231E-02  0.10292687509E+01  0.10291643258E+01 0.  0.
     999903    2    3    3    0    0 -0.97099519680E-01  0.34572802693E-01  0.79095847189E-01  0.13781348243E+00  0.45965285691E-01 0.  0.
         14    1    1    2    0    0 -0.90134243574E-02  0.10655016852E-01  0.44923291231E-02  0.14661249050E-01  0.00000000000E+00 0. -1.
     999901    1    3    3    0    0  0.10611294404E+00 -0.45227819546E-01 -0.83588176312E-01  0.89145526852E+00  0.88000000000E+00 0. -1.
        -11    1    4    4    0    0 -0.31937233546E-01  0.20013467192E-01  0.55309474457E-01  0.66932240671E-01  0.51100000000E-03 0.  1.
         11    1    4    4    0    0 -0.65162286133E-01  0.14559335502E-01  0.23786372733E-01  0.70881241758E-01  0.51100000000E-03 0. -1.
</event>
<event>
 8    1  0.2959109E+004  0.1043930E+01  0.7957747E-01            NaN
         13   -1    0    0    0    0  0.00000000000E+00  0.00000000000E+00  0.74505805969E-08  0.10566000000E+00  0.10566000000E+00 0.  1.
     999900   -1    0    0    0    0 -0.00000000000E+00 -0.00000000000E+00 -0.74505805969E-08  0.93827000000E+00  0.93827000000E+00 0. -1.
     999902    2    1    2    0    0  0.21428133992E-02  0.10976719507E-01 -0.73568752061E-02  0.10305433039E+01  0.10304563540E+01 0.  0.
     999903    2    3    3    0    0 -0.34198306783E-01  0.67832808856E-01 -0.11121147262E+00  0.14187065924E+00  0.44592355486E-01 0.  0.
         14    1    1    2    0    0 -0.21428133992E-02 -0.10976719507E-01  0.73568752061E-02  0.13386696127E-01  0.00000000000E+00 0.  1.
     999901    1    3    3    0    0  0.36341120182E-01 -0.56856089349E-01  0.10385459741E+00  0.88867264463E+00  0.88000000000E+00 0. -1.
        -11    1    4    4    0    0 -0.39203226557E-01  0.38162185274E-01 -0.88980060579E-01  0.10445552958E+00  0.51100000000E-03 0. -1.
         11    1    4    4    0    0  0.50049197738E-02  0.29670623582E-01 -0.22231412039E-01  0.37415129666E-01  0.51100000000E-03 0.  1.
</event>
<event>
 8    1  0.2959109E+004  0.1043930E+01  0.7957747E-01            NaN
         13   -1    0    0    0    0  0.00000000000E+00  0.00000000000E+00  0.74505805969E-08  0.10566000000E+00  0.10566000000E+00 0. -1.
     999900   -1    0    0    0    0 -0.00000000000E+00 -0.00000000000E+00 -0.74505805969E-08  0.93827000000E+00  0.93827000000E+00 0. -1.
     999902    2    1    2    0    0 -0.96573555166E-02 -0.35089059835E-02 -0.61237807441E-02  0.10319684939E+01  0.10318991689E+01 0.  0.
     999903    2    3    3    0    0  0.46521800598E-01  0.85121998727E-02 -0.12609035098E+00  0.14197266105E+00  0.44952468229E-01 0.  0.
         14    1    1    2    0    0  0.96573555166E-02  0.35089059835E-02  0.61237807441E-02  0.11961506066E-01  0.00000000000E+00 0. -1.
     999901    1    3    3    0    0 -0.56179156115E-01 -0.12021105856E-01  0.11996657023E+00  0.88999583288E+00  0.88000000000E+00 0.  1.
        -11    1    4    4    0    0  0.99359401030E-02  0.21954947161E-01 -0.66802466021E-01  0.71018118801E-01  0.51100000000E-03 0.  1.
         11    1    4    4    0    0  0.36585860495E-01 -0.13442747289E-01 -0.59287884957E-01  0.70954542254E-01  0.51100000000E-03 0. -1.
</event>
<event>
 8    1  0.2959109E+004  0.1043930E+01  0.7957747E-01            NaN
         13   -1    0    0    0    0  0.00000000000E+00  0.00000000000E+00  0.74505805969E-08  0.10566000000E+00  0.10566000000E+00 0.  1.
     999900   -1    0    0    0    0 -0.00000000000E+00 -0.00000000000E+00 -0.74505805969E-08  0.93827000000E+00  0.93827000000E+00 0.  1.
     999902    2    1    2    0    0  0.83346801453E-02  0.61315884424E-02 -0.93536056872E-02  0.10299817668E+01  0.10298873175E+01 0.  0.
     999903    2    3    3    0    0 -0.12638302079E+00  0.35619288398E-01  0.84699363386E-02  0.13906310495E+00  0.45004507381E-01 0.  0.
         14    1    1    2    0    0 -0.83346801453E-02 -0.61315884424E-02  0.93536056872E-02  0.13948233196E-01  0.00000000000E+00 0.  1.
     999901    1    3    3    0    0  0.13471770094E+00 -0.29487699956E-01 -0.17823542026E-01  0.89091866186E+00  0.88000000000E+00 0.  1.
        -11    1    4    4    0    0 -0.56631251694E-01  0.39317671575E-01  0.50237076639E-02  0.69126526935E-01  0.51100000000E-03 0.  1.
         11    1    4    4    0    0 -0.69751769101E-01 -0.36983831763E-02  0.34462286747E-02  0.69936578011E-01  0.51100000000E-03 0. -1.
</event>
<event>
 8    1  0.2959109E+004  0.1043930E+01  0.7957747E-01            NaN
         13   -1    0    0    0    0  0.00000000000E+00  0.00000000000E+00  0.74505805969E-08  0.10566000000E+00  0.10566000000E+00 0.  1.
     999900   -1    0    0    0    0 -0.00000000000E+00 -0.00000000000E+00 -0.74505805969E-08  0.93827000000E+00  0.93827000000E+00 0. -1.
     999902    2    1    2    0    0  0.74619363808E-02 -0.11012451184E-01 -0.17420087188E-02  0.10305139958E+01  0.10304266622E+01 0.  0.
     999903    2    3    3    0    0 -0.11395501816E+00  0.58037927202E-01 -0.27714243505E-01  0.13911925234E+00  0.47243411407E-01 0.  0.
         14    1    1    2    0    0 -0.74619363808E-02  0.11012451184E-01  0.17420087188E-02  0.13416004249E-01  0.00000000000E+00 0.  1.
     999901    1    3    3    0    0  0.12141695454E+00 -0.69050378386E-01  0.25972234786E-01  0.89139474341E+00  0.88000000000E+00 0. -1.
        -11    1    4    4    0    0 -0.75656315710E-01  0.21399741547E-01 -0.34157369399E-01  0.85725224120E-01  0.51100000000E-03 0. -1.
         11    1    4    4    0    0 -0.38298702445E-01  0.36638185655E-01  0.64431258944E-02  0.53394028218E-01  0.51100000000E-03 0.  1.
</event>
<event>
 8    1  0.2959109E+004  0.1043930E+01  0.7957747E-01            NaN
         13   -1    0    0    0    0  0.00000000000E+00  0.00000000000E+00  0.74505805969E-08  0.10566000000E+00  0.10566000000E+00 0. -1.
     999900   -1    0    0    0    0 -0.00000000000E+00 -0.00000000000E+00 -0.74505805969E-08  0.93827000000E+00  0.93827000000E+00 0.  1.
     999902    2    1    2    0    0 -0.83075983060E-02 -0.10935251528E-01  0.12749972346E-02  0.10301379177E+01  0.10300455854E+01 0.  0.
     999903    2    3    3    0    0 -0.51975278156E-01 -0.44138262347E-01  0.11510072301E+00  0.14111283257E+00  0.44889189496E-01 0.  0.
         14    1    1    2    0    0  0.83075983060E-02  0.10935251528E-01 -0.12749972346E-02  0.13792082277E-01  0.00000000000E+00 0. -1.
     999901    1    3    3    0    0  0.43667679850E-01  0.33203010820E-01 -0.11382572578E+00  0.88902508516E+00  0.88000000000E+00 0.  1.
        -11    1    4    4    0    0 -0.46960970708E-01 -0.12646831336E-01  0.57853789460E-01  0.75581725229E-01  0.51100000000E-03 0.  1.
         11    1    4    4    0    0 -0.50143074478E-02 -0.31491431011E-01  0.57246933555E-01  0.65531107336E-01  0.51100000000E-03 0. -1.
</event>
<event>
 8    1  0.2959109E+004  0.1043930E+01  0.7957747E-01            NaN
         13   -1    0    0    0    0  0.00000000000E+00  0.00000000000E+00  0.74505805969E-08  0.10566000000E+00  0.10566000000E+00 0.  1.
     999900   -1    0    0    0    0 -0.00000000000E+00 -0.00000000000E+00 -0.74505805969E-08  0.93827000000E+00  0.93827000000E+00 0. -1.
     999902    2    1    2    0    0  0.84428609566E-02 -0.69796689738E-03 -0.10497458515E-01  0.10304405340E+01  0.10303522351E+01 0.  0.
     999903    2    3    3    0    0  0.15235437611E-01 -0.13182043507E+00 -0.11300638053E-01  0.14069906260E+00  0.45384756616E-01 0.  0.
         14    1    1    2    0    0 -0.84428609566E-02  0.69796689738E-03  0.10497458515E-01  0.13489466045E-01  0.00000000000E+00 0.  1.
     999901    1    3    3    0    0 -0.67925766546E-02  0.13112246817E+00  0.80317953877E-03  0.88974147136E+00  0.88000000000E+00 0. -1.
        -11    1    4    4    0    0  0.23713469049E-01 -0.52894287278E-01  0.92450460871E-02  0.58701501166E-01  0.51100000000E-03 0. -1.
         11    1    4    4    0    0 -0.84780314373E-02 -0.78926147794E-01 -0.20545684141E-01  0.81997561430E-01  0.51100000000E-03 0.  1.
</event>
<event>
 8    1  0.2959109E+004  0.1043930E+01  0.7957747E-01            NaN
         13   -1    0    0    0    0  0.00000000000E+00  0.00000000000E+00  0.74505805969E-08  0.10566000000E+00  0.10566000000E+00 0. -1.
     999900   -1    0    0    0    0 -0.00000000000E+00 -0.00000000000E+00 -0.74505805969E-08  0.93827000000E+00  0.93827000000E+00 0.  1.
     999902    2    1    2    0    0 -0.42083767660E-03 -0.81490783312E-03  0.25911164849E-01  0.10180026083E+01  0.10176723838E+01 0.  0.
     999903    2    3    3    0    0 -0.47684214609E-01 -0.11068276434E+00 -0.11142164878E-01  0.12913944559E+00  0.45037650083E-01 0.  0.
         14    1    1    2    0    0  0.42083767660E-03  0.81490783312E-03 -0.25911164849E-01  0.25927391750E-01  0.00000000000E+00 0.  1.
     999901    1    3    3    0    0  0.47263376933E-01  0.10986785650E+00  0.37053329727E-01  0.88886316266E+00  0.88000000000E+00 0.  1.
        -11    1    4    4    0    0 -0.11519600432E-02 -0.35294079751E-01  0.12468350578E-01  0.37452903286E-01  0.51100000000E-03 0.  1.
         11    1    4    4    0    0 -0.46532254566E-01 -0.75388684585E-01 -0.23610515456E-01  0.91686542303E-01  0.51100000000E-03 0. -1.
</event>
<event>
 8    1  0.2959109E+004  0.1043930E+01  0.7957747E-01            NaN
         13   -1    0    0    0    0  0.00000000000E+00  0.00000000000E+00  0.74505805969E-08  0.10566000000E+00  0.10566000000E+00 0.  1.
     999900   -1    0    0    0    0 -0.00000000000E+00 -0.00000000000E+00 -0.74505805969E-08  0.93827000000E+00  0.93827000000E+00 0.  1.
     999902    2    1    2    0    0 -0.18162229876E-02 -0.91032227458E-02  0.94262257137E-02  0.10307004474E+01  0.10306155400E+01 0.  0.
     999903    2    3    3    0    0 -0.11029405012E+00  0.16191574488E-01  0.74192233993E-01  0.14131757060E+00  0.45157763436E-01 0.  0.
         14    1    1    2    0    0  0.18162229876E-02  0.91032227458E-02 -0.94262257137E-02  0.13229552581E-01  0.00000000000E+00 0. -1.
     999901    1    3    3    0    0  0.10847782714E+00 -0.25294797233E-01 -0.64766008280E-01  0.88938287682E+00  0.88000000000E+00 0.  1.
        -11    1    4    4    0    0 -0.95852895923E-01  0.42464334014E-02  0.76112703016E-01  0.12247128045E+00  0.51100000000E-03 0.  1.
         11    1    4    4    0    0 -0.14441154201E-01  0.11945141086E-01 -0.19204690226E-02  0.18846290152E-01  0.51100000000E-03 0. -1.
</event>
<event>
 8    1  0.2959109E+004  0.1043930E+01  0.7957747E-01            NaN
         13   -1    0    0    0    0  0.00000000000E+00  0.00000000000E+00  0.74505805969E-08  0.10566000000E+00  0.10566000000E+00 0. -1.
     999900   -1    0    0    0    0 -0.00000000000E+00 -0.00000000000E+00 -0.74505805969E-08  0.93827000000E+00  0.93827000000E+00 0.  1.
     999902    2    1    2    0    0 -0.42943743394E-02 -0.30990904242E-02  0.10608728549E-01  0.10320728868E+01  0.10320047735E+01 0.  0.
     999903    2    3    3    0    0  0.52558016083E-02  0.62281409157E-01  0.11862166710E+00  0.14301011595E+00  0.49741290513E-01 0.  0.
         14    1    1    2    0    0  0.42943743394E-02  0.30990904242E-02 -0.10608728549E-01  0.11857113217E-01  0.00000000000E+00 0.  1.
     999901    1    3    3    0    0 -0.95501759477E-02 -0.65380499581E-01 -0.10801293855E+00  0.88906277083E+00  0.88000000000E+00 0.  1.
        -11    1    4    4    0    0 -0.18073228527E-01  0.15429653247E-01  0.59367818647E-01  0.63949314309E-01  0.51100000000E-03 0. -1.
         11    1    4    4    0    0  0.23329030135E-01  0.46851755910E-01  0.59253848451E-01  0.79060801642E-01  0.51100000000E-03 0.  1.
</event>
<event>
 8    1  0.2959109E+004  0.1043930E+01  0.7957747E-01            NaN
         13   -1    0    0    0    0  0.00000000000E+00  0.00000000000E+00  0.74505805969E-08  0.10566000000E+00  0.10566000000E+00 0. -1.
     999900   -1    0    0    0    0 -0.00000000000E+00 -0.00000000000E+00 -0.74505805969E-08  0.93827000000E+00  0.93827000000E+00 0. -1.
     999902    2    1    2    0    0 -0.22289314429E-03  0.47556324550E-02  0.12558719994E-01  0.10304991709E+01  0.10304116431E+01 0.  0.
     999903    2    3    3    0    0  0.38628296110E-01  0.46238198554E-01 -0.11615833336E+00  0.13932113147E+00  0.47827847540E-01 0.  0.
         14    1    1    2    0    0  0.22289314429E-03 -0.47556324550E-02 -0.12558719994E-01  0.13430829062E-01  0.00000000000E+00 0.  1.
     999901    1    3    3    0    0 -0.38851189254E-01 -0.41482566099E-01  0.12871705336E+00  0.89117803946E+00  0.88000000000E+00 0.  1.
        -11    1    4    4    0    0  0.16780673917E-01  0.51165906178E-01 -0.90011057435E-01  0.10488943013E+00  0.51100000000E-03 0.  1.
         11    1    4    4    0    0  0.21847622192E-01 -0.49277076245E-02 -0.26147275927E-01  0.34431701342E-01  0.51100000000E-03 0. -1.
</event>
<event>
 8    1  0.2959109E+004  0.1043930E+01  0.7957747E-01            NaN
         13   -1    0    0    0    0  0.00000000000E+00  0.00000000000E+00  0.74505805969E-08  0.10566000000E+00  0.10566000000E+00 0.  1.
     999900   -1    0    0    0    0 -0.00000000000E+00 -0.00000000000E+00 -0.74505805969E-08  0.93827000000E+00  0.93827000000E+00 0.  1.
     999902    2    1    2    0    0  0.82114032028E-02 -0.12057334684E-01  0.40600020131E-03  0.10293364638E+01  0.10292330078E+01 0.  0.
     999903    2    3    3    0    0 -0.66730890952E-01 -0.11181925179E+00 -0.24256324323E-01  0.14019248345E+00  0.45923918264E-01 0.  0.
         14    1    1    2    0    0 -0.82114032028E-02  0.12057334684E-01 -0.40600020131E-03  0.14593536186E-01  0.00000000000E+00 0. -1.
     999901    1    3    3    0    0  0.74942294154E-01  0.99761917109E-01  0.24662324525E-01  0.88914398036E+00  0.88000000000E+00 0.  1.
        -11    1    4    4    0    0 -0.44699177698E-01 -0.36251245316E-01 -0.21468166089E-01  0.61427294829E-01  0.51100000000E-03 0.  1.
         11    1    4    4    0    0 -0.22031713253E-01 -0.75568006477E-01 -0.27881582348E-02  0.78765188625E-01  0.51100000000E-03 0. -1.
</event>
<event>
 8    1  0.2959109E+004  0.1043930E+01  0.7957747E-01            NaN
         13   -1    0    0    0    0  0.00000000000E+00  0.00000000000E+00  0.74505805969E-08  0.10566000000E+00  0.10566000000E+00 0. -1.
     999900   -1    0    0    0    0 -0.00000000000E+00 -0.00000000000E+00 -0.74505805969E-08  0.93827000000E+00  0.93827000000E+00 0. -1.
     999902    2    1    2    0    0  0.18569027105E-02 -0.42981216373E-03  0.13667438333E-01  0.10301303008E+01  0.10300378658E+01 0.  0.
     999903    2    3    3    0    0 -0.88106520850E-01  0.19512704887E-01 -0.95118770535E-01  0.13865648698E+00  0.45105833388E-01 0.  0.
         14    1    1    2    0    0 -0.18569027105E-02  0.42981216373E-03 -0.13667438333E-01  0.13799699154E-01  0.00000000000E+00 0.  1.
     999901    1    3    3    0    0  0.89963423561E-01 -0.19942517050E-01  0.10878620887E+00  0.89147381386E+00  0.88000000000E+00 0.  1.
        -11    1    4    4    0    0 -0.51012595045E-01 -0.11734139597E-01 -0.47531746671E-01  0.70707163342E-01  0.51100000000E-03 0.  1.
         11    1    4    4    0    0 -0.37093925805E-01  0.31246844483E-01 -0.47587023864E-01  0.67949323640E-01  0.51100000000E-03 0. -1.
</event>
<event>
 8    1  0.2959109E+004  0.1043930E+01  0.7957747E-01            NaN
         13   -1    0    0    0    0  0.00000000000E+00  0.00000000000E+00  0.74505805969E-08  0.10566000000E+00  0.10566000000E+00 0.  1.
     999900   -1    0    0    0    0 -0.00000000000E+00 -0.00000000000E+00 -0.74505805969E-08  0.93827000000E+00  0.93827000000E+00 0. -1.
     999902    2    1    2    0    0  0.41849903148E-02  0.13430046591E-01 -0.57706585637E-02  0.10287253693E+01  0.10286130004E+01 0.  0.
     999903    2    3    3    0    0  0.60506547301E-01  0.10709186977E+00  0.49895782971E-01  0.14021909039E+00  0.45189526579E-01 0.  0.
         14    1    1    2    0    0 -0.41849903148E-02 -0.13430046591E-01  0.57706585637E-02  0.15204630729E-01  0.00000000000E+00 0. -1.
     999901    1    3    3    0    0 -0.56321556986E-01 -0.93661823183E-01 -0.55666441535E-01  0.88850627888E+00  0.88000000000E+00 0. -1.
        -11    1    4    4    0    0  0.10659569614E-01  0.56195087872E-01  0.36142717926E-01  0.67661447704E-01  0.51100000000E-03 0. -1.
         11    1    4    4    0    0  0.49846977687E-01  0.50896781903E-01  0.13753065045E-01  0.72557642683E-01  0.51100000000E-03 0.  1.
</event>
<event>
 8    1  0.2959109E+004  0.1043930E+01  0.7957747E-01            NaN
         13   -1    0    0    0    0  0.00000000000E+00  0.00000000000E+00  0.74505805969E-08  0.10566000000E+00  0.10566000000E+00 0. -1.
     999900   -1    0    0    0    0 -0.00000000000E+00 -0.00000000000E+00 -0.74505805969E-08  0.93827000000E+00  0.93827000000E+00 0.  1.
     999902    2    1    2    0    0 -0.49016757256E-02 -0.10038472149E-01  0.55751255722E-02  0.10314448339E+01  0.10313692675E+01 0.  0.
     999903    2    3    3    0    0  0.51019481995E-01  0.27136709317E-01 -0.11723731052E+00  0.14038251032E+00  0.51217904011E-01 0.  0.
         14    1    1    2    0    0  0.49016757256E-02  0.10038472149E-01 -0.55751255722E-02  0.12485166124E-01  0.00000000000E+00 0.  1.
     999901    1    3    3    0    0 -0.55921157721E-01 -0.37175181465E-01  0.12281243609E+00  0.89106232355E+00  0.88000000000E+00 0. -1.
        -11    1    4    4    0    0  0.37582297965E-01  0.26413689758E-01 -0.36897629595E-01  0.58922052897E-01  0.51100000000E-03 0. -1.
         11    1    4    4    0    0  0.13437184030E-01  0.72301955815E-03 -0.80339680924E-01  0.81460457425E-01  0.51100000000E-03 0.  1.
</event>
<event>
 8    1  0.2959109E+004  0.1043930E+01  0.7957747E-01            NaN
         13   -1    0    0    0    0  0.00000000000E+00  0.00000000000E+00  0.74505805969E-08  0.10566000000E+00  0.10566000000E+00 0.  1.
     999900   -1    0    0    0    0 -0.00000000000E+00 -0.00000000000E+00 -0.74505805969E-08  0.93827000000E+00  0.93827000000E+00 0. -1.
     999902    2    1    2    0    0  0.13702319002E-01  0.18179166548E-01 -0.88602121666E-02  0.10195017581E+01  0.10192090540E+01 0.  0.
     999903    2    3    3    0    0 -0.10034241360E+00  0.21077589259E-02 -0.68996927975E-01  0.12996203681E+00  0.45348785280E-01 0.  0.
         14    1    1    2    0    0 -0.13702319002E-01 -0.18179166548E-01  0.88602121666E-02  0.24428241894E-01  0.00000000000E+00 0.  1.
     999901    1    3    3    0    0  0.11404473260E+00  0.16071407622E-01  0.60136715808E-01  0.88953972130E+00  0.88000000000E+00 0.  1.
        -11    1    4    4    0    0 -0.29456897471E-01  0.20687411869E-01 -0.30507194501E-01  0.47187157742E-01  0.51100000000E-03 0. -1.
         11    1    4    4    0    0 -0.70885516131E-01 -0.18579652943E-01 -0.38489733474E-01  0.82774879067E-01  0.51100000000E-03 0.  1.
</event>
<event>
 8    1  0.2959109E+004  0.1043930E+01  0.7957747E-01            NaN
         13   -1    0    0    0    0  0.00000000000E+00  0.00000000000E+00  0.74505805969E-08  0.10566000000E+00  0.10566000000E+00 0. -1.
     999900   -1    0    0    0    0 -0.00000000000E+00 -0.00000000000E+00 -0.74505805969E-08  0.93827000000E+00  0.93827000000E+00 0.  1.
     999902    2    1    2    0    0  0.14735792300E-02  0.13756225682E-01  0.48229326853E-03  0.10300866699E+01  0.10299936455E+01 0.  0.
     999903    2    3    3    0    0 -0.12434670367E+00 -0.39223430746E-02 -0.44529227237E-01  0.13982305034E+00  0.45718112799E-01 0.  0.
         14    1    1    2    0    0 -0.14735792300E-02 -0.13756225682E-01 -0.48229326853E-03  0.13843330075E-01  0.00000000000E+00 0.  1.
     999901    1    3    3    0    0  0.12582028290E+00  0.17678568757E-01  0.45011520506E-01  0.89026361959E+00  0.88000000000E+00 0.  1.
        -11    1    4    4    0    0 -0.33200105314E-01 -0.69637962104E-02  0.76136327289E-02  0.34770245540E-01  0.51100000000E-03 0.  1.
         11    1    4    4    0    0 -0.91146598358E-01  0.30414531358E-02 -0.52142859966E-01  0.10505280480E+00  0.51100000000E-03 0. -1.
</event>
<event>
 7    1  0.2959109E+004  0.1043930E+01  0.7957747E-01            NaN
         13   -1    0    0    0    0  0.00000000000E+00  0.00000000000E+00  0.74505805969E-08  0.10566000000E+00  0.10566000000E+00 0. -1.
     999900   -1    0    0    0    0 -0.00000000000E+00 -0.00000000000E+00 -0.74505805969E-08  0.93827000000E+00  0.93827000000E+00 0. -1.
     999902    2    1    2    0    0  0.87260186477E-02  0.77843668655E-02  0.26988231584E-02  0.10319290244E+01  0.10318592385E+01 0.  0.
         14    1    1    2    0    0 -0.87260186477E-02 -0.77843668655E-02 -0.26988231584E-02  0.12000975601E-01  0.00000000000E+00 0.  1.
     999901    1    3    3    0    0  0.31042151533E-01  0.75316108730E-01  0.12238245665E+00  0.89219594098E+00  0.88000000000E+00 0.  1.
        -11    1    3    3    0    0 -0.23881435020E-02 -0.14411838710E-01 -0.33499015502E-01  0.36549274754E-01  0.51100000000E-03 0. -1.
         11    1    3    3    0    0 -0.19927989383E-01 -0.53119903154E-01 -0.86184617988E-01  0.10318380867E+00  0.51100000000E-03 0.  1.
</event>
<event>
 8    1  0.2959109E+004  0.1043930E+01  0.7957747E-01            NaN
         13   -1    0    0    0    0  0.00000000000E+00  0.00000000000E+00  0.74505805969E-08  0.10566000000E+00  0.10566000000E+00 0. -1.
     999900   -1    0    0    0    0 -0.00000000000E+00 -0.00000000000E+00 -0.74505805969E-08  0.93827000000E+00  0.93827000000E+00 0. -1.
     999902    2    1    2    0    0 -0.28659218937E-02  0.12087532666E-01  0.64816290510E-02  0.10299180954E+01  0.10298227759E+01 0.  0.
     999903    2    3    3    0    0  0.23251970078E-01  0.25380842266E-02 -0.12959387440E+00  0.13902535280E+00  0.44568828306E-01 0.  0.
         14    1    1    2    0    0  0.28659218937E-02 -0.12087532666E-01 -0.64816290510E-02  0.14011904560E-01  0.00000000000E+00 0.  1.
     999901    1    3    3    0    0 -0.26117891971E-01  0.95494484394E-02  0.13607550345E+00  0.89089274264E+00  0.88000000000E+00 0.  1.
        -11    1    4    4    0    0  0.33401550175E-01  0.92693837071E-02 -0.11444891250E+00  0.11958427874E+00  0.51100000000E-03 0.  1.
         11    1    4    4    0    0 -0.10149580097E-01 -0.67312994805E-02 -0.15144961899E-01  0.19441074064E-01  0.51100000000E-03 0. -1.
</event>
<event>
 8    1  0.2959109E+004  0.1043930E+01  0.7957747E-01            NaN
         13   -1    0    0    0    0  0.00000000000E+00  0.00000000000E+00  0.74505805969E-08  0.10566000000E+00  0.10566000000E+00 0.  1.
     999900   -1    0    0    0    0 -0.00000000000E+00 -0.00000000000E+00 -0.74505805969E-08  0.93827000000E+00  0.93827000000E+00 0.  1.
     999902    2    1    2    0    0 -0.68921802149E-02  0.10080977891E-01  0.56215253495E-02  0.10304864212E+01  0.10303987260E+01 0.  0.
     999903    2    3    3    0    0  0.34959735173E-02  0.10413911851E+00  0.85026338544E-01  0.14185828081E+00  0.45134418726E-01 0.  0.
         14    1    1    2    0    0  0.68921802149E-02 -0.10080977891E-01 -0.56215253495E-02  0.13443578787E-01  0.00000000000E+00 0.  1.
     999901    1    3    3    0    0 -0.10388153732E-01 -0.94058140620E-01 -0.79404813195E-01  0.88862814040E+00  0.88000000000E+00 0. -1.
        -11    1    4    4    0    0 -0.39052403311E-02  0.98581725509E-01  0.60729061316E-01  0.11585287012E+00  0.51100000000E-03 0.  1.
         11    1    4    4    0    0  0.74012138483E-02  0.55573930013E-02  0.24297277228E-01  0.26005410689E-01  0.51100000000E-03 0. -1.
</event>
<event>
 8    1  0.2959109E+004  0.1043930E+01  0.7957747E-01            NaN
         13   -1    0    0    0    0  0.00000000000E+00  0.00000000000E+00  0.74505805969E-08  0.10566000000E+00  0.10566000000E+00 0.  1.
     999900   -1    0    0    0    0 -0.00000000000E+00 -0.00000000000E+00 -0.74505805969E-08  0.93827000000E+00  0.93827000000E+00 0.  1.
     999902    2    1    2    0    0 -0.60819078755E-02  0.82110983790E-02 -0.92373375163E-02  0.10301553804E+01  0.10300632833E+01 0.  0.
     999903    2    3    3    0    0  0.11083892264E+00  0.59848875496E-01 -0.41572373291E-01  0.14033377180E+00  0.45805574086E-01 0.  0.
         14    1    1    2    0    0  0.60819078755E-02 -0.82110983790E-02  0.92373375163E-02  0.13774619573E-01  0.00000000000E+00 0. -1.
     999901    1    3    3    0    0 -0.11692083052E+00 -0.51637777117E-01  0.32335035775E-01  0.88982160862E+00  0.88000000000E+00 0.  1.
        -11    1    4    4    0    0  0.36021061175E-01  0.32957861304E-01 -0.35943377943E-01  0.60629407129E-01  0.51100000000E-03 0.  1.
         11    1    4    4    0    0  0.74817861465E-01  0.26891014193E-01 -0.56289953483E-02  0.79704364674E-01  0.51100000000E-03 0. -1.
</event>
<event>
 8    1  0.2959109E+004  0.1043930E+01  0.7957747E-01            NaN
         13   -1    0    0    0    0  0.00000000000E+00  0.00000000000E+00  0.74505805969E-08  0.10566000000E+00  0.10566000000E+00 0.  1.
     999900   -1    0    0    0    0 -0.00000000000E+00 -0.00000000000E+00 -0.74505805969E-08  0.93827000000E+00  0.93827000000E+00 0. -1.
     999902    2    1    2    0    0 -0.40725043014E-02 -0.82435677083E-03 -0.11499991885E-01  0.10317023809E+01  0.10316299182E+01 0.  0.
     999903    2    3    3    0    0 -0.86502777081E-01  0.95555836694E-01  0.37111304876E-01  0.14128284510E+00  0.44384062479E-01 0.  0.
         14    1    1    2    0    0  0.40725043014E-02  0.82435677083E-03  0.11499991885E-01  0.12227619095E-01  0.00000000000E+00 0.  1.
     999901    1    3    3    0    0  0.82430272780E-01 -0.96380193465E-01 -0.48611296761E-01  0.89041953580E+00  0.88000000000E+00 0.  1.
        -11    1    4    4    0    0 -0.48570312212E-01  0.56207861702E-01 -0.16010228276E-02  0.74304934833E-01  0.51100000000E-03 0.  1.
         11    1    4    4    0    0 -0.37932464869E-01  0.39347974993E-01  0.38712327704E-01  0.66977910271E-01  0.51100000000E-03 0. -1.
</event>
<event>
 8    1  0.2959109E+004  0.1043930E+01  0.7957747E-01            NaN
         13   -1    0    0    0    0  0.00000000000E+00  0.00000000000E+00  0.74505805969E-08  0.10566000000E+00  0.10566000000E+00 0.  1.
     999900   -1    0    0    0    0 -0.00000000000E+00 -0.00000000000E+00 -0.74505805969E-08  0.93827000000E+00  0.93827000000E+00 0.  1.
     999902    2    1    2    0    0  0.97092977377E-02 -0.67071785297E-02 -0.11753955230E-02  0.10320708997E+01  0.10320027634E+01 0.  0.
     999903    2    3    3    0    0  0.38796439382E-01  0.10308669370E+00 -0.76609191030E-01  0.14157047085E+00  0.45179640773E-01 0.  0.
         14    1    1    2    0    0 -0.97092977377E-02  0.67071785297E-02  0.11753955230E-02  0.11859100346E-01  0.00000000000E+00 0. -1.
     999901    1    3    3    0    0 -0.29087141645E-01 -0.10979387223E+00  0.75433795507E-01  0.89050042880E+00  0.88000000000E+00 0. -1.
        -11    1    4    4    0    0  0.43686099615E-01  0.52864385226E-01 -0.43331970584E-01  0.81123605200E-01  0.51100000000E-03 0.  1.
         11    1    4    4    0    0 -0.48896602325E-02  0.50222308475E-01 -0.33277220446E-01  0.60446865654E-01  0.51100000000E-03 0. -1.
</event>
<event>
 8    1  0.2959109E+004  0.1043930E+01  0.7957747E-01            NaN
         13   -1    0    0    0    0  0.00000000000E+00  0.00000000000E+00  0.74505805969E-08  0.10566000000E+00  0.10566000000E+00 0. -1.
     999900   -1    0    0    0    0 -0.00000000000E+00 -0.00000000000E+00 -0.74505805969E-08  0.93827000000E+00  0.93827000000E+00 0. -1.
     999902    2    1    2    0    0 -0.41232822486E-03 -0.13878241885E-01  0.12569023993E-02  0.10299888589E+01  0.10298945062E+01 0.  0.
     999903    2    3    3    0    0  0.54798377898E-01 -0.25884309323E-01 -0.11818051739E+00  0.14012501256E+00  0.44671296879E-01 0.  0.
         14    1    1    2    0    0  0.41232822486E-03  0.13878241885E-01 -0.12569023993E-02  0.13941141131E-01  0.00000000000E+00 0. -1.
     999901    1    3    3    0    0 -0.55210706123E-01  0.12006067438E-01  0.11943741979E+00  0.88986384631E+00  0.88000000000E+00 0.  1.
        -11    1    4    4    0    0  0.14731812068E-01  0.10528297509E-02 -0.71341976755E-01  0.72856526857E-01  0.51100000000E-03 0. -1.
         11    1    4    4    0    0  0.40066565831E-01 -0.26937139074E-01 -0.46838540633E-01  0.67268485701E-01  0.51100000000E-03 0.  1.
</event>
<event>
 8    1  0.2959109E+004  0.1043930E+01  0.7957747E-01            NaN
         13   -1    0    0    0    0  0.00000000000E+00  0.00000000000E+00  0.74505805969E-08  0.10566000000E+00  0.10566000000E+00 0.  1.
     999900   -1    0    0    0    0 -0.00000000000E+00 -0.00000000000E+00 -0.74505805969E-08  0.93827000000E+00  0.93827000000E+00 0. -1.
     999902    2    1    2    0    0 -0.55058568275E-02  0.94459338908E-02  0.77072467802E-02  0.10305530878E+01  0.10304662658E+01 0.  0.
     999903    2    3    3    0    0  0.10446544400E+00 -0.30684473009E-01  0.76326321474E-01  0.14015277674E+00  0.44300424431E-01 0.  0.
         14    1    1    2    0    0  0.55058568275E-02 -0.94459338908E-02 -0.77072467802E-02  0.13376912178E-01  0.00000000000E+00 0. -1.
     999901    1    3    3    0    0 -0.10997130083E+00  0.40130406899E-01 -0.68619074694E-01  0.89040031108E+00  0.88000000000E+00 0.  1.
        -11    1    4    4    0    0  0.10335902537E+00 -0.18554056217E-01  0.71489789130E-01  0.12703697178E+00  0.51100000000E-03 0.  1.
         11    1    4    4    0    0  0.11064186284E-02 -0.12130416791E-01  0.48365323441E-02  0.13115804963E-01  0.51100000000E-03 0. -1.
</event>
<event>
 8    1  0.2959109E+004  0.1043930E+01  0.7957747E-01            NaN
         13   -1    0    0    0    0  0.00000000000E+00  0.00000000000E+00  0.74505805969E-08  0.10566000000E+00  0.10566000000E+00 0.  1.
     999900   -1    0    0    0    0 -0.00000000000E+00 -0.00000000000E+00 -0.74505805969E-08  0.93827000000E+00  0.93827000000E+00 0.  1.
     999902    2    1    2    0    0 -0.52900483505E-02 -0.38977173044E-02 -0.10880360394E-01  0.10312194117E+01  0.10311410748E+01 0.  0.
     999903    2    3    3    0    0  0.10289984698E+00 -0.55436433580E-01 -0.65463185675E-01  0.14142135738E+00  0.45309987502E-01 0.  0.
         14    1    1    2    0    0  0.52900483505E-02  0.38977173044E-02  0.10880360394E-01  0.12710588265E-01  0.00000000000E+00 0.  1.
     999901    1    3    3    0    0 -0.10818989533E+00  0.51538716276E-01  0.54582825282E-01  0.88979805436E+00  0.88000000000E+00 0. -1.
        -11    1    4    4    0    0  0.71294596230E-01 -0.34003815928E-01 -0.66442381149E-01  0.10321836117E+00  0.51100000000E-03 0. -1.
         11    1    4    4    0    0  0.31605250746E-01 -0.21432617652E-01  0.97919547385E-03  0.38202996204E-01  0.51100000000E-03 0.  1.
</event>
<event>
 8    1  0.2959109E+004  0.1043930E+01  0.7957747E-01            NaN
         13   -1    0    0    0    0  0.00000000000E+00  0.00000000000E+00  0.74505805969E-08  0.10566000000E+00  0.10566000000E+00 0.  1.
     999900   -1    0    0    0    0 -0.00000000000E+00 -0.00000000000E+00 -0.74505805969E-08  0.93827000000E+00  0.93827000000E+00 0. -1.
     999902    2    1    2    0    0 -0.71587953711E-02  0.10506003278E-02  0.17223146877E-01  0.10252487554E+01  0.10250785441E+01 0.  0.
     999903    2    3    3    0    0 -0.97572110736E-01  0.17359260355E-01 -0.79792338691E-01  0.13516306039E+00  0.45613318957E-01 0.  0.
         14    1    1    2    0    0  0.71587953711E-02 -0.10506003278E-02 -0.17223146877E-01  0.18681244621E-01  0.00000000000E+00 0. -1.
     999901    1    3    3    0    0  0.90413315365E-01 -0.16308660027E-01  0.97015485568E-01  0.89008569499E+00  0.88000000000E+00 0.  1.
        -11    1    4    4    0    0 -0.35257885337E-01 -0.92894726049E-02 -0.98535896009E-02  0.37772571116E-01  0.51100000000E-03 0. -1.
         11    1    4    4    0    0 -0.62314225399E-01  0.26648732960E-01 -0.69938749090E-01  0.97390489272E-01  0.51100000000E-03 0.  1.
</event>
<event>
 8    1  0.2959109E+004  0.1043930E+01  0.7957747E-01            NaN
         13   -1    0    0    0    0  0.00000000000E+00  0.00000000000E+00  0.74505805969E-08  0.10566000000E+00  0.10566000000E+00 0. -1.
     999900   -1    0    0    0    0 -0.00000000000E+00 -0.00000000000E+00 -0.74505805969E-08  0.93827000000E+00  0.93827000000E+00 0.  1.
     999902    2    1    2    0    0  0.34213123048E-02 -0.12181840175E-01  0.54726162466E-02  0.10301440602E+01  0.10300518106E+01 0.  0.
     999903    2    3    3    0    0 -0.12486929374E+00 -0.26291410538E-01 -0.35198065262E-01  0.13980049509E+00  0.44963272138E-01 0.  0.
         14    1    1    2    0    0 -0.34213123048E-02  0.12181840175E-01 -0.54726162466E-02  0.13785939812E-01  0.00000000000E+00 0. -1.
     999901    1    3    3    0    0  0.12829060605E+00  0.14109570364E-01  0.40670681509E-01  0.89034356510E+00  0.88000000000E+00 0. -1.
        -11    1    4    4    0    0 -0.97324150028E-02 -0.41530578639E-02  0.95904154891E-02  0.14290030849E-01  0.51100000000E-03 0.  1.
         11    1    4    4    0    0 -0.11513687874E+00 -0.22138352674E-01 -0.44788480751E-01  0.12551046424E+00  0.51100000000E-03 0. -1.
</event>
<event>
 7    1  0.2959109E+004  0.1043930E+01  0.7957747E-01            NaN
         13   -1    0    0    0    0  0.00000000000E+00  0.00000000000E+00  0.74505805969E-08  0.10566000000E+00  0.10566000000E+00 0.  1.
     999900   -1    0    0    0    0 -0.00000000000E+00 -0.00000000000E+00 -0.74505805969E-08  0.93827000000E+00  0.93827000000E+00 0. -1.
     999903    2    1    2    0    0  0.68242676071E-01  0.90146995690E-01 -0.26987543892E-01  0.12454415349E+00  0.44714370997E-01 0.  0.
         14    1    1    2    0    0 -0.99935871897E-02  0.23814873532E-01 -0.13625625316E-01  0.29200644711E-01  0.00000000000E+00 0. -1.
     999901    1    1    2    0    0 -0.58249088881E-01 -0.11396186922E+00  0.40613169208E-01  0.89018520180E+00  0.88000000000E+00 0.  1.
        -11    1    3    3    0    0  0.13227147829E-01  0.51831163831E-01 -0.20098861938E-01  0.57145886606E-01  0.51100000000E-03 0. -1.
         11    1    3    3    0    0  0.55015528241E-01  0.38315831859E-01 -0.68886819545E-02  0.67398266883E-01  0.51100000000E-03 0.  1.
</event>
<event>
 8    1  0.2959109E+004  0.1043930E+01  0.7957747E-01            NaN
         13   -1    0    0    0    0  0.00000000000E+00  0.00000000000E+00  0.74505805969E-08  0.10566000000E+00  0.10566000000E+00 0. -1.
     999900   -1    0    0    0    0 -0.00000000000E+00 -0.00000000000E+00 -0.74505805969E-08  0.93827000000E+00  0.93827000000E+00 0.  1.
     999902    2    1    2    0    0  0.94098917225E-02  0.94924034975E-02  0.43775182695E-02  0.10298653474E+01  0.10297693039E+01 0.  0.
     999903    2    3    3    0    0 -0.12671175092E+00 -0.32163507571E-01 -0.28449819091E-02  0.13839662612E+00  0.45334017682E-01 0.  0.
         14    1    1    2    0    0 -0.94098917225E-02 -0.94924034975E-02 -0.43775182695E-02  0.14064652594E-01  0.00000000000E+00 0.  1.
     999901    1    3    3    0    0  0.13612164264E+00  0.41655911069E-01  0.72225001786E-02  0.89146872129E+00  0.88000000000E+00 0. -1.
        -11    1    4    4    0    0 -0.85326553863E-01 -0.31960239034E-01 -0.20507764719E-01  0.93396505331E-01  0.51100000000E-03 0. -1.
         11    1    4    4    0    0 -0.41385197056E-01 -0.20326853746E-03  0.17662782810E-01  0.45000120789E-01  0.51100000000E-03 0.  1.
</event>
<event>
 8    1  0.2959109E+004  0.1043930E+01  0.7957747E-01            NaN
         13   -1    0    0    0    0  0.00000000000E+00  0.00000000000E+00  0.74505805969E-08  0.10566000000E+00  0.10566000000E+00 0. -1.
     999900   -1    0    0    0    0 -0.00000000000E+00 -0.00000000000E+00 -0.74505805969E-08  0.93827000000E+00  0.93827000000E+00 0.  1.
     999902    2    1    2    0    0 -0.10684562271E-01 -0.84918851165E-02  0.21001171174E-04  0.10302818344E+01  0.10301914316E+01 0.  0.
     999903    2    3    3    0    0  0.48662109157E-01 -0.50087721932E-01 -0.11275432276E+00  0.14012987278E+00  0.45233429987E-01 0.  0.
         14    1    1    2    0    0  0.10684562271E-01  0.84918851165E-02 -0.21001171174E-04  0.13648165620E-01  0.00000000000E+00 0. -1.
     999901    1    3    3    0    0 -0.59346671428E-01  0.41595836816E-01  0.11277532393E+00  0.89015196160E+00  0.88000000000E+00 0. -1.
        -11    1    4    4    0    0 -0.53839178271E-02 -0.20366699105E-01 -0.35361196747E-01  0.41163872024E-01  0.51100000000E-03 0. -1.
         11    1    4    4    0    0  0.54046026985E-01 -0.29721022827E-01 -0.77393126013E-01  0.98966000757E-01  0.51100000000E-03 0.  1.
</event>
<event>
 8    1  0.2959109E+004  0.1043930E+01  0.7957747E-01            NaN
         13   -1    0    0    0    0  0.00000000000E+00  0.00000000000E+00  0.74505805969E-08  0.10566000000E+00  0.10566000000E+00 0. -1.
     999900   -1    0    0    0    0 -0.00000000000E+00 -0.00000000000E+00 -0.74505805969E-08  0.93827000000E+00  0.93827000000E+00 0. -1.
     999902    2    1    2    0    0  0.38420726379E-03 -0.14038464380E-01 -0.22661954279E-02  0.10297046094E+01  0.10296063426E+01 0.  0.
     999903    2    3    3    0    0  0.36703521985E-01 -0.12276865932E+00 -0.39704766972E-01  0.14147997867E+00  0.44953571665E-01 0.  0.
         14    1    1    2    0    0 -0.38420726379E-03  0.14038464380E-01  0.22661954279E-02  0.14225390648E-01  0.00000000000E+00 0.  1.
     999901    1    3    3    0    0 -0.36319314721E-01  0.10873019494E+00  0.37438571544E-01  0.88822463068E+00  0.88000000000E+00 0. -1.
        -11    1    4    4    0    0  0.47262371678E-01 -0.10144731799E+00 -0.34559319113E-01  0.11713196730E+00  0.51100000000E-03 0. -1.
         11    1    4    4    0    0 -0.10558849694E-01 -0.21321341329E-01 -0.51454478588E-02  0.24348011368E-01  0.51100000000E-03 0.  1.
</event>
<event>
 8    1  0.2959109E+004  0.1043930E+01  0.7957747E-01            NaN
         13   -1    0    0    0    0  0.00000000000E+00  0.00000000000E+00  0.74505805969E-08  0.10566000000E+00  0.10566000000E+00 0. -1.
     999900   -1    0    0    0    0 -0.00000000000E+00 -0.00000000000E+00 -0.74505805969E-08  0.93827000000E+00  0.93827000000E+00 0. -1.
     999902    2    1    2    0    0 -0.30931339454E-02  0.26728415936E-01 -0.52026521558E-02  0.10165248310E+01  0.10161553468E+01 0.  0.
     999903    2    3    3    0    0  0.38831581035E-01  0.11164671735E+00 -0.34005216167E-01  0.13097506546E+00  0.45002576199E-01 0.  0.
         14    1    1    2    0    0  0.30931339454E-02 -0.26728415936E-01  0.52026521558E-02  0.27405168956E-01  0.00000000000E+00 0.  1.
     999901    1    3    3    0    0 -0.41924714980E-01 -0.84918301411E-01  0.28802564011E-01  0.88554976559E+00  0.88000000000E+00 0. -1.
        -11    1    4    4    0    0  0.43336202142E-01  0.59945407823E-01 -0.26294712945E-01  0.78505741096E-01  0.51100000000E-03 0.  1.
         11    1    4    4    0    0 -0.45046211079E-02  0.51701309524E-01 -0.77105032222E-02  0.52469324360E-01  0.51100000000E-03 0. -1.
</event>
<event>
 8    1  0.2959109E+004  0.1043930E+01  0.7957747E-01            NaN
         13   -1    0    0    0    0  0.00000000000E+00  0.00000000000E+00  0.74505805969E-08  0.10566000000E+00  0.10566000000E+00 0. -1.
     999900   -1    0    0    0    0 -0.00000000000E+00 -0.00000000000E+00 -0.74505805969E-08  0.93827000000E+00  0.93827000000E+00 0. -1.
     999902    2    1    2    0    0  0.86275001879E-02 -0.91576251005E-02  0.71166428480E-02  0.10294751578E+01  0.10293736727E+01 0.  0.
     999903    2    3    3    0    0  0.69497214322E-01 -0.11001851199E+00  0.32065030742E-01  0.14127446954E+00  0.44680798654E-01 0.  0.
         14    1    1    2    0    0 -0.86275001879E-02  0.91576251005E-02 -0.71166428480E-02  0.14454842178E-01  0.00000000000E+00 0.  1.
     999901    1    3    3    0    0 -0.60869714134E-01  0.10086088689E+00 -0.24948387894E-01  0.88820068828E+00  0.88000000000E+00 0.  1.
        -11    1    4    4    0    0  0.74426649828E-01 -0.89830478757E-01  0.29493518654E-01  0.12032859129E+00  0.51100000000E-03 0. -1.
         11    1    4    4    0    0 -0.49294355057E-02 -0.20188033235E-01  0.25715120879E-02  0.20945878251E-01  0.51100000000E-03 0.  1.
</event>
<event>
 7    1  0.2959109E+004  0.1043930E+01  0.7957747E-01            NaN
         13   -1    0    0    0    0  0.00000000000E+00  0.00000000000E+00  0.74505805969E-08  0.10566000000E+00  0.10566000000E+00 0.  1.
     999900   -1    0    0    0    0 -0.00000000000E+00 -0.00000000000E+00 -0.74505805969E-08  0.93827000000E+00  0.93827000000E+00 0. -1.
     999903    2    1    2    0    0 -0.37142828434E-01 -0.77042120460E-01  0.72877107593E-01  0.12109434901E+00  0.45140785584E-01 0.  0.
         14    1    1    2    0    0  0.19925182260E-02  0.58818212332E-02 -0.38075511142E-01  0.38578627485E-01  0.00000000000E+00 0. -1.
     999901    1    1    2    0    0  0.35150310208E-01  0.71160299226E-01 -0.34801596451E-01  0.88425702350E+00  0.88000000000E+00 0.  1.
        -11    1    3    3    0    0 -0.20960073136E-01 -0.35281179211E-01  0.63063776981E-01  0.75242191359E-01  0.51100000000E-03 0.  1.
         11    1    3    3    0    0 -0.16182755297E-01 -0.41760941249E-01  0.98133306125E-02  0.45852157656E-01  0.51100000000E-03 0. -1.
</event>
<event>
 8    1  0.2959109E+004  0.1043930E+01  0.7957747E-01            NaN
         13   -1    0    0    0    0  0.00000000000E+00  0.00000000000E+00  0.74505805969E-08  0.10566000000E+00  0.10566000000E+00 0. -1.
     999900   -1    0    0    0    0 -0.00000000000E+00 -0.00000000000E+00 -0.74505805969E-08  0.93827000000E+00  0.93827000000E+00 0.  1.
     999902    2    1    2    0    0  0.14791820993E-01 -0.91470274953E-03  0.67645217003E-03  0.10290944940E+01  0.10289875536E+01 0.  0.
     999903    2    3    3    0    0 -0.24333833879E-01 -0.11136228202E+00 -0.66196793007E-01  0.13881278832E+00  0.43511854346E-01 0.  0.
         14    1    1    2    0    0 -0.14791820993E-01  0.91470274953E-03 -0.67645217003E-03  0.14835505955E-01  0.00000000000E+00 0.  1.
     999901    1    3    3    0    0  0.39125654871E-01  0.11044757927E+00  0.66873245177E-01  0.89028170573E+00  0.88000000000E+00 0.  1.
        -11    1    4    4    0    0 -0.19118330415E-01 -0.94736584206E-01 -0.34466951379E-01  0.10260975979E+00  0.51100000000E-03 0. -1.
         11    1    4    4    0    0 -0.52155034638E-02 -0.16625697810E-01 -0.31729841628E-01  0.36203028531E-01  0.51100000000E-03 0.  1.
</event>
<event>
 8    1  0.2959109E+004  0.1043930E+01  0.7957747E-01            NaN
         13   -1    0    0    0    0  0.00000000000E+00  0.00000000000E+00  0.74505805969E-08  0.10566000000E+00  0.10566000000E+00 0. -1.
     999900   -1    0    0    0    0 -0.00000000000E+00 -0.00000000000E+00 -0.74505805969E-08  0.93827000000E+00  0.93827000000E+00 0. -1.
     999902    2    1    2    0    0  0.79851215674E-02 -0.10527842283E-01 -0.13591270162E-02  0.10306467453E+01  0.10305611426E+01 0.  0.
     999903    2    3    3    0    0 -0.54342946995E-01  0.10685929218E+00  0.53877019711E-01  0.13895422015E+00  0.45094099750E-01 0.  0.
         14    1    1    2    0    0 -0.79851215674E-02  0.10527842283E-01  0.13591270162E-02  0.13283254715E-01  0.00000000000E+00 0. -1.
     999901    1    3    3    0    0  0.62328068562E-01 -0.11738713446E+00 -0.55236146727E-01  0.89169252513E+00  0.88000000000E+00 0. -1.
        -11    1    4    4    0    0 -0.49953048122E-01  0.52206636639E-01  0.22008457043E-01  0.75534582995E-01  0.51100000000E-03 0.  1.
         11    1    4    4    0    0 -0.43898988728E-02  0.54652655542E-01  0.31868562668E-01  0.63419637159E-01  0.51100000000E-03 0. -1.
</event>
<event>
 8    1  0.2959109E+004  0.1043930E+01  0.7957747E-01            NaN
         13   -1    0    0    0    0  0.00000000000E+00  0.00000000000E+00  0.74505805969E-08  0.10566000000E+00  0.10566000000E+00 0. -1.
     999900   -1    0    0    0    0 -0.00000000000E+00 -0.00000000000E+00 -0.74505805969E-08  0.93827000000E+00  0.93827000000E+00 0.  1.
     999902    2    1    2    0    0  0.11323459811E-01  0.53632552491E-02  0.66722331418E-02  0.10297347915E+01  0.10296369442E+01 0.  0.
     999903    2    3    3    0    0  0.37894470532E-01  0.11958753231E-03  0.12800802375E+00  0.14099642239E+00  0.45364433031E-01 0.  0.
         14    1    1    2    0    0 -0.11323459811E-01 -0.53632552491E-02 -0.66722331418E-02  0.14195208489E-01  0.00000000000E+00 0. -1.
     999901    1    3    3    0    0 -0.26571010721E-01  0.52436677168E-02 -0.12133579061E+00  0.88873836912E+00  0.88000000000E+00 0.  1.
        -11    1    4    4    0    0  0.32945300470E-01  0.19985673219E-01  0.79759015359E-01  0.88580932536E-01  0.51100000000E-03 0. -1.
         11    1    4    4    0    0  0.49491700623E-02 -0.19866085686E-01  0.48249008394E-01  0.52415489855E-01  0.51100000000E-03 0.  1.
</event>
<event>
 8    1  0.2959109E+004  0.1043930E+01  0.7957747E-01            NaN
         13   -1    0    0    0    0  0.00000000000E+00  0.00000000000E+00  0.74505805969E-08  0.10566000000E+00  0.10566000000E+00 0. -1.
     999900   -1    0    0    0    0 -0.00000000000E+00 -0.00000000000E+00 -0.74505805969E-08  0.93827000000E+00  0.93827000000E+00 0.  1.
     999902    2    1    2    0    0 -0.53444323270E-02  0.95960623015E-02 -0.88180228060E-02  0.10298443728E+01  0.10297480406E+01 0.  0.
     999903    2    3    3    0    0 -0.60497661217E-01  0.11281008501E+00  0.44129627589E-01  0.14051964757E+00  0.37580114826E-01 0.  0.
         14    1    1    2    0    0  0.53444323270E-02 -0.95960623015E-02  0.88180228060E-02  0.14085627242E-01  0.00000000000E+00 0. -1.
     999901    1    3    3    0    0  0.55153228890E-01 -0.10321402271E+00 -0.52947650395E-01  0.88932472518E+00  0.88000000000E+00 0. -1.
        -11    1    4    4    0    0 -0.36610330776E-01  0.94030991866E-01  0.22969993640E-01  0.10348925297E+00  0.51100000000E-03 0. -1.
         11    1    4    4    0    0 -0.23887330441E-01  0.18779093145E-01  0.21159633949E-01  0.37030394607E-01  0.51100000000E-03 0.  1.
</event>
<event>
 8    1  0.2959109E+004  0.1043930E+01  0.7957747E-01            NaN
         13   -1    0    0    0    0  0.00000000000E+00  0.00000000000E+00  0.74505805969E-08  0.10566000000E+00  0.10566000000E+00 0.  1.
     999900   -1    0    0    0    0 -0.00000000000E+00 -0.00000000000E+00 -0.74505805969E-08  0.93827000000E+00  0.93827000000E+00 0.  1.
     999902    2    1    2    0    0  0.55607752967E-02 -0.13042409674E-01 -0.22468217751E-02  0.10295746916E+01  0.10294746090E+01 0.  0.
     999903    2    3    3    0    0  0.97677683857E-01  0.19829272763E-01  0.87960906303E-01  0.13957272160E+00  0.42535791928E-01 0.  0.
         14    1    1    2    0    0 -0.55607752967E-02  0.13042409674E-01  0.22468217751E-02  0.14355308429E-01  0.00000000000E+00 0. -1.
     999901    1    3    3    0    0 -0.92116908561E-01 -0.32871682436E-01 -0.90207728078E-01  0.89000196997E+00  0.88000000000E+00 0. -1.
        -11    1    4    4    0    0  0.48223710202E-01 -0.11251396317E-01  0.34171646683E-01  0.60167123105E-01  0.51100000000E-03 0. -1.
         11    1    4    4    0    0  0.49453973655E-01  0.31080669080E-01  0.53789259620E-01  0.79405598494E-01  0.51100000000E-03 0.  1.
</event>
<event>
 8    1  0.2959109E+004  0.1043930E+01  0.7957747E-01            NaN
         13   -1    0    0    0    0  0.00000000000E+00  0.00000000000E+00  0.74505805969E-08  0.10566000000E+00  0.10566000000E+00 0. -1.
     999900   -1    0    0    0    0 -0.00000000000E+00 -0.00000000000E+00 -0.74505805969E-08  0.93827000000E+00  0.93827000000E+00 0.  1.
     999902    2    1    2    0    0 -0.79827364405E-02  0.10993248361E-01  0.34367997160E-02  0.10299161789E+01  0.10298208331E+01 0.  0.
     999903    2    3    3    0    0 -0.82989769264E-01 -0.92927633207E-01  0.44027738037E-01  0.13970652441E+00  0.45350021290E-01 0.  0.
         14    1    1    2    0    0  0.79827364405E-02 -0.10993248361E-01 -0.34367997160E-02  0.14013821139E-01  0.00000000000E+00 0.  1.
     999901    1    3    3    0    0  0.75007032823E-01  0.10392088157E+00 -0.40590938321E-01  0.89020965445E+00  0.88000000000E+00 0.  1.
        -11    1    4    4    0    0 -0.72189650356E-02 -0.37614932564E-01  0.18162971479E-01  0.42392820877E-01  0.51100000000E-03 0. -1.
         11    1    4    4    0    0 -0.75770804228E-01 -0.55312700644E-01  0.25864766557E-01  0.97313703536E-01  0.51100000000E-03 0.  1.
</event>
<event>
 8    1  0.2959109E+004  0.1043930E+01  0.7957747E-01            NaN
         13   -1    0    0    0    0  0.00000000000E+00  0.00000000000E+00  0.74505805969E-08  0.10566000000E+00  0.10566000000E+00 0. -1.
     999900   -1    0    0    0    0 -0.00000000000E+00 -0.00000000000E+00 -0.74505805969E-08  0.93827000000E+00  0.93827000000E+00 0. -1.
     999902    2    1    2    0    0  0.97647916303E-02 -0.18091646606E-02  0.95246044456E-02  0.10301698284E+01  0.10300779257E+01 0.  0.
     999903    2    3    3    0    0  0.53335936514E-02  0.12931213718E+00  0.29190507288E-01  0.14022647120E+00  0.45401557948E-01 0.  0.
         14    1    1    2    0    0 -0.97647916303E-02  0.18091646606E-02 -0.95246044456E-02  0.13760171590E-01  0.00000000000E+00 0.  1.
     999901    1    3    3    0    0  0.44311979789E-02 -0.13112130184E+00 -0.19665902843E-01  0.88994335721E+00  0.88000000000E+00 0. -1.
        -11    1    4    4    0    0  0.24840339872E-01  0.55516146902E-01  0.12969564666E-01  0.62189675835E-01  0.51100000000E-03 0. -1.
         11    1    4    4    0    0 -0.19506746220E-01  0.73795990282E-01  0.16220942622E-01  0.78036795362E-01  0.51100000000E-03 0.  1.
</event>
<event>
 8    1  0.2959109E+004  0.1043930E+01  0.7957747E-01            NaN
         13   -1    0    0    0    0  0.00000000000E+00  0.00000000000E+00  0.74505805969E-08  0.10566000000E+00  0.10566000000E+00 0. -1.
     999900   -1    0    0    0    0 -0.00000000000E+00 -0.00000000000E+00 -0.74505805969E-08  0.93827000000E+00  0.93827000000E+00 0. -1.
     999902    2    1    2    0    0 -0.44870201596E-02  0.18609916531E-02  0.15366525451E-01  0.10278139600E+01  0.10276876032E+01 0.  0.
     999903    2    3    3    0    0  0.12526740523E+00 -0.15661375457E-01 -0.26276537980E-01  0.13715275116E+00  0.46724931342E-01 0.  0.
         14    1    1    2    0    0  0.44870201596E-02 -0.18609916531E-02 -0.15366525451E-01  0.16116039969E-01  0.00000000000E+00 0.  1.
     999901    1    3    3    0    0 -0.12975442539E+00  0.17522367110E-01  0.41643063431E-01  0.89066120887E+00  0.88000000000E+00 0. -1.
        -11    1    4    4    0    0  0.71569599414E-01 -0.26128260283E-01  0.60655417971E-03  0.76193979911E-01  0.51100000000E-03 0. -1.
         11    1    4    4    0    0  0.53697805812E-01  0.10466884826E-01 -0.26883092160E-01  0.60958771248E-01  0.51100000000E-03 0.  1.
</event>
<event>
 8    1  0.2959109E+004  0.1043930E+01  0.7957747E-01            NaN
         13   -1    0    0    0    0  0.00000000000E+00  0.00000000000E+00  0.74505805969E-08  0.10566000000E+00  0.10566000000E+00 0. -1.
     999900   -1    0    0    0    0 -0.00000000000E+00 -0.00000000000E+00 -0.74505805969E-08  0.93827000000E+00  0.93827000000E+00 0. -1.
     999902    2    1    2    0    0 -0.38896311753E-02  0.12824937096E-01  0.50540172704E-03  0.10305186737E+01  0.10304314015E+01 0.  0.
     999903    2    3    3    0    0  0.94979845576E-01 -0.67638847055E-01  0.61396336009E-01  0.13925142990E+00  0.45002954985E-01 0.  0.
         14    1    1    2    0    0  0.38896311753E-02 -0.12824937096E-01 -0.50540172704E-03  0.13411326300E-01  0.00000000000E+00 0.  1.
     999901    1    3    3    0    0 -0.98869476751E-01  0.80463784152E-01 -0.60890934282E-01  0.89126724380E+00  0.88000000000E+00 0. -1.
        -11    1    4    4    0    0  0.87252930652E-01 -0.56172044668E-01  0.67848756645E-01  0.12398422242E+00  0.51100000000E-03 0.  1.
         11    1    4    4    0    0  0.77269149240E-02 -0.11466802388E-01 -0.64524206356E-02  0.15267207482E-01  0.51100000000E-03 0. -1.
</event>
<event>
 8    1  0.2959109E+004  0.1043930E+01  0.7957747E-01            NaN
         13   -1    0    0    0    0  0.00000000000E+00  0.00000000000E+00  0.74505805969E-08  0.10566000000E+00  0.10566000000E+00 0. -1.
     999900   -1    0    0    0    0 -0.00000000000E+00 -0.00000000000E+00 -0.74505805969E-08  0.93827000000E+00  0.93827000000E+00 0. -1.
     999902    2    1    2    0    0 -0.10907191990E-02 -0.13099686317E-01 -0.45204520156E-02  0.10300294268E+01  0.10299356262E+01 0.  0.
     999903    2    3    3    0    0  0.56687819790E-01 -0.82417983123E-01 -0.89353637681E-01  0.14135622742E+00  0.44623733687E-01 0.  0.
         14    1    1    2    0    0  0.10907191990E-02  0.13099686317E-01  0.45204520156E-02  0.13900573240E-01  0.00000000000E+00 0. -1.
     999901    1    3    3    0    0 -0.57778538989E-01  0.69318296806E-01  0.84833185665E-01  0.88867319934E+00  0.88000000000E+00 0.  1.
        -11    1    4    4    0    0  0.49739346181E-02 -0.45633148211E-01 -0.33725570102E-01  0.56963141074E-01  0.51100000000E-03 0.  1.
         11    1    4    4    0    0  0.51713885172E-01 -0.36784834912E-01 -0.55628067578E-01  0.84393086343E-01  0.51100000000E-03 0. -1.
</event>
<event>
 8    1  0.2959109E+004  0.1043930E+01  0.7957747E-01            NaN
         13   -1    0    0    0    0  0.00000000000E+00  0.00000000000E+00  0.74505805969E-08  0.10566000000E+00  0.10566000000E+00 0. -1.
     999900   -1    0    0    0    0 -0.00000000000E+00 -0.00000000000E+00 -0.74505805969E-08  0.93827000000E+00  0.93827000000E+00 0.  1.
     999902    2    1    2    0    0  0.92544656748E-02  0.84680165829E-02 -0.38128468388E-02  0.10308193081E+01  0.10307359292E+01 0.  0.
     999903    2    3    3    0    0 -0.10190800592E+00 -0.49886097061E-01 -0.66928629640E-01  0.13967066751E+00  0.46417556446E-01 0.  0.
         14    1    1    2    0    0 -0.92544656748E-02 -0.84680165829E-02  0.38128468388E-02  0.13110691850E-01  0.00000000000E+00 0.  1.
     999901    1    3    3    0    0  0.11116247160E+00  0.58354113644E-01  0.63115782801E-01  0.89114864064E+00  0.88000000000E+00 0. -1.
        -11    1    4    4    0    0 -0.85565538366E-01 -0.46746495739E-01 -0.73154410232E-01  0.12189554987E+00  0.51100000000E-03 0. -1.
         11    1    4    4    0    0 -0.16342467558E-01 -0.31396013219E-02  0.62257805923E-02  0.17775117646E-01  0.51100000000E-03 0.  1.
</event>
<event>
 8    1  0.2959109E+004  0.1043930E+01  0.7957747E-01            NaN
         13   -1    0    0    0    0  0.00000000000E+00  0.00000000000E+00  0.74505805969E-08  0.10566000000E+00  0.10566000000E+00 0.  1.
     999900   -1    0    0    0    0 -0.00000000000E+00 -0.00000000000E+00 -0.74505805969E-08  0.93827000000E+00  0.93827000000E+00 0. -1.
     999902    2    1    2    0    0 -0.88441559179E-02 -0.15818103262E-01 -0.50846716658E-03  0.10258001896E+01  0.10256399656E+01 0.  0.
     999903    2    3    3    0    0 -0.45893065724E-01 -0.23829711732E-01 -0.11878717174E+00  0.13707826489E+00  0.44788725049E-01 0.  0.
         14    1    1    2    0    0  0.88441559179E-02  0.15818103262E-01  0.50846716658E-03  0.18129810357E-01  0.00000000000E+00 0.  1.
     999901    1    3    3    0    0  0.37048909806E-01  0.80116084693E-02  0.11827870457E+00  0.88872192476E+00  0.88000000000E+00 0.  1.
        -11    1    4    4    0    0 -0.34526303998E-01 -0.32179250213E-01 -0.58529771341E-01  0.75190192620E-01  0.51100000000E-03 0. -1.
         11    1    4    4    0    0 -0.11366761726E-01  0.83495384815E-02 -0.60257400399E-01  0.61888072266E-01  0.51100000000E-03 0.  1.
</event>
<event>
 8    1  0.2959109E+004  0.1043930E+01  0.7957747E-01            NaN
         13   -1    0    0    0    0  0.00000000000E+00  0.00000000000E+00  0.74505805969E-08  0.10566000000E+00  0.10566000000E+00 0.  1.
     999900   -1    0    0    0    0 -0.00000000000E+00 -0.00000000000E+00 -0.74505805969E-08  0.93827000000E+00  0.93827000000E+00 0. -1.
     999902    2    1    2    0    0 -0.37602528590E-02 -0.12443944471E-01  0.49851638372E-02  0.10300072447E+01  0.10299131425E+01 0.  0.
     999903    2    3    3    0    0 -0.70184656341E-01 -0.24279207311E-02  0.11244149917E+00  0.14092941569E+00  0.47814523790E-01 0.  0.
         14    1    1    2    0    0  0.37602528590E-02  0.12443944471E-01 -0.49851638372E-02  0.13922755261E-01  0.00000000000E+00 0. -1.
     999901    1    3    3    0    0  0.66424403482E-01 -0.10016023740E-01 -0.10745633533E+00  0.88907782905E+00  0.88000000000E+00 0. -1.
        -11    1    4    4    0    0 -0.57773850115E-01  0.12888668127E-01  0.57375200217E-01  0.82438524029E-01  0.51100000000E-03 0.  1.
         11    1    4    4    0    0 -0.12410806226E-01 -0.15316588858E-01  0.55066298953E-01  0.58490891657E-01  0.51100000000E-03 0. -1.
</event>
<event>
 8    1  0.2959109E+004  0.1043930E+01  0.7957747E-01            NaN
         13   -1    0    0    0    0  0.00000000000E+00  0.00000000000E+00  0.74505805969E-08  0.10566000000E+00  0.10566000000E+00 0. -1.
     999900   -1    0    0    0    0 -0.00000000000E+00 -0.00000000000E+00 -0.74505805969E-08  0.93827000000E+00  0.93827000000E+00 0.  1.
     999902    2    1    2    0    0 -0.75439852412E-02  0.99350966966E-02  0.14576595484E-02  0.10313704367E+01  0.10312939615E+01 0.  0.
     999903    2    3    3    0    0 -0.25473104282E-02 -0.10013398647E+00 -0.86138300492E-01  0.14018402405E+00  0.46887628954E-01 0.  0.
         14    1    1    2    0    0  0.75439852412E-02 -0.99350966966E-02 -0.14576595484E-02  0.12559563330E-01  0.00000000000E+00 0. -1.
     999901    1    3    3    0    0 -0.49966748130E-02  0.11006908317E+00  0.87595960040E-01  0.89118641262E+00  0.88000000000E+00 0. -1.
        -11    1    4    4    0    0 -0.42419596821E-02 -0.74695009416E-01 -0.86902749865E-01  0.11467208775E+00  0.51100000000E-03 0. -1.
         11    1    4    4    0    0  0.16946492539E-02 -0.25438977057E-01  0.76444937360E-03  0.25511936298E-01  0.51100000000E-03 0.  1.
</event>
<event>
 8    1  0.2959109E+004  0.1043930E+01  0.7957747E-01            NaN
         13   -1    0    0    0    0  0.00000000000E+00  0.00000000000E+00  0.74505805969E-08  0.10566000000E+00  0.10566000000E+00 0.  1.
     999900   -1    0    0    0    0 -0.00000000000E+00 -0.00000000000E+00 -0.74505805969E-08  0.93827000000E+00  0.93827000000E+00 0. -1.
     999902    2    1    2    0    0 -0.95408375651E-02  0.24268744430E-02  0.10266245470E-01  0.10297063191E+01  0.10296080762E+01 0.  0.
     999903    2    3    3    0    0 -0.86504550764E-01 -0.99871890424E-01 -0.24271736679E-02  0.14035286110E+00  0.47282159935E-01 0.  0.
         14    1    1    2    0    0  0.95408375651E-02 -0.24268744430E-02 -0.10266245470E-01  0.14223680855E-01  0.00000000000E+00 0. -1.
     999901    1    3    3    0    0  0.76963713199E-01  0.10229876487E+00  0.12693419138E-01  0.88935345804E+00  0.88000000000E+00 0.  1.
        -11    1    4    4    0    0 -0.53262637447E-01 -0.65646509355E-01 -0.24159726402E-01  0.87922273851E-01  0.51100000000E-03 0.  1.
         11    1    4    4    0    0 -0.33241913317E-01 -0.34225381069E-01  0.21732552734E-01  0.52430587252E-01  0.51100000000E-03 0. -1.
</event>
<event>
 8    1  0.2959109E+004  0.1043930E+01  0.7957747E-01            NaN
         13   -1    0    0    0    0  0.00000000000E+00  0.00000000000E+00  0.74505805969E-08  0.10566000000E+00  0.10566000000E+00 0.  1.
     999900   -1    0    0    0    0 -0.00000000000E+00 -0.00000000000E+00 -0.74505805969E-08  0.93827000000E+00  0.93827000000E+00 0.  1.
     999902    2    1    2    0    0  0.12526185251E-01  0.37274679535E-02 -0.72023431562E-02  0.10290077655E+01  0.10288995619E+01 0.  0.
     999903    2    3    3    0    0 -0.87978208017E-01  0.96454875193E-01 -0.50390859058E-02  0.13844379546E+00  0.45799389528E-01 0.  0.
         14    1    1    2    0    0 -0.12526185251E-01 -0.37274679535E-02  0.72023431562E-02  0.14922234459E-01  0.00000000000E+00 0.  1.
     999901    1    3    3    0    0  0.10050439327E+00 -0.92727407240E-01 -0.21632572504E-02  0.89056397008E+00  0.88000000000E+00 0.  1.
        -11    1    4    4    0    0 -0.75258255385E-01  0.50775563087E-01 -0.29616042125E-03  0.90787177743E-01  0.51100000000E-03 0. -1.
         11    1    4    4    0    0 -0.12719952631E-01  0.45679312106E-01 -0.47429254845E-02  0.47656617720E-01  0.51100000000E-03 0.  1.
</event>
<event>
 8    1  0.2959109E+004  0.1043930E+01  0.7957747E-01            NaN
         13   -1    0    0    0    0  0.00000000000E+00  0.00000000000E+00  0.74505805969E-08  0.10566000000E+00  0.10566000000E+00 0. -1.
     999900   -1    0    0    0    0 -0.00000000000E+00 -0.00000000000E+00 -0.74505805969E-08  0.93827000000E+00  0.93827000000E+00 0.  1.
     999902    2    1    2    0    0  0.40576465507E-02 -0.13503965070E-01  0.52149734646E-03  0.10298199494E+01  0.10297232806E+01 0.  0.
     999903    2    3    3    0    0  0.13709476048E-01 -0.13337706260E+00  0.55730284459E-02  0.14162614438E+00  0.45271575676E-01 0.  0.
         14    1    1    2    0    0 -0.40576465507E-02  0.13503965070E-01 -0.52149734646E-03  0.14110050589E-01  0.00000000000E+00 0. -1.
     999901    1    3    3    0    0 -0.96518294974E-02  0.11987309753E+00 -0.50515310994E-02  0.88819380503E+00  0.88000000000E+00 0.  1.
        -11    1    4    4    0    0  0.22658970507E-01 -0.10764104054E+00  0.18359913903E-01  0.11152295779E+00  0.51100000000E-03 0.  1.
         11    1    4    4    0    0 -0.89494944592E-02 -0.25736022061E-01 -0.12786885457E-01  0.30103186597E-01  0.51100000000E-03 0. -1.
</event>
<event>
 7    1  0.2959109E+004  0.1043930E+01  0.7957747E-01            NaN
         13   -1    0    0    0    0  0.00000000000E+00  0.00000000000E+00  0.74505805969E-08  0.10566000000E+00  0.10566000000E+00 0.  1.
     999900   -1    0    0    0    0 -0.00000000000E+00 -0.00000000000E+00 -0.74505805969E-08  0.93827000000E+00  0.93827000000E+00 0. -1.
     999903    2    1    2    0    0 -0.49003921104E-01 -0.31580733658E-01  0.58690068587E-01  0.94104813880E-01  0.44860504040E-01 0.  0.
         14    1    1    2    0    0 -0.58385103155E-01  0.18223084892E-01  0.12134187300E-02  0.61174941589E-01  0.00000000000E+00 0. -1.
     999901    1    1    2    0    0  0.10738902426E+00  0.13357648766E-01 -0.59903487317E-01  0.88865024453E+00  0.88000000000E+00 0. -1.
        -11    1    3    3    0    0 -0.87984268050E-02  0.88960816713E-03  0.37016975193E-01  0.38062071546E-01  0.51100000000E-03 0. -1.
         11    1    3    3    0    0 -0.40205494299E-01 -0.32470341825E-01  0.21673093393E-01  0.56042742334E-01  0.51100000000E-03 0.  1.
</event>
<event>
 8    1  0.2959109E+004  0.1043930E+01  0.7957747E-01            NaN
         13   -1    0    0    0    0  0.00000000000E+00  0.00000000000E+00  0.74505805969E-08  0.10566000000E+00  0.10566000000E+00 0. -1.
     999900   -1    0    0    0    0 -0.00000000000E+00 -0.00000000000E+00 -0.74505805969E-08  0.93827000000E+00  0.93827000000E+00 0.  1.
     999902    2    1    2    0    0  0.54680845080E-03 -0.11347323792E-01  0.85116731980E-02  0.10297346015E+01  0.10296367516E+01 0.  0.
     999903    2    3    3    0    0 -0.75480536991E-01 -0.10295053922E+00 -0.44357852625E-01  0.14014677952E+00  0.37113012956E-01 0.  0.
         14    1    1    2    0    0 -0.54680845080E-03  0.11347323792E-01 -0.85116731980E-02  0.14195398457E-01  0.00000000000E+00 0.  1.
     999901    1    3    3    0    0  0.76027345442E-01  0.91603215425E-01  0.52869525823E-01  0.88958782202E+00  0.88000000000E+00 0. -1.
        -11    1    4    4    0    0 -0.40172651461E-01 -0.83415590365E-01 -0.31017052955E-01  0.97643849454E-01  0.51100000000E-03 0.  1.
         11    1    4    4    0    0 -0.35307885531E-01 -0.19534948853E-01 -0.13340799670E-01  0.42502930066E-01  0.51100000000E-03 0. -1.
</event>
<event>
 8    1  0.2959109E+004  0.1043930E+01  0.7957747E-01            NaN
         13   -1    0    0    0    0  0.00000000000E+00  0.00000000000E+00  0.74505805969E-08  0.10566000000E+00  0.10566000000E+00 0. -1.
     999900   -1    0    0    0    0 -0.00000000000E+00 -0.00000000000E+00 -0.74505805969E-08  0.93827000000E+00  0.93827000000E+00 0. -1.
     999902    2    1    2    0    0 -0.12787396158E-01 -0.28838725823E-02 -0.47234332824E-02  0.10299964059E+01  0.10299021561E+01 0.  0.
     999903    2    3    3    0    0  0.61282807922E-01  0.11551870131E+00  0.91203037249E-02  0.13887508216E+00  0.45857993921E-01 0.  0.
         14    1    1    2    0    0  0.12787396158E-01  0.28838725823E-02  0.47234332824E-02  0.13933594064E-01  0.00000000000E+00 0.  1.
     999901    1    3    3    0    0 -0.74070204080E-01 -0.11840257389E+00 -0.13843737007E-01  0.89112132378E+00  0.88000000000E+00 0.  1.
        -11    1    4    4    0    0  0.33955837514E-01  0.20437478405E-01  0.19157992934E-02  0.39681492320E-01  0.51100000000E-03 0. -1.
         11    1    4    4    0    0  0.27326970407E-01  0.95081222900E-01  0.72045044315E-02  0.99193589838E-01  0.51100000000E-03 0.  1.
</event>
<event>
 8    1  0.2959109E+004  0.1043930E+01  0.7957747E-01            NaN
         13   -1    0    0    0    0  0.00000000000E+00  0.00000000000E+00  0.74505805969E-08  0.10566000000E+00  0.10566000000E+00 0. -1.
     999900   -1    0    0    0    0 -0.00000000000E+00 -0.00000000000E+00 -0.74505805969E-08  0.93827000000E+00  0.93827000000E+00 0.  1.
     999902    2    1    2    0    0  0.12214702455E-01  0.29308689928E-02  0.44005847725E-02  0.10306200753E+01  0.10305341263E+01 0.  0.
     999903    2    3    3    0    0  0.48234218929E-01  0.65339259027E-01 -0.10591034163E+00  0.14081070628E+00  0.44887591746E-01 0.  0.
         14    1    1    2    0    0 -0.12214702455E-01 -0.29308689928E-02 -0.44005847725E-02  0.13309924697E-01  0.00000000000E+00 0.  1.
     999901    1    3    3    0    0 -0.36019516474E-01 -0.62408390034E-01  0.11031092641E+00  0.88980936902E+00  0.88000000000E+00 0. -1.
        -11    1    4    4    0    0  0.53628951952E-01  0.43439687003E-01 -0.88956428978E-01  0.11259031163E+00  0.51100000000E-03 0.  1.
         11    1    4    4    0    0 -0.53947330230E-02  0.21899572024E-01 -0.16953912655E-01  0.28220394656E-01  0.51100000000E-03 0. -1.
</event>
<event>
 8    1  0.2959109E+004  0.1043930E+01  0.7957747E-01            NaN
         13   -1    0    0    0    0  0.00000000000E+00  0.00000000000E+00  0.74505805969E-08  0.10566000000E+00  0.10566000000E+00 0. -1.
     999900   -1    0    0    0    0 -0.00000000000E+00 -0.00000000000E+00 -0.74505805969E-08  0.93827000000E+00  0.93827000000E+00 0.  1.
     999902    2    1    2    0    0 -0.12595273552E-01 -0.64276930650E-02 -0.11147313109E-02  0.10297455444E+01  0.10296478463E+01 0.  0.
     999903    2    3    3    0    0  0.81112910360E-01 -0.84493267858E-01 -0.59698476895E-01  0.13940431044E+00  0.46381430377E-01 0.  0.
         14    1    1    2    0    0  0.12595273552E-01  0.64276930650E-02  0.11147313109E-02  0.14184455573E-01  0.00000000000E+00 0.  1.
     999901    1    3    3    0    0 -0.93708183913E-01  0.78065574793E-01  0.58583745584E-01  0.89034123399E+00  0.88000000000E+00 0. -1.
        -11    1    4    4    0    0  0.53047778878E-01 -0.46655054258E-01 -0.10739900528E-01  0.71458851908E-01  0.51100000000E-03 0.  1.
         11    1    4    4    0    0  0.28065131483E-01 -0.37838213600E-01 -0.48958576367E-01  0.67945458527E-01  0.51100000000E-03 0. -1.
</event>
<event>
 8    1  0.2959109E+004  0.1043930E+01  0.7957747E-01            NaN
         13   -1    0    0    0    0  0.00000000000E+00  0.00000000000E+00  0.74505805969E-08  0.10566000000E+00  0.10566000000E+00 0. -1.
     999900   -1    0    0    0    0 -0.00000000000E+00 -0.00000000000E+00 -0.74505805969E-08  0.93827000000E+00  0.93827000000E+00 0.  1.
     999902    2    1    2    0    0  0.64344921002E-02  0.75632674547E-02 -0.15326762257E-01  0.10256675975E+01  0.10255050001E+01 0.  0.
     999903    2    3    3    0    0 -0.93529850348E-01 -0.28907484871E-01  0.82086531879E-01  0.13392080867E+00  0.40163524401E-01 0.  0.
         14    1    1    2    0    0 -0.64344921002E-02 -0.75632674547E-02  0.15326762257E-01  0.18262402483E-01  0.00000000000E+00 0. -1.
     999901    1    3    3    0    0  0.99964342449E-01  0.36470752326E-01 -0.97413294136E-01  0.89174678884E+00  0.88000000000E+00 0.  1.
        -11    1    4    4    0    0 -0.19110986805E-01 -0.24021807587E-01  0.30212731106E-01  0.43073742562E-01  0.51100000000E-03 0. -1.
         11    1    4    4    0    0 -0.74418863543E-01 -0.48856772837E-02  0.51873800773E-01  0.90847066112E-01  0.51100000000E-03 0.  1.
</event>
<event>
 8    1  0.2959109E+004  0.1043930E+01  0.7957747E-01            NaN
         13   -1    0    0    0    0  0.00000000000E+00  0.00000000000E+00  0.74505805969E-08  0.10566000000E+00  0.10566000000E+00 0.  1.
     999900   -1    0    0    0    0 -0.00000000000E+00 -0.00000000000E+00 -0.74505805969E-08  0.93827000000E+00  0.93827000000E+00 0. -1.
     999902    2    1    2    0    0  0.12391221310E-01  0.21913324527E-02  0.53575077204E-02  0.10302534803E+01  0.10301626990E+01 0.  0.
     999903    2    3    3    0    0 -0.34459657970E-01 -0.59850888023E-01  0.11394352612E+00  0.14017754787E+00  0.43554804085E-01 0.  0.
         14    1    1    2    0    0 -0.12391221310E-01 -0.21913324527E-02 -0.53575077204E-02  0.13676519749E-01  0.00000000000E+00 0. -1.
     999901    1    3    3    0    0  0.46850879280E-01  0.62042220476E-01 -0.10858601840E+00  0.89007593238E+00  0.88000000000E+00 0. -1.
        -11    1    4    4    0    0 -0.19342322070E-02  0.32962233387E-02  0.29851241966E-01  0.30099237706E-01  0.51100000000E-03 0.  1.
         11    1    4    4    0    0 -0.32525425763E-01 -0.63147111362E-01  0.84092284150E-01  0.11007831017E+00  0.51100000000E-03 0. -1.
</event>
<event>
 8    1  0.2959109E+004  0.1043930E+01  0.7957747E-01            NaN
         13   -1    0    0    0    0  0.00000000000E+00  0.00000000000E+00  0.74505805969E-08  0.10566000000E+00  0.10566000000E+00 0.  1.
     999900   -1    0    0    0    0 -0.00000000000E+00 -0.00000000000E+00 -0.74505805969E-08  0.93827000000E+00  0.93827000000E+00 0.  1.
     999902    2    1    2    0    0 -0.11556728064E-01 -0.36258333371E-02  0.88491425405E-04  0.10318175080E+01  0.10317464114E+01 0.  0.
     999903    2    3    3    0    0  0.13093092544E+00  0.18559003242E-01  0.12766973712E-02  0.14007970452E+00  0.46188200062E-01 0.  0.
         14    1    1    2    0    0  0.11556728064E-01  0.36258333371E-02 -0.88491425405E-04  0.12112491968E-01  0.00000000000E+00 0.  1.
     999901    1    3    3    0    0 -0.14248765350E+00 -0.22184836580E-01 -0.11882059458E-02  0.89173780351E+00  0.88000000000E+00 0. -1.
        -11    1    4    4    0    0  0.97898388371E-01 -0.72258160437E-02  0.85267241347E-03  0.98169725651E-01  0.51100000000E-03 0.  1.
         11    1    4    4    0    0  0.33032537068E-01  0.25784819286E-01  0.42402495775E-03  0.41909978871E-01  0.51100000000E-03 0. -1.
</event>
<event>
 8    1  0.2959109E+004  0.1043930E+01  0.7957747E-01            NaN
         13   -1    0    0    0    0  0.00000000000E+00  0.00000000000E+00  0.74505805969E-08  0.10566000000E+00  0.10566000000E+00 0. -1.
     999900   -1    0    0    0    0 -0.00000000000E+00 -0.00000000000E+00 -0.74505805969E-08  0.93827000000E+00  0.93827000000E+00 0.  1.
     999902    2    1    2    0    0  0.12810588648E-01 -0.33736699066E-02 -0.12186017833E-02  0.10306266989E+01  0.10305408360E+01 0.  0.
     999903    2    3    3    0    0 -0.17262953820E-03  0.43350220659E-01  0.12541514155E+00  0.14024038338E+00  0.45377703429E-01 0.  0.
         14    1    1    2    0    0 -0.12810588648E-01  0.33736699066E-02  0.12186017833E-02  0.13303301111E-01  0.00000000000E+00 0.  1.
     999901    1    3    3    0    0  0.12983218186E-01 -0.46723890566E-01 -0.12663374333E+00  0.89038631551E+00  0.88000000000E+00 0.  1.
        -11    1    4    4    0    0  0.16248870369E-01  0.29002724684E-01  0.39651180617E-01  0.51746121330E-01  0.51100000000E-03 0.  1.
         11    1    4    4    0    0 -0.16421499907E-01  0.14347495975E-01  0.85763960928E-01  0.88494262046E-01  0.51100000000E-03 0. -1.
</event>
<event>
 8    1  0.2959109E+004  0.1043930E+01  0.7957747E-01            NaN
         13   -1    0    0    0    0  0.00000000000E+00  0.00000000000E+00  0.74505805969E-08  0.10566000000E+00  0.10566000000E+00 0.  1.
     999900   -1    0    0    0    0 -0.00000000000E+00 -0.00000000000E+00 -0.74505805969E-08  0.93827000000E+00  0.93827000000E+00 0.  1.
     999902    2    1    2    0    0 -0.12889345612E-01  0.17301109851E-02  0.32730473432E-02  0.10305195059E+01  0.10304322445E+01 0.  0.
     999903    2    3    3    0    0  0.11269708975E+00 -0.67314100823E-01 -0.44169950557E-03  0.13891821869E+00  0.45456068649E-01 0.  0.
         14    1    1    2    0    0  0.12889345612E-01 -0.17301109851E-02 -0.32730473432E-02  0.13410494146E-01  0.00000000000E+00 0. -1.
     999901    1    3    3    0    0 -0.12558643536E+00  0.69044211808E-01  0.37147468488E-02  0.89160128717E+00  0.88000000000E+00 0.  1.
        -11    1    4    4    0    0  0.24913126263E-01  0.33038360392E-02  0.67436446850E-02  0.26025315703E-01  0.51100000000E-03 0.  1.
         11    1    4    4    0    0  0.87783963488E-01 -0.70617936862E-01 -0.71853441906E-02  0.11289290299E+00  0.51100000000E-03 0. -1.
</event>
<event>
 8    1  0.2959109E+004  0.1043930E+01  0.7957747E-01            NaN
         13   -1    0    0    0    0  0.00000000000E+00  0.00000000000E+00  0.74505805969E-08  0.10566000000E+00  0.10566000000E+00 0. -1.
     999900   -1    0    0    0    0 -0.00000000000E+00 -0.00000000000E+00 -0.74505805969E-08  0.93827000000E+00  0.93827000000E+00 0. -1.
     999902    2    1    2    0    0 -0.69432259245E-02  0.11495673869E-01 -0.76479863681E-03  0.10304784640E+01  0.10303906642E+01 0.  0.
     999903    2    3    3    0    0 -0.11610217042E+00 -0.31678930193E-01 -0.57566760021E-01  0.14086833342E+00  0.45240323924E-01 0.  0.
         14    1    1    2    0    0  0.69432259245E-02 -0.11495673869E-01  0.76479863681E-03  0.13451536005E-01  0.00000000000E+00 0.  1.
     999901    1    3    3    0    0  0.10915894449E+00  0.43174604062E-01  0.56801961384E-01  0.88961013057E+00  0.88000000000E+00 0. -1.
        -11    1    4    4    0    0 -0.10735139166E+00 -0.14584209380E-01 -0.54957314679E-01  0.12148081335E+00  0.51100000000E-03 0. -1.
         11    1    4    4    0    0 -0.87507787518E-02 -0.17094720813E-01 -0.26094453414E-02  0.19387520069E-01  0.51100000000E-03 0.  1.
</event>
<event>
 8    1  0.2959109E+004  0.1043930E+01  0.7957747E-01            NaN
         13   -1    0    0    0    0  0.00000000000E+00  0.00000000000E+00  0.74505805969E-08  0.10566000000E+00  0.10566000000E+00 0. -1.
     999900   -1    0    0    0    0 -0.00000000000E+00 -0.00000000000E+00 -0.74505805969E-08  0.93827000000E+00  0.93827000000E+00 0. -1.
     999902    2    1    2    0    0 -0.71675701601E-02  0.79207266184E-02 -0.86893976237E-02  0.10301598292E+01  0.10300677920E+01 0.  0.
     999903    2    3    3    0    0  0.44845440777E-03  0.12899470304E+00 -0.37087719707E-01  0.14138349274E+00  0.44429253228E-01 0.  0.
         14    1    1    2    0    0  0.71675701601E-02 -0.79207266184E-02  0.86893976237E-02  0.13770170777E-01  0.00000000000E+00 0. -1.
     999901    1    3    3    0    0 -0.76160245679E-02 -0.12107397642E+00  0.28398322083E-01  0.88877633648E+00  0.88000000000E+00 0. -1.
        -11    1    4    4    0    0  0.15808780572E-01  0.11135625928E+00 -0.35463447034E-01  0.11793240106E+00  0.51100000000E-03 0. -1.
         11    1    4    4    0    0 -0.15360326164E-01  0.17638443764E-01 -0.16242726733E-02  0.23451091680E-01  0.51100000000E-03 0.  1.
</event>
<event>
 8    1  0.2959109E+004  0.1043930E+01  0.7957747E-01            NaN
         13   -1    0    0    0    0  0.00000000000E+00  0.00000000000E+00  0.74505805969E-08  0.10566000000E+00  0.10566000000E+00 0. -1.
     999900   -1    0    0    0    0 -0.00000000000E+00 -0.00000000000E+00 -0.74505805969E-08  0.93827000000E+00  0.93827000000E+00 0. -1.
     999902    2    1    2    0    0 -0.63470357545E-02  0.75885224188E-02  0.10681374253E-01  0.10293710752E+01  0.10292681129E+01 0.  0.
     999903    2    3    3    0    0 -0.29817934264E-01  0.86545686951E-01  0.97628763369E-01  0.14125792623E+00  0.45201340147E-01 0.  0.
         14    1    1    2    0    0  0.63470357545E-02 -0.75885224188E-02 -0.10681374253E-01  0.14558924799E-01  0.00000000000E+00 0.  1.
     999901    1    3    3    0    0  0.23470898510E-01 -0.78957164532E-01 -0.86947389116E-01  0.88811314897E+00  0.88000000000E+00 0. -1.
        -11    1    4    4    0    0 -0.19625996894E-01  0.27681554631E-01  0.64654427105E-01  0.73019889661E-01  0.51100000000E-03 0.  1.
         11    1    4    4    0    0 -0.10191937371E-01  0.58864132320E-01  0.32974336264E-01  0.68238036565E-01  0.51100000000E-03 0. -1.
</event>
<event>
 8    1  0.2959109E+004  0.1043930E+01  0.7957747E-01            NaN
         13   -1    0    0    0    0  0.00000000000E+00  0.00000000000E+00  0.74505805969E-08  0.10566000000E+00  0.10566000000E+00 0. -1.
     999900   -1    0    0    0    0 -0.00000000000E+00 -0.00000000000E+00 -0.74505805969E-08  0.93827000000E+00  0.93827000000E+00 0.  1.
     999902    2    1    2    0    0  0.28339475464E-02  0.13315813554E-01  0.25281571709E-02  0.10300832051E+01  0.10299901338E+01 0.  0.
     999903    2    3    3    0    0 -0.11067247944E+00 -0.22167123186E-01  0.68909836458E-01  0.13960621211E+00  0.44738683961E-01 0.  0.
         14    1    1    2    0    0 -0.28339475464E-02 -0.13315813554E-01 -0.25281571709E-02  0.13846794863E-01  0.00000000000E+00 0. -1.
     999901    1    3    3    0    0  0.11350642699E+00  0.35482936740E-01 -0.66381679287E-01  0.89047699303E+00  0.88000000000E+00 0.  1.
        -11    1    4    4    0    0 -0.83862118038E-02 -0.12845507776E-01  0.21661837113E-01  0.26548670900E-01  0.51100000000E-03 0.  1.
         11    1    4    4    0    0 -0.10228626764E+00 -0.93216154102E-02  0.47247999345E-01  0.11305754121E+00  0.51100000000E-03 0. -1.
</event>
<event>
 8    1  0.2959109E+004  0.1043930E+01  0.7957747E-01            NaN
         13   -1    0    0    0    0  0.00000000000E+00  0.00000000000E+00  0.74505805969E-08  0.10566000000E+00  0.10566000000E+00 0. -1.
     999900   -1    0    0    0    0 -0.00000000000E+00 -0.00000000000E+00 -0.74505805969E-08  0.93827000000E+00  0.93827000000E+00 0.  1.
     999902    2    1    2    0    0 -0.12632011189E-01 -0.13184186415E-02 -0.43555683538E-02  0.10305032763E+01  0.10304158022E+01 0.  0.
     999903    2    3    3    0    0  0.11136902978E+00  0.67265662963E-01  0.18697012626E-01  0.13886912714E+00  0.44803191658E-01 0.  0.
         14    1    1    2    0    0  0.12632011189E-01  0.13184186415E-02  0.43555683538E-02  0.13426723728E-01  0.00000000000E+00 0. -1.
     999901    1    3    3    0    0 -0.12400104097E+00 -0.68584081605E-01 -0.23052580980E-01  0.89163414913E+00  0.88000000000E+00 0.  1.
        -11    1    4    4    0    0  0.50255085606E-01  0.42931798729E-01 -0.10449187381E-01  0.66919052663E-01  0.51100000000E-03 0.  1.
         11    1    4    4    0    0  0.61113944175E-01  0.24333864234E-01  0.29146200007E-01  0.71950074475E-01  0.51100000000E-03 0. -1.
</event>
<event>
 8    1  0.2959109E+004  0.1043930E+01  0.7957747E-01            NaN
         13   -1    0    0    0    0  0.00000000000E+00  0.00000000000E+00  0.74505805969E-08  0.10566000000E+00  0.10566000000E+00 0. -1.
     999900   -1    0    0    0    0 -0.00000000000E+00 -0.00000000000E+00 -0.74505805969E-08  0.93827000000E+00  0.93827000000E+00 0. -1.
     999902    2    1    2    0    0 -0.12330531429E-01 -0.37410986017E-02 -0.26981306253E-02  0.10307649807E+01  0.10306809049E+01 0.  0.
     999903    2    3    3    0    0 -0.51635969820E-01 -0.64277124740E-01  0.10669863722E+00  0.14105874786E+00  0.41414357662E-01 0.  0.
         14    1    1    2    0    0  0.12330531429E-01  0.37410986017E-02  0.26981306253E-02  0.13165019291E-01  0.00000000000E+00 0. -1.
     999901    1    3    3    0    0  0.39305438391E-01  0.60536026139E-01 -0.10939676784E+00  0.88970623284E+00  0.88000000000E+00 0.  1.
        -11    1    4    4    0    0 -0.12007959054E-01  0.32984988275E-02  0.24621155572E-01  0.27595898207E-01  0.51100000000E-03 0.  1.
         11    1    4    4    0    0 -0.39628010766E-01 -0.67575623568E-01  0.82077481646E-01  0.11346284966E+00  0.51100000000E-03 0. -1.
</event>
<event>
 8    1  0.2959109E+004  0.1043930E+01  0.7957747E-01            NaN
         13   -1    0    0    0    0  0.00000000000E+00  0.00000000000E+00  0.74505805969E-08  0.10566000000E+00  0.10566000000E+00 0.  1.
     999900   -1    0    0    0    0 -0.00000000000E+00 -0.00000000000E+00 -0.74505805969E-08  0.93827000000E+00  0.93827000000E+00 0. -1.
     999902    2    1    2    0    0 -0.75974233995E-02 -0.41732988269E-02  0.10785941556E-01  0.10300925942E+01  0.10299996499E+01 0.  0.
     999903    2    3    3    0    0  0.11683276873E+00  0.36916917940E-01  0.32495403289E-01  0.14012485352E+00  0.59718243949E-01 0.  0.
         14    1    1    2    0    0  0.75974233995E-02  0.41732988269E-02 -0.10785941556E-01  0.13837405850E-01  0.00000000000E+00 0. -1.
     999901    1    3    3    0    0 -0.12443019213E+00 -0.41090216767E-01 -0.21709461733E-01  0.88996774063E+00  0.88000000000E+00 0.  1.
        -11    1    4    4    0    0  0.70976002996E-01  0.30203283389E-01  0.48469421707E-01  0.91100918165E-01  0.51100000000E-03 0.  1.
         11    1    4    4    0    0  0.45856765735E-01  0.67136345510E-02 -0.15974018419E-01  0.49023935359E-01  0.51100000000E-03 0. -1.
</event>
<event>
 8    1  0.2959109E+004  0.1043930E+01  0.7957747E-01            NaN
         13   -1    0    0    0    0  0.00000000000E+00  0.00000000000E+00  0.74505805969E-08  0.10566000000E+00  0.10566000000E+00 0.  1.
     999900   -1    0    0    0    0 -0.00000000000E+00 -0.00000000000E+00 -0.74505805969E-08  0.93827000000E+00  0.93827000000E+00 0. -1.
     999902    2    1    2    0    0 -0.57983654162E-02 -0.33443163474E-02 -0.11045556048E-01  0.10310145131E+01  0.10309336140E+01 0.  0.
     999903    2    3    3    0    0  0.91117647990E-01 -0.96430753181E-01 -0.16734463739E-01  0.14079534793E+00  0.44067808971E-01 0.  0.
         14    1    1    2    0    0  0.57983654162E-02  0.33443163474E-02  0.11045556048E-01  0.12915486895E-01  0.00000000000E+00 0.  1.
     999901    1    3    3    0    0 -0.96916013406E-01  0.93086436834E-01  0.56889076916E-02  0.89021916518E+00  0.88000000000E+00 0.  1.
        -11    1    4    4    0    0  0.25337185636E-01 -0.37053180623E-01  0.13962458709E-01  0.47011940446E-01  0.51100000000E-03 0.  1.
         11    1    4    4    0    0  0.65780462353E-01 -0.59377572558E-01 -0.30696922449E-01  0.93783407483E-01  0.51100000000E-03 0. -1.
</event>
<event>
 8    1  0.2959109E+004  0.1043930E+01  0.7957747E-01            NaN
         13   -1    0    0    0    0  0.00000000000E+00  0.00000000000E+00  0.74505805969E-08  0.10566000000E+00  0.10566000000E+00 0.  1.
     999900   -1    0    0    0    0 -0.00000000000E+00 -0.00000000000E+00 -0.74505805969E-08  0.93827000000E+00  0.93827000000E+00 0.  1.
     999902    2    1    2    0    0  0.17072546875E-02 -0.60016538811E-02  0.12943928668E-01  0.10295605930E+01  0.10294603124E+01 0.  0.
     999903    2    3    3    0    0 -0.51834592657E-01  0.96042414358E-01 -0.71374496447E-01  0.13805102038E+00  0.45307782255E-01 0.  0.
         14    1    1    2    0    0 -0.17072546875E-02  0.60016538811E-02 -0.12943928668E-01  0.14369406990E-01  0.00000000000E+00 0. -1.
     999901    1    3    3    0    0  0.53541847345E-01 -0.10204406824E+00  0.84318425115E-01  0.89150957263E+00  0.88000000000E+00 0. -1.
        -11    1    4    4    0    0 -0.38976467178E-01  0.42349574709E-01 -0.15744650481E-01  0.59672494597E-01  0.51100000000E-03 0. -1.
         11    1    4    4    0    0 -0.12858125479E-01  0.53692839649E-01 -0.55629845966E-01  0.78378525781E-01  0.51100000000E-03 0.  1.
</event>
<event>
 8    1  0.2959109E+004  0.1043930E+01  0.7957747E-01            NaN
         13   -1    0    0    0    0  0.00000000000E+00  0.00000000000E+00  0.74505805969E-08  0.10566000000E+00  0.10566000000E+00 0. -1.
     999900   -1    0    0    0    0 -0.00000000000E+00 -0.00000000000E+00 -0.74505805969E-08  0.93827000000E+00  0.93827000000E+00 0.  1.
     999902    2    1    2    0    0 -0.42232377843E-02  0.85576515415E-02 -0.78382907998E-02  0.10315805895E+01  0.10315066673E+01 0.  0.
     999903    2    3    3    0    0 -0.12123640493E+00 -0.53253198898E-01  0.19148968896E-01  0.14127672299E+00  0.45368054562E-01 0.  0.
         14    1    1    2    0    0  0.42232377843E-02 -0.85576515415E-02  0.78382907998E-02  0.12349410510E-01  0.00000000000E+00 0. -1.
     999901    1    3    3    0    0  0.11701316715E+00  0.61810850440E-01 -0.26987259696E-01  0.89030386650E+00  0.88000000000E+00 0.  1.
        -11    1    4    4    0    0 -0.59653332835E-01 -0.65423620583E-02 -0.51960852262E-02  0.60237721092E-01  0.51100000000E-03 0. -1.
         11    1    4    4    0    0 -0.61583072099E-01 -0.46710836840E-01  0.24345054122E-01  0.81039001898E-01  0.51100000000E-03 0.  1.
</event>
<event>
 8    1  0.2959109E+004  0.1043930E+01  0.7957747E-01            NaN
         13   -1    0    0    0    0  0.00000000000E+00  0.00000000000E+00  0.74505805969E-08  0.10566000000E+00  0.10566000000E+00 0. -1.
     999900   -1    0    0    0    0 -0.00000000000E+00 -0.00000000000E+00 -0.74505805969E-08  0.93827000000E+00  0.93827000000E+00 0.  1.
     999902    2    1    2    0    0  0.24431111656E-02  0.92426503970E-02 -0.91346959259E-02  0.10307073661E+01  0.10306225480E+01 0.  0.
     999903    2    3    3    0    0  0.12673382719E+00 -0.39364421844E-02 -0.40611281967E-01  0.14131844886E+00  0.47377940372E-01 0.  0.
         14    1    1    2    0    0 -0.24431111656E-02 -0.92426503970E-02  0.91346959259E-02  0.13222633935E-01  0.00000000000E+00 0. -1.
     999901    1    3    3    0    0 -0.12429071603E+00  0.13179092581E-01  0.31476586041E-01  0.88938891720E+00  0.88000000000E+00 0.  1.
        -11    1    4    4    0    0  0.44148715536E-01  0.16779195700E-01 -0.28897591739E-01  0.55371314064E-01  0.51100000000E-03 0.  1.
         11    1    4    4    0    0  0.82585111658E-01 -0.20715637885E-01 -0.11713690228E-01  0.85947134799E-01  0.51100000000E-03 0. -1.
</event>
<event>
 8    1  0.2959109E+004  0.1043930E+01  0.7957747E-01            NaN
         13   -1    0    0    0    0  0.00000000000E+00  0.00000000000E+00  0.74505805969E-08  0.10566000000E+00  0.10566000000E+00 0.  1.
     999900   -1    0    0    0    0 -0.00000000000E+00 -0.00000000000E+00 -0.74505805969E-08  0.93827000000E+00  0.93827000000E+00 0.  1.
     999902    2    1    2    0    0  0.10497243209E-01 -0.22098652968E-02  0.75314292753E-02  0.10308228246E+01  0.10307394907E+01 0.  0.
     999903    2    3    3    0    0 -0.60551034394E-01  0.11128269980E+00 -0.37369510552E-01  0.13956275344E+00  0.45066781420E-01 0.  0.
         14    1    1    2    0    0 -0.10497243209E-01  0.22098652968E-02 -0.75314292753E-02  0.13107175384E-01  0.00000000000E+00 0. -1.
     999901    1    3    3    0    0  0.71048277602E-01 -0.11349256509E+00  0.44900939827E-01  0.89126007118E+00  0.88000000000E+00 0.  1.
        -11    1    4    4    0    0 -0.43725146658E-01  0.52314011095E-01 -0.85031880206E-03  0.68188183508E-01  0.51100000000E-03 0.  1.
         11    1    4    4    0    0 -0.16825887736E-01  0.58968688703E-01 -0.36519191750E-01  0.71374569929E-01  0.51100000000E-03 0. -1.
</event>
<event>
 8    1  0.2959109E+004  0.1043930E+01  0.7957747E-01            NaN
         13   -1    0    0    0    0  0.00000000000E+00  0.00000000000E+00  0.74505805969E-08  0.10566000000E+00  0.10566000000E+00 0. -1.
     999900   -1    0    0    0    0 -0.00000000000E+00 -0.00000000000E+00 -0.74505805969E-08  0.93827000000E+00  0.93827000000E+00 0.  1.
     999902    2    1    2    0    0  0.64496161290E-03 -0.12788506727E-01 -0.68602514701E-02  0.10294033029E+01  0.10293007991E+01 0.  0.
     999903    2    3    3    0    0  0.13937782510E-01  0.10706827546E+00 -0.74274886427E-01  0.13862438509E+00  0.45189423504E-01 0.  0.
         14    1    1    2    0    0 -0.64496161290E-03  0.12788506727E-01  0.68602514701E-02  0.14526697148E-01  0.00000000000E+00 0. -1.
     999901    1    3    3    0    0 -0.13292820897E-01 -0.11985678219E+00  0.67414634957E-01  0.89077891776E+00  0.88000000000E+00 0. -1.
        -11    1    4    4    0    0  0.27557048031E-01  0.45342206951E-01 -0.26019534471E-01  0.59098087299E-01  0.51100000000E-03 0.  1.
         11    1    4    4    0    0 -0.13619265521E-01  0.61726068509E-01 -0.48255351956E-01  0.79526297790E-01  0.51100000000E-03 0. -1.
</event>
<event>
 8    1  0.2959109E+004  0.1043930E+01  0.7957747E-01            NaN
         13   -1    0    0    0    0  0.00000000000E+00  0.00000000000E+00  0.74505805969E-08  0.10566000000E+00  0.10566000000E+00 0. -1.
     999900   -1    0    0    0    0 -0.00000000000E+00 -0.00000000000E+00 -0.74505805969E-08  0.93827000000E+00  0.93827000000E+00 0. -1.
     999902    2    1    2    0    0 -0.77791853028E-02  0.13952494260E-01 -0.13030439109E-02  0.10279023444E+01  0.10277773805E+01 0.  0.
     999903    2    3    3    0    0 -0.23406745218E-01 -0.12440515399E+00 -0.25420585851E-01  0.13662869660E+00  0.44684186120E-01 0.  0.
         14    1    1    2    0    0  0.77791853028E-02 -0.13952494260E-01  0.13030439109E-02  0.16027655583E-01  0.00000000000E+00 0. -1.
     999901    1    3    3    0    0  0.15627559916E-01  0.13835764825E+00  0.24117541940E-01  0.89127364781E+00  0.88000000000E+00 0. -1.
        -11    1    4    4    0    0  0.74771594834E-02 -0.53100546584E-01 -0.24394597126E-01  0.58914628501E-01  0.51100000000E-03 0.  1.
         11    1    4    4    0    0 -0.30883904702E-01 -0.71304607407E-01 -0.10259887249E-02  0.77714068102E-01  0.51100000000E-03 0. -1.
</event>
<event>
 8    1  0.2959109E+004  0.1043930E+01  0.7957747E-01            NaN
         13   -1    0    0    0    0  0.00000000000E+00  0.00000000000E+00  0.74505805969E-08  0.10566000000E+00  0.10566000000E+00 0. -1.
     999900   -1    0    0    0    0 -0.00000000000E+00 -0.00000000000E+00 -0.74505805969E-08  0.93827000000E+00  0.93827000000E+00 0. -1.
     999902    2    1    2    0    0  0.15054385738E-02 -0.77722163940E-02 -0.12764586991E-01  0.10289097346E+01  0.10288000940E+01 0.  0.
     999903    2    3    3    0    0  0.78295797647E-01 -0.85390568357E-01  0.60140266586E-01  0.13917017408E+00  0.48267013513E-01 0.  0.
         14    1    1    2    0    0 -0.15054385738E-02  0.77722163940E-02  0.12764586991E-01  0.15020265445E-01  0.00000000000E+00 0. -1.
     999901    1    3    3    0    0 -0.76790359074E-01  0.77618351963E-01 -0.72904853577E-01  0.88973956048E+00  0.88000000000E+00 0. -1.
        -11    1    4    4    0    0  0.49684384763E-01 -0.74556847751E-01  0.61284036858E-01  0.10855070672E+00  0.51100000000E-03 0. -1.
         11    1    4    4    0    0  0.28611412884E-01 -0.10833720607E-01 -0.11437702715E-02  0.30619467351E-01  0.51100000000E-03 0.  1.
</event>
<event>
 8    1  0.2959109E+004  0.1043930E+01  0.7957747E-01            NaN
         13   -1    0    0    0    0  0.00000000000E+00  0.00000000000E+00  0.74505805969E-08  0.10566000000E+00  0.10566000000E+00 0.  1.
     999900   -1    0    0    0    0 -0.00000000000E+00 -0.00000000000E+00 -0.74505805969E-08  0.93827000000E+00  0.93827000000E+00 0. -1.
     999902    2    1    2    0    0  0.87091037717E-03 -0.20056974392E-01  0.14731093232E-01  0.10190292808E+01  0.10187250019E+01 0.  0.
     999903    2    3    3    0    0 -0.61757246462E-01 -0.10784250674E+00  0.47207942709E-02  0.13239023828E+00  0.45397417800E-01 0.  0.
         14    1    1    2    0    0 -0.87091037717E-03  0.20056974392E-01 -0.14731093232E-01  0.24900719155E-01  0.00000000000E+00 0. -1.
     999901    1    3    3    0    0  0.62628156839E-01  0.87785532345E-01  0.10010298961E-01  0.88663904257E+00  0.88000000000E+00 0. -1.
        -11    1    4    4    0    0 -0.64452043017E-01 -0.78377319179E-01  0.11214491471E-01  0.10209356469E+00  0.51100000000E-03 0.  1.
         11    1    4    4    0    0  0.26947965552E-02 -0.29465187558E-01 -0.64936972001E-02  0.30296673590E-01  0.51100000000E-03 0. -1.
</event>
<event>
 8    1  0.2959109E+004  0.1043930E+01  0.7957747E-01            NaN
         13   -1    0    0    0    0  0.00000000000E+00  0.00000000000E+00  0.74505805969E-08  0.10566000000E+00  0.10566000000E+00 0. -1.
     999900   -1    0    0    0    0 -0.00000000000E+00 -0.00000000000E+00 -0.74505805969E-08  0.93827000000E+00  0.93827000000E+00 0. -1.
     999902    2    1    2    0    0  0.13113935780E-01  0.45008851121E-02 -0.17782202243E-02  0.10299516115E+01  0.10298567505E+01 0.  0.
     999903    2    3    3    0    0  0.74391188008E-02  0.96461076920E-01 -0.91631632490E-01  0.14059087695E+00  0.44825871551E-01 0.  0.
         14    1    1    2    0    0 -0.13113935780E-01 -0.45008851121E-02  0.17782202243E-02  0.13978388519E-01  0.00000000000E+00 0. -1.
     999901    1    3    3    0    0  0.56748169789E-02 -0.91960191808E-01  0.89853412266E-01  0.88936073453E+00  0.88000000000E+00 0.  1.
        -11    1    4    4    0    0 -0.75501730388E-02  0.75802544549E-01 -0.85147791266E-01  0.11425164485E+00  0.51100000000E-03 0. -1.
         11    1    4    4    0    0  0.14989291840E-01  0.20658532371E-01 -0.64838412238E-02  0.26339232099E-01  0.51100000000E-03 0.  1.
</event>
<event>
 8    1  0.2959109E+004  0.1043930E+01  0.7957747E-01            NaN
         13   -1    0    0    0    0  0.00000000000E+00  0.00000000000E+00  0.74505805969E-08  0.10566000000E+00  0.10566000000E+00 0.  1.
     999900   -1    0    0    0    0 -0.00000000000E+00 -0.00000000000E+00 -0.74505805969E-08  0.93827000000E+00  0.93827000000E+00 0.  1.
     999902    2    1    2    0    0 -0.75174400306E-04  0.41814431807E-02  0.13383394199E-01  0.10299083967E+01  0.10298129443E+01 0.  0.
     999903    2    3    3    0    0  0.10470852082E+00  0.80191344645E-01 -0.14138026503E-01  0.14001258456E+00  0.44823140827E-01 0.  0.
         14    1    1    2    0    0  0.75174400306E-04 -0.41814431807E-02 -0.13383394199E-01  0.14021603280E-01  0.00000000000E+00 0. -1.
     999901    1    3    3    0    0 -0.10478369522E+00 -0.76009901465E-01  0.27521420701E-01  0.88989581216E+00  0.88000000000E+00 0. -1.
        -11    1    4    4    0    0  0.55442381919E-01  0.16260466062E-01 -0.13320709132E-01  0.59295555332E-01  0.51100000000E-03 0. -1.
         11    1    4    4    0    0  0.49266138900E-01  0.63930878584E-01 -0.81731737031E-03  0.80717029227E-01  0.51100000000E-03 0.  1.
</event>
<event>
 8    1  0.2959109E+004  0.1043930E+01  0.7957747E-01            NaN
         13   -1    0    0    0    0  0.00000000000E+00  0.00000000000E+00  0.74505805969E-08  0.10566000000E+00  0.10566000000E+00 0. -1.
     999900   -1    0    0    0    0 -0.00000000000E+00 -0.00000000000E+00 -0.74505805969E-08  0.93827000000E+00  0.93827000000E+00 0. -1.
     999902    2    1    2    0    0  0.10503868102E-01  0.10818999281E-01 -0.10942042756E-03  0.10288504124E+01  0.10287398977E+01 0.  0.
     999903    2    3    3    0    0 -0.11176351005E-01 -0.98220455900E-01  0.86656959280E-01  0.13762202450E+00  0.40721299783E-01 0.  0.
         14    1    1    2    0    0 -0.10503868102E-01 -0.10818999281E-01  0.10942042756E-03  0.15079587639E-01  0.00000000000E+00 0. -1.
     999901    1    3    3    0    0  0.21680219108E-01  0.10903945518E+00 -0.86766379708E-01  0.89122838786E+00  0.88000000000E+00 0. -1.
        -11    1    4    4    0    0  0.51911862418E-02 -0.53281505547E-01  0.67367030451E-01  0.86049085764E-01  0.51100000000E-03 0. -1.
         11    1    4    4    0    0 -0.16367537247E-01 -0.44938950353E-01  0.19289928829E-01  0.51572938733E-01  0.51100000000E-03 0.  1.
</event>
<event>
 8    1  0.2959109E+004  0.1043930E+01  0.7957747E-01            NaN
         13   -1    0    0    0    0  0.00000000000E+00  0.00000000000E+00  0.74505805969E-08  0.10566000000E+00  0.10566000000E+00 0. -1.
     999900   -1    0    0    0    0 -0.00000000000E+00 -0.00000000000E+00 -0.74505805969E-08  0.93827000000E+00  0.93827000000E+00 0. -1.
     999902    2    1    2    0    0 -0.34281683675E-02 -0.20581107899E-02  0.12023327443E-01  0.10312592241E+01  0.10311813802E+01 0.  0.
     999903    2    3    3    0    0 -0.62967763263E-01 -0.80373639456E-01  0.88690451971E-01  0.14246445965E+00  0.44780183803E-01 0.  0.
         14    1    1    2    0    0  0.34281683675E-02  0.20581107899E-02 -0.12023327443E-01  0.12670775871E-01  0.00000000000E+00 0.  1.
     999901    1    3    3    0    0  0.59539594895E-01  0.78315528666E-01 -0.76667124529E-01  0.88879476448E+00  0.88000000000E+00 0. -1.
        -11    1    4    4    0    0 -0.63494386842E-02 -0.33865793279E-01  0.12236126111E-01  0.36567625425E-01  0.51100000000E-03 0.  1.
         11    1    4    4    0    0 -0.56618324579E-01 -0.46507846177E-01  0.76454325860E-01  0.10589683422E+00  0.51100000000E-03 0. -1.
</event>
<event>
 8    1  0.2959109E+004  0.1043930E+01  0.7957747E-01            NaN
         13   -1    0    0    0    0  0.00000000000E+00  0.00000000000E+00  0.74505805969E-08  0.10566000000E+00  0.10566000000E+00 0.  1.
     999900   -1    0    0    0    0 -0.00000000000E+00 -0.00000000000E+00 -0.74505805969E-08  0.93827000000E+00  0.93827000000E+00 0.  1.
     999902    2    1    2    0    0  0.30078277021E-02  0.12646409965E-01 -0.46093566408E-02  0.10301377964E+01  0.10300454624E+01 0.  0.
     999903    2    3    3    0    0  0.41580667789E-01  0.71134322291E-01 -0.10584458065E+00  0.14156744436E+00  0.45268336709E-01 0.  0.
         14    1    1    2    0    0 -0.30078277021E-02 -0.12646409965E-01  0.46093566408E-02  0.13792203636E-01  0.00000000000E+00 0.  1.
     999901    1    3    3    0    0 -0.38572840087E-01 -0.58487912326E-01  0.10123522401E+00  0.88857035200E+00  0.88000000000E+00 0. -1.
        -11    1    4    4    0    0 -0.97917210985E-03  0.21207538960E-01 -0.53750214718E-01  0.57793297103E-01  0.51100000000E-03 0.  1.
         11    1    4    4    0    0  0.42559839899E-01  0.49926783331E-01 -0.52094365930E-01  0.83774147257E-01  0.51100000000E-03 0. -1.
</event>
<event>
 8    1  0.2959109E+004  0.1043930E+01  0.7957747E-01            NaN
         13   -1    0    0    0    0  0.00000000000E+00  0.00000000000E+00  0.74505805969E-08  0.10566000000E+00  0.10566000000E+00 0. -1.
     999900   -1    0    0    0    0 -0.00000000000E+00 -0.00000000000E+00 -0.74505805969E-08  0.93827000000E+00  0.93827000000E+00 0.  1.
     999902    2    1    2    0    0  0.12463429067E-01 -0.37809147489E-02 -0.44901292029E-02  0.10301534387E+01  0.10300613155E+01 0.  0.
     999903    2    3    3    0    0 -0.10046689905E+00 -0.12438748940E-01  0.84342390185E-01  0.13845874119E+00  0.42530741238E-01 0.  0.
         14    1    1    2    0    0 -0.12463429067E-01  0.37809147489E-02  0.44901292029E-02  0.13776561280E-01  0.00000000000E+00 0. -1.
     999901    1    3    3    0    0  0.11293032812E+00  0.86578341907E-02 -0.88832519388E-01  0.89169469753E+00  0.88000000000E+00 0. -1.
        -11    1    4    4    0    0 -0.18350406435E-01 -0.20128468606E-01  0.23333449575E-01  0.35869257796E-01  0.51100000000E-03 0.  1.
         11    1    4    4    0    0 -0.82116492615E-01  0.76897196668E-02  0.61008940609E-01  0.10258948339E+00  0.51100000000E-03 0. -1.
</event>
<event>
 8    1  0.2959109E+004  0.1043930E+01  0.7957747E-01            NaN
         13   -1    0    0    0    0  0.00000000000E+00  0.00000000000E+00  0.74505805969E-08  0.10566000000E+00  0.10566000000E+00 0. -1.
     999900   -1    0    0    0    0 -0.00000000000E+00 -0.00000000000E+00 -0.74505805969E-08  0.93827000000E+00  0.93827000000E+00 0. -1.
     999902    2    1    2    0    0 -0.29530101358E-03 -0.14017843458E-01  0.12751706582E-02  0.10298511791E+01  0.10297549407E+01 0.  0.
     999903    2    3    3    0    0 -0.99984555860E-01  0.59925117298E-01  0.61296792832E-01  0.13911659230E+00  0.44812926136E-01 0.  0.
         14    1    1    2    0    0  0.29530101358E-03  0.14017843458E-01 -0.12751706582E-02  0.14078820906E-01  0.00000000000E+00 0.  1.
     999901    1    3    3    0    0  0.99689254846E-01 -0.73942960756E-01 -0.60021622173E-01  0.89073458679E+00  0.88000000000E+00 0. -1.
        -11    1    4    4    0    0 -0.81681905883E-01  0.55863871822E-01  0.31395432848E-01  0.10382023044E+00  0.51100000000E-03 0.  1.
         11    1    4    4    0    0 -0.18302649977E-01  0.40612454765E-02  0.29901359984E-01  0.35296361865E-01  0.51100000000E-03 0. -1.
</event>
<event>
 8    1  0.2959109E+004  0.1043930E+01  0.7957747E-01            NaN
         13   -1    0    0    0    0  0.00000000000E+00  0.00000000000E+00  0.74505805969E-08  0.10566000000E+00  0.10566000000E+00 0.  1.
     999900   -1    0    0    0    0 -0.00000000000E+00 -0.00000000000E+00 -0.74505805969E-08  0.93827000000E+00  0.93827000000E+00 0. -1.
     999902    2    1    2    0    0  0.12920796049E-01  0.46387449698E-02  0.11861115034E-02  0.10301506028E+01  0.10300584414E+01 0.  0.
     999903    2    3    3    0    0  0.12740334661E+00 -0.41736078066E-01  0.52515332561E-02  0.14151490344E+00  0.45004181524E-01 0.  0.
         14    1    1    2    0    0 -0.12920796049E-01 -0.46387449698E-02 -0.11861115034E-02  0.13779397154E-01  0.00000000000E+00 0. -1.
     999901    1    3    3    0    0 -0.11448255057E+00  0.46374823036E-01 -0.40654217528E-02  0.88863569940E+00  0.88000000000E+00 0.  1.
        -11    1    4    4    0    0  0.10776706717E+00 -0.26508286492E-01 -0.11451135942E-01  0.11156979724E+00  0.51100000000E-03 0.  1.
         11    1    4    4    0    0  0.19636279440E-01 -0.15227791574E-01  0.16702669199E-01  0.29945106208E-01  0.51100000000E-03 0. -1.
</event>
<event>
 8    1  0.2959109E+004  0.1043930E+01  0.7957747E-01            NaN
         13   -1    0    0    0    0  0.00000000000E+00  0.00000000000E+00  0.74505805969E-08  0.10566000000E+00  0.10566000000E+00 0.  1.
     999900   -1    0    0    0    0 -0.00000000000E+00 -0.00000000000E+00 -0.74505805969E-08  0.93827000000E+00  0.93827000000E+00 0. -1.
     999902    2    1    2    0    0 -0.13253020445E-01  0.41609774231E-02 -0.22112409384E-02  0.10298642305E+01  0.10297681717E+01 0.  0.
     999903    2    3    3    0    0 -0.36779376869E-01 -0.12632440171E+00 -0.14290294574E-01  0.13984972102E+00  0.45201271222E-01 0.  0.
         14    1    1    2    0    0  0.13253020445E-01 -0.41609774231E-02  0.22112409384E-02  0.14065769461E-01  0.00000000000E+00 0. -1.
     999901    1    3    3    0    0  0.23526356423E-01  0.13048537913E+00  0.12079053636E-01  0.89001450952E+00  0.88000000000E+00 0. -1.
        -11    1    4    4    0    0 -0.11539666767E-01 -0.90078668129E-01 -0.25403591437E-01  0.94302353840E-01  0.51100000000E-03 0.  1.
         11    1    4    4    0    0 -0.25239710102E-01 -0.36245733583E-01  0.11113296863E-01  0.45547367181E-01  0.51100000000E-03 0. -1.
</event>
<event>
 8    1  0.2959109E+004  0.1043930E+01  0.7957747E-01            NaN
         13   -1    0    0    0    0  0.00000000000E+00  0.00000000000E+00  0.74505805969E-08  0.10566000000E+00  0.10566000000E+00 0. -1.
     999900   -1    0    0    0    0 -0.00000000000E+00 -0.00000000000E+00 -0.74505805969E-08  0.93827000000E+00  0.93827000000E+00 0. -1.
     999902    2    1    2    0    0 -0.69164422208E-02 -0.68296138684E-02  0.10685394272E-01  0.10294849853E+01  0.10293836391E+01 0.  0.
     999903    2    3    3    0    0  0.78490677996E-01  0.29833511495E-01  0.10228795663E+00  0.13986169966E+00  0.45250900774E-01 0.  0.
         14    1    1    2    0    0  0.69164422208E-02  0.68296138684E-02 -0.10685394272E-01  0.14445014688E-01  0.00000000000E+00 0.  1.
     999901    1    3    3    0    0 -0.85407120217E-01 -0.36663125363E-01 -0.91602562354E-01  0.88962328565E+00  0.88000000000E+00 0. -1.
        -11    1    4    4    0    0  0.63383435142E-01  0.14125098569E-01  0.46232156469E-01  0.79716069100E-01  0.51100000000E-03 0.  1.
         11    1    4    4    0    0  0.15107242854E-01  0.15708412926E-01  0.56055800156E-01  0.60145630560E-01  0.51100000000E-03 0. -1.
</event>
<event>
 8    1  0.2959109E+004  0.1043930E+01  0.7957747E-01            NaN
         13   -1    0    0    0    0  0.00000000000E+00  0.00000000000E+00  0.74505805969E-08  0.10566000000E+00  0.10566000000E+00 0.  1.
     999900   -1    0    0    0    0 -0.00000000000E+00 -0.00000000000E+00 -0.74505805969E-08  0.93827000000E+00  0.93827000000E+00 0. -1.
     999902    2    1    2    0    0  0.29119648066E-02 -0.72112209404E-02 -0.11365938868E-01  0.10301580788E+01  0.10300660181E+01 0.  0.
     999903    2    3    3    0    0 -0.83391573084E-02 -0.88534520296E-01  0.97737980643E-01  0.13962805012E+00  0.45115149255E-01 0.  0.
         14    1    1    2    0    0 -0.29119648066E-02  0.72112209404E-02  0.11365938868E-01  0.13771921175E-01  0.00000000000E+00 0.  1.
     999901    1    3    3    0    0  0.11251122115E-01  0.81323299356E-01 -0.10910391951E+00  0.89053002870E+00  0.88000000000E+00 0. -1.
        -11    1    4    4    0    0  0.15326391545E-01 -0.35229641739E-01  0.55975334680E-01  0.67893483844E-01  0.51100000000E-03 0. -1.
         11    1    4    4    0    0 -0.23665548853E-01 -0.53304878557E-01  0.41762645963E-01  0.71734566279E-01  0.51100000000E-03 0.  1.
</event>
<event>
 8    1  0.2959109E+004  0.1043930E+01  0.7957747E-01            NaN
         13   -1    0    0    0    0  0.00000000000E+00  0.00000000000E+00  0.74505805969E-08  0.10566000000E+00  0.10566000000E+00 0.  1.
     999900   -1    0    0    0    0 -0.00000000000E+00 -0.00000000000E+00 -0.74505805969E-08  0.93827000000E+00  0.93827000000E+00 0. -1.
     999902    2    1    2    0    0 -0.92717663753E-02  0.21480543868E-02  0.51024261644E-02  0.10331311787E+01  0.10330747397E+01 0.  0.
     999903    2    3    3    0    0 -0.52044399839E-01  0.38290498006E-02 -0.12463653321E+00  0.14258947751E+00  0.45543523257E-01 0.  0.
         14    1    1    2    0    0  0.92717663753E-02 -0.21480543868E-02 -0.51024261644E-02  0.10798821331E-01  0.00000000000E+00 0. -1.
     999901    1    3    3    0    0  0.42772633464E-01 -0.16809954137E-02  0.12973895937E+00  0.89054170116E+00  0.88000000000E+00 0.  1.
        -11    1    4    4    0    0 -0.51239965462E-02 -0.50705685816E-03 -0.71018882652E-01  0.71207129288E-01  0.51100000000E-03 0. -1.
         11    1    4    4    0    0 -0.46920403293E-01  0.43361066587E-02 -0.53617650555E-01  0.71382348225E-01  0.51100000000E-03 0.  1.
</event>
<event>
 8    1  0.2959109E+004  0.1043930E+01  0.7957747E-01            NaN
         13   -1    0    0    0    0  0.00000000000E+00  0.00000000000E+00  0.74505805969E-08  0.10566000000E+00  0.10566000000E+00 0. -1.
     999900   -1    0    0    0    0 -0.00000000000E+00 -0.00000000000E+00 -0.74505805969E-08  0.93827000000E+00  0.93827000000E+00 0. -1.
     999902    2    1    2    0    0  0.46467352645E-02  0.11462843207E-01 -0.61752556270E-02  0.10301052864E+01  0.10300125137E+01 0.  0.
     999903    2    3    3    0    0 -0.99210270867E-01 -0.69008847185E-02 -0.87774923736E-01  0.14005921456E+00  0.44964945143E-01 0.  0.
         14    1    1    2    0    0 -0.46467352645E-02 -0.11462843207E-01  0.61752556270E-02  0.13824713562E-01  0.00000000000E+00 0.  1.
     999901    1    3    3    0    0  0.10385700613E+00  0.18363727925E-01  0.81599668109E-01  0.89004607188E+00  0.88000000000E+00 0.  1.
        -11    1    4    4    0    0 -0.82718498094E-01 -0.19761254193E-01 -0.55354284960E-01  0.10147519440E+00  0.51100000000E-03 0. -1.
         11    1    4    4    0    0 -0.16491772773E-01  0.12860369475E-01 -0.32420638776E-01  0.38584020162E-01  0.51100000000E-03 0.  1.
</event>
<event>
 8    1  0.2959109E+004  0.1043930E+01  0.7957747E-01            NaN
         13   -1    0    0    0    0  0.00000000000E+00  0.00000000000E+00  0.74505805969E-08  0.10566000000E+00  0.10566000000E+00 0.  1.
     999900   -1    0    0    0    0 -0.00000000000E+00 -0.00000000000E+00 -0.74505805969E-08  0.93827000000E+00  0.93827000000E+00 0.  1.
     999902    2    1    2    0    0 -0.10080062784E-01 -0.73095405182E-02 -0.68171005184E-02  0.10297345815E+01  0.10296367312E+01 0.  0.
     999903    2    3    3    0    0  0.34551909806E-01 -0.26732845630E-01 -0.12567378781E+00  0.14041113643E+00  0.44865429722E-01 0.  0.
         14    1    1    2    0    0  0.10080062784E-01  0.73095405182E-02  0.68171005184E-02  0.14195418549E-01  0.00000000000E+00 0.  1.
     999901    1    3    3    0    0 -0.44631972590E-01  0.19423305112E-01  0.11885668729E+00  0.88932344503E+00  0.88000000000E+00 0. -1.
        -11    1    4    4    0    0  0.26456145847E-01 -0.25938417818E-01 -0.12687257468E+00  0.13217276762E+00  0.51100000000E-03 0.  1.
         11    1    4    4    0    0  0.80957639592E-02 -0.79442781213E-03  0.11987868779E-02  0.82383688076E-02  0.51100000000E-03 0. -1.
</event>
<event>
 8    1  0.2959109E+004  0.1043930E+01  0.7957747E-01            NaN
         13   -1    0    0    0    0  0.00000000000E+00  0.00000000000E+00  0.74505805969E-08  0.10566000000E+00  0.10566000000E+00 0. -1.
     999900   -1    0    0    0    0 -0.00000000000E+00 -0.00000000000E+00 -0.74505805969E-08  0.93827000000E+00  0.93827000000E+00 0. -1.
     999902    2    1    2    0    0 -0.52767278529E-02 -0.12016106355E-01  0.20384891768E-02  0.10306489569E+01  0.10305633829E+01 0.  0.
     999903    2    3    3    0    0  0.11531900315E-01  0.40848940115E-01 -0.12517940588E+00  0.13977206528E+00  0.45439255530E-01 0.  0.
         14    1    1    2    0    0  0.52767278529E-02  0.12016106355E-01 -0.20384891768E-02  0.13281043141E-01  0.00000000000E+00 0.  1.
     999901    1    3    3    0    0 -0.16808628168E-01 -0.52865046470E-01  0.12721789506E+00  0.89087689158E+00  0.88000000000E+00 0.  1.
        -11    1    4    4    0    0  0.23130774845E-02  0.17016251157E-02 -0.76806358657E-01  0.76861718083E-01  0.51100000000E-03 0. -1.
         11    1    4    4    0    0  0.92188228309E-02  0.39147314999E-01 -0.48373047226E-01  0.62910347201E-01  0.51100000000E-03 0.  1.
</event>
<event>
 8    1  0.2959109E+004  0.1043930E+01  0.7957747E-01            NaN
         13   -1    0    0    0    0  0.00000000000E+00  0.00000000000E+00  0.74505805969E-08  0.10566000000E+00  0.10566000000E+00 0. -1.
     999900   -1    0    0    0    0 -0.00000000000E+00 -0.00000000000E+00 -0.74505805969E-08  0.93827000000E+00  0.93827000000E+00 0. -1.
     999902    2    1    2    0    0  0.41870638788E-02  0.47167038369E-02 -0.16202997712E-01  0.10265427652E+01  0.10263955051E+01 0.  0.
     999903    2    3    3    0    0 -0.37209359796E-01  0.40352431412E-01  0.11505998800E+00  0.13513178233E+00  0.44821229110E-01 0.  0.
         14    1    1    2    0    0 -0.41870638788E-02 -0.47167038369E-02  0.16202997712E-01  0.17387234796E-01  0.00000000000E+00 0. -1.
     999901    1    3    3    0    0  0.41396423675E-01 -0.35635727575E-01 -0.13126298571E+00  0.89141098288E+00  0.88000000000E+00 0. -1.
        -11    1    4    4    0    0 -0.34584385916E-01  0.50536678152E-02  0.49085753521E-01  0.60260199363E-01  0.51100000000E-03 0. -1.
         11    1    4    4    0    0 -0.26249738801E-02  0.35298763597E-01  0.65974234481E-01  0.74871582965E-01  0.51100000000E-03 0.  1.
</event>
<event>
 8    1  0.2959109E+004  0.1043930E+01  0.7957747E-01            NaN
         13   -1    0    0    0    0  0.00000000000E+00  0.00000000000E+00  0.74505805969E-08  0.10566000000E+00  0.10566000000E+00 0. -1.
     999900   -1    0    0    0    0 -0.00000000000E+00 -0.00000000000E+00 -0.74505805969E-08  0.93827000000E+00  0.93827000000E+00 0.  1.
     999902    2    1    2    0    0  0.40350496485E-02  0.36506115084E-02  0.12768981265E-01  0.10300499614E+01  0.10299564396E+01 0.  0.
     999903    2    3    3    0    0  0.49228355838E-02  0.10551492664E+00 -0.81647062092E-01  0.13915629986E+00  0.39250464831E-01 0.  0.
         14    1    1    2    0    0 -0.40350496485E-02 -0.36506115084E-02 -0.12768981265E-01  0.13880038639E-01  0.00000000000E+00 0.  1.
     999901    1    3    3    0    0 -0.88778593527E-03 -0.10186431513E+00  0.94416043357E-01  0.89089366150E+00  0.88000000000E+00 0.  1.
        -11    1    4    4    0    0 -0.27869600882E-02  0.59419511473E-02  0.39024245436E-02  0.76527098657E-02  0.51100000000E-03 0.  1.
         11    1    4    4    0    0  0.77097956720E-02  0.99572975488E-01 -0.85549486635E-01  0.13150358999E+00  0.51100000000E-03 0. -1.
</event>
<event>
 8    1  0.2959109E+004  0.1043930E+01  0.7957747E-01            NaN
         13   -1    0    0    0    0  0.00000000000E+00  0.00000000000E+00  0.74505805969E-08  0.10566000000E+00  0.10566000000E+00 0. -1.
     999900   -1    0    0    0    0 -0.00000000000E+00 -0.00000000000E+00 -0.74505805969E-08  0.93827000000E+00  0.93827000000E+00 0. -1.
     999902    2    1    2    0    0 -0.74086224802E-03 -0.58518851593E-02  0.13250877361E-01  0.10294255459E+01  0.10293233581E+01 0.  0.
     999903    2    3    3    0    0 -0.65257636777E-01 -0.59435096147E-02  0.11663733329E+00  0.14102744719E+00  0.44616015955E-01 0.  0.
         14    1    1    2    0    0  0.74086224802E-03  0.58518851593E-02 -0.13250877361E-01  0.14504454061E-01  0.00000000000E+00 0.  1.
     999901    1    3    3    0    0  0.64516774529E-01  0.91624455430E-04 -0.10338645593E+00  0.88839809875E+00  0.88000000000E+00 0. -1.
        -11    1    4    4    0    0 -0.50015919536E-01  0.13644639464E-01  0.60694001921E-01  0.79823501447E-01  0.51100000000E-03 0. -1.
         11    1    4    4    0    0 -0.15241717241E-01 -0.19588149079E-01  0.55943331369E-01  0.61203945743E-01  0.51100000000E-03 0.  1.
</event>
<event>
 8    1  0.2959109E+004  0.1043930E+01  0.7957747E-01            NaN
         13   -1    0    0    0    0  0.00000000000E+00  0.00000000000E+00  0.74505805969E-08  0.10566000000E+00  0.10566000000E+00 0. -1.
     999900   -1    0    0    0    0 -0.00000000000E+00 -0.00000000000E+00 -0.74505805969E-08  0.93827000000E+00  0.93827000000E+00 0. -1.
     999902    2    1    2    0    0  0.73326525728E-02 -0.54893987737E-02 -0.99412097423E-02  0.10304122730E+01  0.10303236013E+01 0.  0.
     999903    2    3    3    0    0  0.35508681429E-01 -0.45930781116E-01 -0.12149360304E+00  0.14200170885E+00  0.45091979615E-01 0.  0.
         14    1    1    2    0    0 -0.73326525728E-02  0.54893987737E-02  0.99412097423E-02  0.13517727020E-01  0.00000000000E+00 0. -1.
     999901    1    3    3    0    0 -0.28176028857E-01  0.40441382342E-01  0.11155239330E+00  0.88841056413E+00  0.88000000000E+00 0.  1.
        -11    1    4    4    0    0  0.28657388070E-01 -0.98264494179E-02 -0.26893572203E-01  0.40513335409E-01  0.51100000000E-03 0. -1.
         11    1    4    4    0    0  0.68512933597E-02 -0.36104331698E-01 -0.94600030838E-01  0.10148837344E+00  0.51100000000E-03 0.  1.
</event>
<event>
 8    1  0.2959109E+004  0.1043930E+01  0.7957747E-01            NaN
         13   -1    0    0    0    0  0.00000000000E+00  0.00000000000E+00  0.74505805969E-08  0.10566000000E+00  0.10566000000E+00 0. -1.
     999900   -1    0    0    0    0 -0.00000000000E+00 -0.00000000000E+00 -0.74505805969E-08  0.93827000000E+00  0.93827000000E+00 0. -1.
     999902    2    1    2    0    0  0.83558269979E-02 -0.50553114942E-02 -0.98574256222E-02  0.10300539466E+01  0.10299604788E+01 0.  0.
     999903    2    3    3    0    0 -0.41026303943E-01 -0.53037341852E-01  0.11150660194E+00  0.13906006483E+00  0.49069971573E-01 0.  0.
         14    1    1    2    0    0 -0.83558269979E-02  0.50553114942E-02  0.98574256222E-02  0.13876053438E-01  0.00000000000E+00 0.  1.
     999901    1    3    3    0    0  0.49382130941E-01  0.47982030358E-01 -0.12136402756E+00  0.89099388173E+00  0.88000000000E+00 0. -1.
        -11    1    4    4    0    0 -0.32955715624E-02  0.73012045627E-02  0.29054358891E-01  0.30142748241E-01  0.51100000000E-03 0. -1.
         11    1    4    4    0    0 -0.37730732381E-01 -0.60338546414E-01  0.82452243045E-01  0.10891731659E+00  0.51100000000E-03 0.  1.
</event>
<event>
 8    1  0.2959109E+004  0.1043930E+01  0.7957747E-01            NaN
         13   -1    0    0    0    0  0.00000000000E+00  0.00000000000E+00  0.74505805969E-08  0.10566000000E+00  0.10566000000E+00 0. -1.
     999900   -1    0    0    0    0 -0.00000000000E+00 -0.00000000000E+00 -0.74505805969E-08  0.93827000000E+00  0.93827000000E+00 0. -1.
     999902    2    1    2    0    0  0.12211738112E-01 -0.39114201321E-02  0.53947521297E-02  0.10300185261E+01  0.10299245774E+01 0.  0.
     999903    2    3    3    0    0  0.25686340721E-03  0.86262729304E-01 -0.99239025672E-01  0.13916358634E+00  0.45571867438E-01 0.  0.
         14    1    1    2    0    0 -0.12211738112E-01  0.39114201321E-02 -0.53947521297E-02  0.13911473887E-01  0.00000000000E+00 0.  1.
     999901    1    3    3    0    0  0.11954874705E-01 -0.90174149436E-01  0.10463377780E+00  0.89085493977E+00  0.88000000000E+00 0.  1.
        -11    1    4    4    0    0  0.20467974829E-01  0.55646503955E-01 -0.48805318737E-01  0.76796429957E-01  0.51100000000E-03 0.  1.
         11    1    4    4    0    0 -0.20211111422E-01  0.30616225349E-01 -0.50433706935E-01  0.62367156386E-01  0.51100000000E-03 0. -1.
</event>
<event>
 8    1  0.2959109E+004  0.1043930E+01  0.7957747E-01            NaN
         13   -1    0    0    0    0  0.00000000000E+00  0.00000000000E+00  0.74505805969E-08  0.10566000000E+00  0.10566000000E+00 0.  1.
     999900   -1    0    0    0    0 -0.00000000000E+00 -0.00000000000E+00 -0.74505805969E-08  0.93827000000E+00  0.93827000000E+00 0.  1.
     999902    2    1    2    0    0 -0.37330122551E-02 -0.14859151140E-02  0.12961333909E-01  0.10303601989E+01  0.10302708382E+01 0.  0.
     999903    2    3    3    0    0 -0.18211492364E-02 -0.11378556747E+00  0.69608863736E-01  0.14141486329E+00  0.46928644758E-01 0.  0.
         14    1    1    2    0    0  0.37330122551E-02  0.14859151140E-02 -0.12961333909E-01  0.13569801064E-01  0.00000000000E+00 0. -1.
     999901    1    3    3    0    0 -0.19118630187E-02  0.11229965235E+00 -0.56647529828E-01  0.88894533565E+00  0.88000000000E+00 0. -1.
        -11    1    4    4    0    0  0.84526425288E-02 -0.43145657725E-01  0.51601735843E-01  0.67793769693E-01  0.51100000000E-03 0.  1.
         11    1    4    4    0    0 -0.10273791765E-01 -0.70639909743E-01  0.18007127894E-01  0.73621093593E-01  0.51100000000E-03 0. -1.
</event>
<event>
 7    1  0.2959109E+004  0.1043930E+01  0.7957747E-01            NaN
         13   -1    0    0    0    0  0.00000000000E+00  0.00000000000E+00  0.74505805969E-08  0.10566000000E+00  0.10566000000E+00 0.  1.
     999900   -1    0    0    0    0 -0.00000000000E+00 -0.00000000000E+00 -0.74505805969E-08  0.93827000000E+00  0.93827000000E+00 0. -1.
     999903    2    1    2    0    0 -0.60271854413E-01  0.95013889171E-01  0.18066121554E-01  0.12254175903E+00  0.45052884346E-01 0.  0.
         14    1    1    2    0    0  0.48568262506E-02 -0.28554709891E-01  0.21790724376E-01  0.36246322393E-01  0.00000000000E+00 0.  1.
     999901    1    1    2    0    0  0.55415028163E-01 -0.66459179281E-01 -0.39856845930E-01  0.88514191858E+00  0.88000000000E+00 0. -1.
        -11    1    3    3    0    0 -0.32793012698E-01  0.80095201854E-01  0.24833257180E-03  0.86550250328E-01  0.51100000000E-03 0. -1.
         11    1    3    3    0    0 -0.27478841716E-01  0.14918687317E-01  0.17817788982E-01  0.35991508700E-01  0.51100000000E-03 0.  1.
</event>
<event>
 8    1  0.2959109E+004  0.1043930E+01  0.7957747E-01            NaN
         13   -1    0    0    0    0  0.00000000000E+00  0.00000000000E+00  0.74505805969E-08  0.10566000000E+00  0.10566000000E+00 0.  1.
     999900   -1    0    0    0    0 -0.00000000000E+00 -0.00000000000E+00 -0.74505805969E-08  0.93827000000E+00  0.93827000000E+00 0.  1.
     999902    2    1    2    0    0  0.14189639703E-01  0.90913327579E-02  0.46029559519E-02  0.10264604433E+01  0.10263117735E+01 0.  0.
     999903    2    3    3    0    0 -0.10715497711E+00 -0.60913897166E-01  0.31258220331E-01  0.13498091393E+00  0.45277795868E-01 0.  0.
         14    1    1    2    0    0 -0.14189639703E-01 -0.90913327579E-02 -0.46029559519E-02  0.17469556655E-01  0.00000000000E+00 0.  1.
     999901    1    3    3    0    0  0.12134461682E+00  0.70005229924E-01 -0.26655264379E-01  0.89147952942E+00  0.88000000000E+00 0. -1.
        -11    1    4    4    0    0 -0.20008044067E-01 -0.60706236843E-02  0.23885417793E-01  0.31748206302E-01  0.51100000000E-03 0. -1.
         11    1    4    4    0    0 -0.87146933048E-01 -0.54843273482E-01  0.73728025389E-02  0.10323270763E+00  0.51100000000E-03 0.  1.
</event>
<event>
 8    1  0.2959109E+004  0.1043930E+01  0.7957747E-01            NaN
         13   -1    0    0    0    0  0.00000000000E+00  0.00000000000E+00  0.74505805969E-08  0.10566000000E+00  0.10566000000E+00 0.  1.
     999900   -1    0    0    0    0 -0.00000000000E+00 -0.00000000000E+00 -0.74505805969E-08  0.93827000000E+00  0.93827000000E+00 0. -1.
     999902    2    1    2    0    0  0.11007950737E-03 -0.13737358074E-01  0.28204624561E-02  0.10299056593E+01  0.10298101693E+01 0.  0.
     999903    2    3    3    0    0  0.10110982530E+00 -0.19576785342E-02 -0.85654441675E-01  0.13964304737E+00  0.44005318104E-01 0.  0.
         14    1    1    2    0    0 -0.11007950737E-03  0.13737358074E-01 -0.28204624561E-02  0.14024340727E-01  0.00000000000E+00 0. -1.
     999901    1    3    3    0    0 -0.10099974579E+00 -0.11779679540E-01  0.88474904131E-01  0.89026261191E+00  0.88000000000E+00 0. -1.
        -11    1    4    4    0    0  0.11487780713E-01  0.69122888488E-02 -0.32271218951E-01  0.34949127835E-01  0.51100000000E-03 0.  1.
         11    1    4    4    0    0  0.89622044587E-01 -0.88699673830E-02 -0.53383222724E-01  0.10469391953E+00  0.51100000000E-03 0. -1.
</event>
<event>
 8    1  0.2959109E+004  0.1043930E+01  0.7957747E-01            NaN
         13   -1    0    0    0    0  0.00000000000E+00  0.00000000000E+00  0.74505805969E-08  0.10566000000E+00  0.10566000000E+00 0.  1.
     999900   -1    0    0    0    0 -0.00000000000E+00 -0.00000000000E+00 -0.74505805969E-08  0.93827000000E+00  0.93827000000E+00 0. -1.
     999902    2    1    2    0    0 -0.83369312494E-03  0.11526671491E-01 -0.73549777881E-02  0.10302312811E+01  0.10301402030E+01 0.  0.
     999903    2    3    3    0    0 -0.80686724264E-01 -0.10366229919E+00  0.77839388608E-02  0.13901066180E+00  0.44801279512E-01 0.  0.
         14    1    1    2    0    0  0.83369312494E-03 -0.11526671491E-01  0.73549777881E-02  0.13698718850E-01  0.00000000000E+00 0.  1.
     999901    1    3    3    0    0  0.79853031140E-01  0.11518897068E+00 -0.15138916649E-01  0.89122061934E+00  0.88000000000E+00 0. -1.
        -11    1    4    4    0    0  0.22348490717E-02 -0.22660260581E-01 -0.63490665018E-03  0.22784779732E-01  0.51100000000E-03 0.  1.
         11    1    4    4    0    0 -0.82921573336E-01 -0.81002038606E-01  0.84188455110E-02  0.11622588207E+00  0.51100000000E-03 0. -1.
</event>
<event>
 8    1  0.2959109E+004  0.1043930E+01  0.7957747E-01            NaN
         13   -1    0    0    0    0  0.00000000000E+00  0.00000000000E+00  0.74505805969E-08  0.10566000000E+00  0.10566000000E+00 0.  1.
     999900   -1    0    0    0    0 -0.00000000000E+00 -0.00000000000E+00 -0.74505805969E-08  0.93827000000E+00  0.93827000000E+00 0. -1.
     999902    2    1    2    0    0  0.92224743862E-02 -0.10689340920E-01 -0.44880789024E-02  0.10291158549E+01  0.10290092244E+01 0.  0.
     999903    2    3    3    0    0  0.89147096460E-01 -0.47781267402E-01  0.85829556486E-01  0.14011583718E+00  0.45116302384E-01 0.  0.
         14    1    1    2    0    0 -0.92224743862E-02  0.10689340920E-01  0.44880789024E-02  0.14814145110E-01  0.00000000000E+00 0.  1.
     999901    1    3    3    0    0 -0.79924622074E-01  0.37091926482E-01 -0.90317635388E-01  0.88900001771E+00  0.88000000000E+00 0. -1.
        -11    1    4    4    0    0  0.71599586828E-01 -0.41126397320E-01  0.42442936140E-01  0.92841506556E-01  0.51100000000E-03 0. -1.
         11    1    4    4    0    0  0.17547509632E-01 -0.66548700821E-02  0.43386620345E-01  0.47274330625E-01  0.51100000000E-03 0.  1.
</event>
<event>
 7    1  0.2959109E+004  0.1043930E+01  0.7957747E-01            NaN
         13   -1    0    0    0    0  0.00000000000E+00  0.00000000000E+00  0.74505805969E-08  0.10566000000E+00  0.10566000000E+00 0. -1.
     999900   -1    0    0    0    0 -0.00000000000E+00 -0.00000000000E+00 -0.74505805969E-08  0.93827000000E+00  0.93827000000E+00 0. -1.
     999903    2    1    2    0    0  0.47691198003E-01  0.82298102748E-01  0.50726630298E-01  0.11765153426E+00  0.47130291838E-01 0.  0.
         14    1    1    2    0    0  0.13325866566E-01  0.31449775937E-01 -0.11342100888E-01  0.35990420653E-01  0.00000000000E+00 0.  1.
     999901    1    1    2    0    0 -0.61017064569E-01 -0.11374787868E+00 -0.39384529409E-01  0.89028804509E+00  0.88000000000E+00 0. -1.
        -11    1    3    3    0    0  0.41574364841E-01  0.41591625703E-01  0.98330194646E-02  0.59625837800E-01  0.51100000000E-03 0. -1.
         11    1    3    3    0    0  0.61168331620E-02  0.40706477045E-01  0.40893610833E-01  0.58025696457E-01  0.51100000000E-03 0.  1.
</event>
<event>
 8    1  0.2959109E+004  0.1043930E+01  0.7957747E-01            NaN
         13   -1    0    0    0    0  0.00000000000E+00  0.00000000000E+00  0.74505805969E-08  0.10566000000E+00  0.10566000000E+00 0. -1.
     999900   -1    0    0    0    0 -0.00000000000E+00 -0.00000000000E+00 -0.74505805969E-08  0.93827000000E+00  0.93827000000E+00 0.  1.
     999902    2    1    2    0    0  0.56405397643E-02 -0.14295223344E-01  0.30572712939E-02  0.10282610496E+01  0.10281416586E+01 0.  0.
     999903    2    3    3    0    0 -0.80982790793E-01 -0.12373540666E-01  0.10210618781E+00  0.13847569225E+00  0.45150048081E-01 0.  0.
         14    1    1    2    0    0 -0.56405397643E-02  0.14295223344E-01 -0.30572712939E-02  0.15668950413E-01  0.00000000000E+00 0.  1.
     999901    1    3    3    0    0  0.86623330558E-01 -0.19216826776E-02 -0.99048916521E-01  0.88978535733E+00  0.88000000000E+00 0.  1.
        -11    1    4    4    0    0 -0.58591505319E-01  0.61037461707E-02  0.44032994765E-01  0.73548527938E-01  0.51100000000E-03 0.  1.
         11    1    4    4    0    0 -0.22391285474E-01 -0.18477286837E-01  0.58073193049E-01  0.64927164315E-01  0.51100000000E-03 0. -1.
</event>
<event>
 8    1  0.2959109E+004  0.1043930E+01  0.7957747E-01            NaN
         13   -1    0    0    0    0  0.00000000000E+00  0.00000000000E+00  0.74505805969E-08  0.10566000000E+00  0.10566000000E+00 0.  1.
     999900   -1    0    0    0    0 -0.00000000000E+00 -0.00000000000E+00 -0.74505805969E-08  0.93827000000E+00  0.93827000000E+00 0. -1.
     999902    2    1    2    0    0 -0.68274257140E-02 -0.10148889104E-01 -0.52687050434E-02  0.10306118566E+01  0.10305258007E+01 0.  0.
     999903    2    3    3    0    0  0.16686052764E-01 -0.28844167387E-01  0.12843373179E+00  0.14000602977E+00  0.44677226427E-01 0.  0.
         14    1    1    2    0    0  0.68274257140E-02  0.10148889104E-01  0.52687050434E-02  0.13318143443E-01  0.00000000000E+00 0.  1.
     999901    1    3    3    0    0 -0.23513478478E-01  0.18695278283E-01 -0.13370243683E+00  0.89060582679E+00  0.88000000000E+00 0.  1.
        -11    1    4    4    0    0 -0.52689728948E-02 -0.20619115638E-02  0.81388949428E-01  0.81586982814E-01  0.51100000000E-03 0. -1.
         11    1    4    4    0    0  0.21955025659E-01 -0.26782255823E-01  0.47044782359E-01  0.58419046953E-01  0.51100000000E-03 0.  1.
</event>
<event>
 8    1  0.2959109E+004  0.1043930E+01  0.7957747E-01            NaN
         13   -1    0    0    0    0  0.00000000000E+00  0.00000000000E+00  0.74505805969E-08  0.10566000000E+00  0.10566000000E+00 0. -1.
     999900   -1    0    0    0    0 -0.00000000000E+00 -0.00000000000E+00 -0.74505805969E-08  0.93827000000E+00  0.93827000000E+00 0.  1.
     999902    2    1    2    0    0 -0.57552630352E-02 -0.27421878224E-02 -0.84445397534E-03  0.10374991564E+01  0.10374792257E+01 0.  0.
     999903    2    3    3    0    0  0.10467930411E+00 -0.35657918312E-01 -0.84074087337E-01  0.14609217260E+00  0.45224184726E-01 0.  0.
         14    1    1    2    0    0  0.57552630352E-02  0.27421878224E-02  0.84445397534E-03  0.64308435818E-02  0.00000000000E+00 0. -1.
     999901    1    3    3    0    0 -0.11043456715E+00  0.32915730490E-01  0.83229633362E-01  0.89140698382E+00  0.88000000000E+00 0. -1.
        -11    1    4    4    0    0  0.24846357408E-01 -0.25750916903E-01 -0.42425476952E-01  0.55503454067E-01  0.51100000000E-03 0. -1.
         11    1    4    4    0    0  0.79832946707E-01 -0.99070014094E-02 -0.41648610386E-01  0.90588718530E-01  0.51100000000E-03 0.  1.
</event>
<event>
 8    1  0.2959109E+004  0.1043930E+01  0.7957747E-01            NaN
         13   -1    0    0    0    0  0.00000000000E+00  0.00000000000E+00  0.74505805969E-08  0.10566000000E+00  0.10566000000E+00 0.  1.
     999900   -1    0    0    0    0 -0.00000000000E+00 -0.00000000000E+00 -0.74505805969E-08  0.93827000000E+00  0.93827000000E+00 0.  1.
     999902    2    1    2    0    0 -0.13024114907E-01  0.40513058570E-02 -0.19145000502E-02  0.10301566214E+01  0.10300645410E+01 0.  0.
     999903    2    3    3    0    0  0.76526624546E-01  0.38224910816E-01 -0.10056089013E+00  0.13947245710E+00  0.44973387644E-01 0.  0.
         14    1    1    2    0    0  0.13024114907E-01 -0.40513058570E-02  0.19145000502E-02  0.13773378624E-01  0.00000000000E+00 0. -1.
     999901    1    3    3    0    0 -0.89550739454E-01 -0.34173604959E-01  0.98646390075E-01  0.89068416427E+00  0.88000000000E+00 0.  1.
        -11    1    4    4    0    0  0.35459256012E-01  0.39186061610E-01 -0.39949518472E-01  0.66250520063E-01  0.51100000000E-03 0.  1.
         11    1    4    4    0    0  0.41067368535E-01 -0.96115079449E-03 -0.60611371653E-01  0.73221937040E-01  0.51100000000E-03 0. -1.
</event>
<event>
 8    1  0.2959109E+004  0.1043930E+01  0.7957747E-01            NaN
         13   -1    0    0    0    0  0.00000000000E+00  0.00000000000E+00  0.74505805969E-08  0.10566000000E+00  0.10566000000E+00 0. -1.
     999900   -1    0    0    0    0 -0.00000000000E+00 -0.00000000000E+00 -0.74505805969E-08  0.93827000000E+00  0.93827000000E+00 0.  1.
     999902    2    1    2    0    0  0.53658016264E-02 -0.91024581261E-02 -0.76114869750E-02  0.10309076613E+01  0.10308254095E+01 0.  0.
     999903    2    3    3    0    0 -0.10416634176E+00 -0.43032296320E-01  0.69886356912E-01  0.14009093484E+00  0.45154865286E-01 0.  0.
         14    1    1    2    0    0 -0.53658016264E-02  0.91024581261E-02  0.76114869750E-02  0.13022338692E-01  0.00000000000E+00 0. -1.
     999901    1    3    3    0    0  0.10953214339E+00  0.33929838194E-01 -0.77497843887E-01  0.89081672647E+00  0.88000000000E+00 0.  1.
        -11    1    4    4    0    0 -0.16924958045E-01 -0.22834948212E-01  0.32145803928E-01  0.42912735824E-01  0.51100000000E-03 0.  1.
         11    1    4    4    0    0 -0.87241383714E-01 -0.20197348107E-01  0.37740552983E-01  0.97178199013E-01  0.51100000000E-03 0. -1.
</event>
<event>
 8    1  0.2959109E+004  0.1043930E+01  0.7957747E-01            NaN
         13   -1    0    0    0    0  0.00000000000E+00  0.00000000000E+00  0.74505805969E-08  0.10566000000E+00  0.10566000000E+00 0.  1.
     999900   -1    0    0    0    0 -0.00000000000E+00 -0.00000000000E+00 -0.74505805969E-08  0.93827000000E+00  0.93827000000E+00 0. -1.
     999902    2    1    2    0    0 -0.95100811680E-02 -0.95661852965E-02  0.45064045205E-02  0.10297081426E+01  0.10296099251E+01 0.  0.
     999903    2    3    3    0    0  0.83257595036E-02  0.83499256745E-01  0.10110686556E+00  0.13936498252E+00  0.46460261942E-01 0.  0.
         14    1    1    2    0    0  0.95100811680E-02  0.95661852965E-02 -0.45064045205E-02  0.14221857356E-01  0.00000000000E+00 0.  1.
     999901    1    3    3    0    0 -0.17835840672E-01 -0.93065442041E-01 -0.96600461041E-01  0.89034316013E+00  0.88000000000E+00 0. -1.
        -11    1    4    4    0    0  0.13112831794E-01  0.43068453034E-01  0.83787572709E-01  0.95118118494E-01  0.51100000000E-03 0.  1.
         11    1    4    4    0    0 -0.47870722905E-02  0.40430803711E-01  0.17319292852E-01  0.44246864021E-01  0.51100000000E-03 0. -1.
</event>
<event>
 8    1  0.2959109E+004  0.1043930E+01  0.7957747E-01            NaN
         13   -1    0    0    0    0  0.00000000000E+00  0.00000000000E+00  0.74505805969E-08  0.10566000000E+00  0.10566000000E+00 0. -1.
     999900   -1    0    0    0    0 -0.00000000000E+00 -0.00000000000E+00 -0.74505805969E-08  0.93827000000E+00  0.93827000000E+00 0.  1.
     999902    2    1    2    0    0 -0.12620141654E-01  0.11214860743E-01  0.23226978763E-02  0.10268878170E+01  0.10267463916E+01 0.  0.
     999903    2    3    3    0    0  0.10996297169E-01  0.78282101485E-01  0.10408161437E+00  0.13817491167E+00  0.44836567675E-01 0.  0.
         14    1    1    2    0    0  0.12620141654E-01 -0.11214860743E-01 -0.23226978763E-02  0.17042183026E-01  0.00000000000E+00 0.  1.
     999901    1    3    3    0    0 -0.23616438823E-01 -0.67067240742E-01 -0.10175891650E+00  0.88871290530E+00  0.88000000000E+00 0.  1.
        -11    1    4    4    0    0  0.26466656430E-03  0.68769415060E-01  0.58173096013E-01  0.90075927510E-01  0.51100000000E-03 0.  1.
         11    1    4    4    0    0  0.10731630605E-01  0.95126864254E-02  0.45908518360E-01  0.48098984163E-01  0.51100000000E-03 0. -1.
</event>
<event>
 8    1  0.2959109E+004  0.1043930E+01  0.7957747E-01            NaN
         13   -1    0    0    0    0  0.00000000000E+00  0.00000000000E+00  0.74505805969E-08  0.10566000000E+00  0.10566000000E+00 0. -1.
     999900   -1    0    0    0    0 -0.00000000000E+00 -0.00000000000E+00 -0.74505805969E-08  0.93827000000E+00  0.93827000000E+00 0.  1.
     999902    2    1    2    0    0 -0.72533516775E-02  0.69781683265E-02  0.10585325209E-01  0.10293233216E+01  0.10292196779E+01 0.  0.
     999903    2    3    3    0    0  0.11078586699E+00 -0.38726210721E-02 -0.68342637526E-01  0.13787471397E+00  0.45279301326E-01 0.  0.
         14    1    1    2    0    0  0.72533516775E-02 -0.69781683265E-02 -0.10585325209E-01  0.14606678388E-01  0.00000000000E+00 0. -1.
     999901    1    3    3    0    0 -0.11803921867E+00  0.10850789399E-01  0.78927962735E-01  0.89144860765E+00  0.88000000000E+00 0. -1.
        -11    1    4    4    0    0  0.83336209024E-01  0.61287237403E-02 -0.69418544736E-01  0.10863553960E+00  0.51100000000E-03 0.  1.
         11    1    4    4    0    0  0.27449657964E-01 -0.10001344812E-01  0.10759072101E-02  0.29239174368E-01  0.51100000000E-03 0. -1.
</event>
<event>
 8    1  0.2959109E+004  0.1043930E+01  0.7957747E-01            NaN
         13   -1    0    0    0    0  0.00000000000E+00  0.00000000000E+00  0.74505805969E-08  0.10566000000E+00  0.10566000000E+00 0. -1.
     999900   -1    0    0    0    0 -0.00000000000E+00 -0.00000000000E+00 -0.74505805969E-08  0.93827000000E+00  0.93827000000E+00 0.  1.
     999902    2    1    2    0    0 -0.97625133743E-02  0.95031643276E-02 -0.37282501151E-02  0.10298049638E+01  0.10297080881E+01 0.  0.
     999903    2    3    3    0    0  0.60763198693E-02 -0.80426327423E-01 -0.10425555219E+00  0.13938712894E+00  0.45323677540E-01 0.  0.
         14    1    1    2    0    0  0.97625133743E-02 -0.95031643276E-02  0.37282501151E-02  0.14125036231E-01  0.00000000000E+00 0.  1.
     999901    1    3    3    0    0 -0.15838833244E-01  0.89929491751E-01  0.10052730207E+00  0.89041783483E+00  0.88000000000E+00 0.  1.
        -11    1    4    4    0    0  0.10411857624E-01 -0.75455840783E-01 -0.66683282528E-01  0.10123691015E+00  0.51100000000E-03 0. -1.
         11    1    4    4    0    0 -0.43355377544E-02 -0.49704866397E-02 -0.37572269658E-01  0.38150218784E-01  0.51100000000E-03 0.  1.
</event>
<event>
 8    1  0.2959109E+004  0.1043930E+01  0.7957747E-01            NaN
         13   -1    0    0    0    0  0.00000000000E+00  0.00000000000E+00  0.74505805969E-08  0.10566000000E+00  0.10566000000E+00 0.  1.
     999900   -1    0    0    0    0 -0.00000000000E+00 -0.00000000000E+00 -0.74505805969E-08  0.93827000000E+00  0.93827000000E+00 0.  1.
     999902    2    1    2    0    0  0.12596012927E-01  0.47166213351E-02 -0.76231416988E-02  0.10284697818E+01  0.10283535742E+01 0.  0.
     999903    2    3    3    0    0  0.12201127114E+00 -0.43657878224E-01  0.26800719353E-01  0.13970840032E+00  0.44803994748E-01 0.  0.
         14    1    1    2    0    0 -0.12596012927E-01 -0.47166213351E-02  0.76231416988E-02  0.15460218234E-01  0.00000000000E+00 0.  1.
     999901    1    3    3    0    0 -0.10941525822E+00  0.48374499559E-01 -0.34423861052E-01  0.88876138144E+00  0.88000000000E+00 0. -1.
        -11    1    4    4    0    0  0.88624291002E-01 -0.92834034718E-02  0.19707957111E-01  0.91263964576E-01  0.51100000000E-03 0. -1.
         11    1    4    4    0    0  0.33386980141E-01 -0.34374474752E-01  0.70927622426E-02  0.48444435745E-01  0.51100000000E-03 0.  1.
</event>
<event>
 8    1  0.2959109E+004  0.1043930E+01  0.7957747E-01            NaN
         13   -1    0    0    0    0  0.00000000000E+00  0.00000000000E+00  0.74505805969E-08  0.10566000000E+00  0.10566000000E+00 0. -1.
     999900   -1    0    0    0    0 -0.00000000000E+00 -0.00000000000E+00 -0.74505805969E-08  0.93827000000E+00  0.93827000000E+00 0. -1.
     999902    2    1    2    0    0 -0.37100003099E-02 -0.10677011350E-01 -0.80249620609E-02  0.10300677242E+01  0.10299744433E+01 0.  0.
     999903    2    3    3    0    0  0.85890381246E-01 -0.37318246326E-01  0.92985807923E-01  0.13937071658E+00  0.44811014991E-01 0.  0.
         14    1    1    2    0    0  0.37100003099E-02  0.10677011350E-01  0.80249620609E-02  0.13862275778E-01  0.00000000000E+00 0. -1.
     999901    1    3    3    0    0 -0.89600381555E-01  0.26641234977E-01 -0.10101076998E+00  0.89069700765E+00  0.88000000000E+00 0. -1.
        -11    1    4    4    0    0  0.47369650766E-01 -0.34548405418E-01  0.78809580048E-01  0.98227731110E-01  0.51100000000E-03 0.  1.
         11    1    4    4    0    0  0.38520730480E-01 -0.27698409086E-02  0.14176227875E-01  0.41142985467E-01  0.51100000000E-03 0. -1.
</event>
<event>
 8    1  0.2959109E+004  0.1043930E+01  0.7957747E-01            NaN
         13   -1    0    0    0    0  0.00000000000E+00  0.00000000000E+00  0.74505805969E-08  0.10566000000E+00  0.10566000000E+00 0.  1.
     999900   -1    0    0    0    0 -0.00000000000E+00 -0.00000000000E+00 -0.74505805969E-08  0.93827000000E+00  0.93827000000E+00 0. -1.
     999902    2    1    2    0    0  0.10137494316E-01  0.18806084411E-02 -0.12177275287E-01  0.10279740759E+01  0.10278502368E+01 0.  0.
     999903    2    3    3    0    0  0.26967111114E-01 -0.88686773966E-01 -0.94397721820E-01  0.13935385977E+00  0.43772130295E-01 0.  0.
         14    1    1    2    0    0 -0.10137494316E-01 -0.18806084411E-02  0.12177275287E-01  0.15955924057E-01  0.00000000000E+00 0.  1.
     999901    1    3    3    0    0 -0.16829616798E-01  0.90567382407E-01  0.82220446533E-01  0.88862021617E+00  0.88000000000E+00 0.  1.
        -11    1    4    4    0    0  0.16528495997E-01 -0.20176067382E-01 -0.51821119798E-01  0.58016846287E-01  0.51100000000E-03 0.  1.
         11    1    4    4    0    0  0.10438615117E-01 -0.68510706583E-01 -0.42576602022E-01  0.81337013486E-01  0.51100000000E-03 0. -1.
</event>
<event>
 8    1  0.2959109E+004  0.1043930E+01  0.7957747E-01            NaN
         13   -1    0    0    0    0  0.00000000000E+00  0.00000000000E+00  0.74505805969E-08  0.10566000000E+00  0.10566000000E+00 0.  1.
     999900   -1    0    0    0    0 -0.00000000000E+00 -0.00000000000E+00 -0.74505805969E-08  0.93827000000E+00  0.93827000000E+00 0. -1.
     999902    2    1    2    0    0 -0.11575494875E-01 -0.48667650231E-02  0.40747131374E-02  0.10307284558E+01  0.10306439098E+01 0.  0.
     999903    2    3    3    0    0  0.98021787639E-01  0.81925475333E-01  0.31762826915E-01  0.13926275873E+00  0.45444300359E-01 0.  0.
         14    1    1    2    0    0  0.11575494875E-01  0.48667650231E-02 -0.40747131374E-02  0.13201544249E-01  0.00000000000E+00 0.  1.
     999901    1    3    3    0    0 -0.10959728251E+00 -0.86792240356E-01 -0.27688113778E-01  0.89146569702E+00  0.88000000000E+00 0. -1.
        -11    1    4    4    0    0  0.23496756520E-01  0.47290628375E-01  0.60585747583E-02  0.53155136611E-01  0.51100000000E-03 0. -1.
         11    1    4    4    0    0  0.74525031119E-01  0.34634846958E-01  0.25704252157E-01  0.86107622119E-01  0.51100000000E-03 0.  1.
</event>
<event>
 8    1  0.2959109E+004  0.1043930E+01  0.7957747E-01            NaN
         13   -1    0    0    0    0  0.00000000000E+00  0.00000000000E+00  0.74505805969E-08  0.10566000000E+00  0.10566000000E+00 0.  1.
     999900   -1    0    0    0    0 -0.00000000000E+00 -0.00000000000E+00 -0.74505805969E-08  0.93827000000E+00  0.93827000000E+00 0. -1.
     999902    2    1    2    0    0 -0.62238423054E-02  0.64062076239E-02  0.10965743640E-01  0.10297870426E+01  0.10296899193E+01 0.  0.
     999903    2    3    3    0    0  0.86931697911E-01  0.95899557566E-01 -0.27038501000E-01  0.13954475149E+00  0.44584884075E-01 0.  0.
         14    1    1    2    0    0  0.62238423054E-02 -0.64062076239E-02 -0.10965743640E-01  0.14142957355E-01  0.00000000000E+00 0. -1.
     999901    1    3    3    0    0 -0.93155540216E-01 -0.89493349942E-01  0.38004244641E-01  0.89024229116E+00  0.88000000000E+00 0.  1.
        -11    1    4    4    0    0  0.72324710255E-01  0.82032898061E-01 -0.47031716628E-02  0.10946525030E+00  0.51100000000E-03 0. -1.
         11    1    4    4    0    0  0.14606987656E-01  0.13866659505E-01 -0.22335329338E-01  0.30079501190E-01  0.51100000000E-03 0.  1.
</event>
<event>
 8    1  0.2959109E+004  0.1043930E+01  0.7957747E-01            NaN
         13   -1    0    0    0    0  0.00000000000E+00  0.00000000000E+00  0.74505805969E-08  0.10566000000E+00  0.10566000000E+00 0. -1.
     999900   -1    0    0    0    0 -0.00000000000E+00 -0.00000000000E+00 -0.74505805969E-08  0.93827000000E+00  0.93827000000E+00 0.  1.
     999902    2    1    2    0    0 -0.38734389591E-02  0.96061544884E-02 -0.93438350738E-02  0.10299804843E+01  0.10298860175E+01 0.  0.
     999903    2    3    3    0    0  0.52235371765E-01  0.44726019137E-01 -0.11516774123E+00  0.14117212330E+00  0.44011463563E-01 0.  0.
         14    1    1    2    0    0  0.38734389591E-02 -0.96061544884E-02  0.93438350738E-02  0.13949515666E-01  0.00000000000E+00 0. -1.
     999901    1    3    3    0    0 -0.56108810724E-01 -0.35119864648E-01  0.10582390616E+00  0.88880836104E+00  0.88000000000E+00 0. -1.
        -11    1    4    4    0    0  0.25977059651E-01  0.48549255866E-01 -0.79780590484E-01  0.96938339227E-01  0.51100000000E-03 0.  1.
         11    1    4    4    0    0  0.26258312114E-01 -0.38232367294E-02 -0.35387150747E-01  0.44233784070E-01  0.51100000000E-03 0. -1.
</event>
<event>
 8    1  0.2959109E+004  0.1043930E+01  0.7957747E-01            NaN
         13   -1    0    0    0    0  0.00000000000E+00  0.00000000000E+00  0.74505805969E-08  0.10566000000E+00  0.10566000000E+00 0.  1.
     999900   -1    0    0    0    0 -0.00000000000E+00 -0.00000000000E+00 -0.74505805969E-08  0.93827000000E+00  0.93827000000E+00 0.  1.
     999902    2    1    2    0    0  0.11873250225E-01  0.71451889113E-02  0.67920832211E-03  0.10300559552E+01  0.10299625147E+01 0.  0.
     999903    2    3    3    0    0  0.21550242180E-01  0.17015127892E-01 -0.12994791648E+00  0.14030626814E+00  0.45226766029E-01 0.  0.
         14    1    1    2    0    0 -0.11873250225E-01 -0.71451889113E-02 -0.67920832211E-03  0.13874044811E-01  0.00000000000E+00 0.  1.
     999901    1    3    3    0    0 -0.96769919554E-02 -0.98699389807E-02  0.13062712481E+00  0.88974968705E+00  0.88000000000E+00 0. -1.
        -11    1    4    4    0    0  0.11337577316E-01  0.17401535759E-01 -0.16858621185E-01  0.26754968425E-01  0.51100000000E-03 0. -1.
         11    1    4    4    0    0  0.10212664864E-01 -0.38640786660E-03 -0.11308929530E+00  0.11355129972E+00  0.51100000000E-03 0.  1.
</event>
<event>
 8    1  0.2959109E+004  0.1043930E+01  0.7957747E-01            NaN
         13   -1    0    0    0    0  0.00000000000E+00  0.00000000000E+00  0.74505805969E-08  0.10566000000E+00  0.10566000000E+00 0. -1.
     999900   -1    0    0    0    0 -0.00000000000E+00 -0.00000000000E+00 -0.74505805969E-08  0.93827000000E+00  0.93827000000E+00 0. -1.
     999902    2    1    2    0    0 -0.30954111564E-02  0.64656216644E-02  0.13094865448E-01  0.10290014591E+01  0.10288931633E+01 0.  0.
     999903    2    3    3    0    0 -0.52609746557E-01 -0.94348642147E-01  0.75922661603E-01  0.13964072394E+00  0.45451397432E-01 0.  0.
         14    1    1    2    0    0  0.30954111564E-02 -0.64656216644E-02 -0.13094865448E-01  0.14928540948E-01  0.00000000000E+00 0.  1.
     999901    1    3    3    0    0  0.49514335401E-01  0.10081426381E+00 -0.62827796156E-01  0.88936073512E+00  0.88000000000E+00 0.  1.
        -11    1    4    4    0    0 -0.32109654285E-01 -0.90145289426E-01  0.67356852571E-01  0.11702311658E+00  0.51100000000E-03 0.  1.
         11    1    4    4    0    0 -0.20500092272E-01 -0.42033527208E-02  0.85658090319E-02  0.22617607359E-01  0.51100000000E-03 0. -1.
</event>
<event>
 8    1  0.2959109E+004  0.1043930E+01  0.7957747E-01            NaN
         13   -1    0    0    0    0  0.00000000000E+00  0.00000000000E+00  0.74505805969E-08  0.10566000000E+00  0.10566000000E+00 0.  1.
     999900   -1    0    0    0    0 -0.00000000000E+00 -0.00000000000E+00 -0.74505805969E-08  0.93827000000E+00  0.93827000000E+00 0.  1.
     999902    2    1    2    0    0 -0.71111110106E-02 -0.10316212337E-01  0.58270325860E-02  0.10301116627E+01  0.10300189761E+01 0.  0.
     999903    2    3    3    0    0  0.17183058119E-02  0.75935326247E-01  0.10861499001E+00  0.13989671636E+00  0.44774421797E-01 0.  0.
         14    1    1    2    0    0  0.71111110106E-02  0.10316212337E-01 -0.58270325860E-02  0.13818337293E-01  0.00000000000E+00 0.  1.
     999901    1    3    3    0    0 -0.88294168225E-02 -0.86251538585E-01 -0.10278795742E+00  0.89021494635E+00  0.88000000000E+00 0.  1.
        -11    1    4    4    0    0 -0.18400172091E-01  0.54779588690E-01  0.60887628492E-01  0.83946018932E-01  0.51100000000E-03 0.  1.
         11    1    4    4    0    0  0.20118477903E-01  0.21155737557E-01  0.47727361513E-01  0.55950697428E-01  0.51100000000E-03 0. -1.
</event>
<event>
 8    1  0.2959109E+004  0.1043930E+01  0.7957747E-01            NaN
         13   -1    0    0    0    0  0.00000000000E+00  0.00000000000E+00  0.74505805969E-08  0.10566000000E+00  0.10566000000E+00 0. -1.
     999900   -1    0    0    0    0 -0.00000000000E+00 -0.00000000000E+00 -0.74505805969E-08  0.93827000000E+00  0.93827000000E+00 0. -1.
     999902    2    1    2    0    0  0.93726840694E-02  0.10211002869E-01  0.47079616746E-02  0.10292918072E+01  0.10291877125E+01 0.  0.
     999903    2    3    3    0    0 -0.75295986661E-01  0.10845880290E+00 -0.60599369138E-02  0.13972035885E+00  0.45301857673E-01 0.  0.
         14    1    1    2    0    0 -0.93726840694E-02 -0.10211002869E-01 -0.47079616746E-02  0.14638192832E-01  0.00000000000E+00 0.  1.
     999901    1    3    3    0    0  0.84668670731E-01 -0.98247800033E-01  0.10767898588E-01  0.88957144831E+00  0.88000000000E+00 0.  1.
        -11    1    4    4    0    0 -0.57748001497E-01  0.93450197237E-01 -0.21499313829E-01  0.11193861111E+00  0.51100000000E-03 0.  1.
         11    1    4    4    0    0 -0.17547985164E-01  0.15008605666E-01  0.15439376915E-01  0.27781747747E-01  0.51100000000E-03 0. -1.
</event>
<event>
 8    1  0.2959109E+004  0.1043930E+01  0.7957747E-01            NaN
         13   -1    0    0    0    0  0.00000000000E+00  0.00000000000E+00  0.74505805969E-08  0.10566000000E+00  0.10566000000E+00 0.  1.
     999900   -1    0    0    0    0 -0.00000000000E+00 -0.00000000000E+00 -0.74505805969E-08  0.93827000000E+00  0.93827000000E+00 0. -1.
     999902    2    1    2    0    0  0.54844134112E-02  0.80177499496E-02 -0.51581715995E-02  0.10329313710E+01  0.10328728128E+01 0.  0.
     999903    2    3    3    0    0  0.10234762528E-01 -0.10318320083E+00  0.84276420138E-01  0.14142323116E+00  0.46330249550E-01 0.  0.
         14    1    1    2    0    0 -0.54844134112E-02 -0.80177499496E-02  0.51581715995E-02  0.10998628959E-01  0.00000000000E+00 0.  1.
     999901    1    3    3    0    0 -0.47503491168E-02  0.11120095078E+00 -0.89434591738E-01  0.89150813988E+00  0.88000000000E+00 0. -1.
        -11    1    4    4    0    0  0.14879832304E-02 -0.33841002845E-01  0.57177503334E-01  0.66460180380E-01  0.51100000000E-03 0. -1.
         11    1    4    4    0    0  0.87467792975E-02 -0.69342197986E-01  0.27098916804E-01  0.74963050782E-01  0.51100000000E-03 0.  1.
</event>
<event>
 8    1  0.2959109E+004  0.1043930E+01  0.7957747E-01            NaN
         13   -1    0    0    0    0  0.00000000000E+00  0.00000000000E+00  0.74505805969E-08  0.10566000000E+00  0.10566000000E+00 0. -1.
     999900   -1    0    0    0    0 -0.00000000000E+00 -0.00000000000E+00 -0.74505805969E-08  0.93827000000E+00  0.93827000000E+00 0.  1.
     999902    2    1    2    0    0 -0.11020327067E-01 -0.29310125797E-02  0.77275818306E-02  0.10301548788E+01  0.10300627749E+01 0.  0.
     999903    2    3    3    0    0  0.10542214975E+00  0.40440070489E-01 -0.67913467787E-01  0.13821235282E+00  0.41727525749E-01 0.  0.
         14    1    1    2    0    0  0.11020327067E-01  0.29310125797E-02 -0.77275818306E-02  0.13775121210E-01  0.00000000000E+00 0.  1.
     999901    1    3    3    0    0 -0.11644247682E+00 -0.43371083069E-01  0.75641049617E-01  0.89194252597E+00  0.88000000000E+00 0. -1.
        -11    1    4    4    0    0  0.79052983727E-01  0.12073114549E-01 -0.34646038413E-01  0.87153562347E-01  0.51100000000E-03 0. -1.
         11    1    4    4    0    0  0.26369166022E-01  0.28366955940E-01 -0.33267429373E-01  0.51058790468E-01  0.51100000000E-03 0.  1.
</event>
<event>
 8    1  0.2959109E+004  0.1043930E+01  0.7957747E-01            NaN
         13   -1    0    0    0    0  0.00000000000E+00  0.00000000000E+00  0.74505805969E-08  0.10566000000E+00  0.10566000000E+00 0. -1.
     999900   -1    0    0    0    0 -0.00000000000E+00 -0.00000000000E+00 -0.74505805969E-08  0.93827000000E+00  0.93827000000E+00 0. -1.
     999902    2    1    2    0    0 -0.82911349335E-02 -0.13579144036E-01  0.95855894575E-02  0.10253552969E+01  0.10251870391E+01 0.  0.
     999903    2    3    3    0    0 -0.11317980259E+00 -0.63039346394E-01 -0.10298082081E-01  0.13752462348E+00  0.44981603565E-01 0.  0.
         14    1    1    2    0    0  0.82911349335E-02  0.13579144036E-01 -0.95855894575E-02  0.18574703133E-01  0.00000000000E+00 0. -1.
     999901    1    3    3    0    0  0.10488866766E+00  0.49460202358E-01  0.19883671539E-01  0.88783067339E+00  0.88000000000E+00 0.  1.
        -11    1    4    4    0    0 -0.39297720562E-01 -0.10729343669E-01  0.15188028689E-01  0.43478350859E-01  0.51100000000E-03 0. -1.
         11    1    4    4    0    0 -0.73882082029E-01 -0.52310002724E-01 -0.25486110770E-01  0.94046272617E-01  0.51100000000E-03 0.  1.
</event>
<event>
 8    1  0.2959109E+004  0.1043930E+01  0.7957747E-01            NaN
         13   -1    0    0    0    0  0.00000000000E+00  0.00000000000E+00  0.74505805969E-08  0.10566000000E+00  0.10566000000E+00 0. -1.
     999900   -1    0    0    0    0 -0.00000000000E+00 -0.00000000000E+00 -0.74505805969E-08  0.93827000000E+00  0.93827000000E+00 0.  1.
     999902    2    1    2    0    0  0.13565703498E-02 -0.40893040236E-02 -0.13112669766E-01  0.10301276524E+01  0.10300351817E+01 0.  0.
     999903    2    3    3    0    0 -0.89170257157E-01  0.97448739647E-01 -0.16195216446E-01  0.13967013916E+00  0.42401310331E-01 0.  0.
         14    1    1    2    0    0 -0.13565703498E-02  0.40893040236E-02  0.13112669766E-01  0.13802347586E-01  0.00000000000E+00 0. -1.
     999901    1    3    3    0    0  0.90526827506E-01 -0.10153804367E+00  0.30825466799E-02  0.89045751325E+00  0.88000000000E+00 0. -1.
        -11    1    4    4    0    0 -0.52254896177E-01  0.68926154564E-01  0.84480207240E-02  0.86908107404E-01  0.51100000000E-03 0.  1.
         11    1    4    4    0    0 -0.36915360980E-01  0.28522585084E-01 -0.24643237170E-01  0.52762031759E-01  0.51100000000E-03 0. -1.
</event>
<event>
 8    1  0.2959109E+004  0.1043930E+01  0.7957747E-01            NaN
         13   -1    0    0    0    0  0.00000000000E+00  0.00000000000E+00  0.74505805969E-08  0.10566000000E+00  0.10566000000E+00 0. -1.
     999900   -1    0    0    0    0 -0.00000000000E+00 -0.00000000000E+00 -0.74505805969E-08  0.93827000000E+00  0.93827000000E+00 0.  1.
     999902    2    1    2    0    0 -0.19647119826E-01  0.89388021582E-02 -0.23564160089E-02  0.10222167737E+01  0.10219861389E+01 0.  0.
     999903    2    3    3    0    0 -0.12342417840E+00 -0.11202536542E-01  0.25241003190E-01  0.13546034208E+00  0.48511559393E-01 0.  0.
         14    1    1    2    0    0  0.19647119826E-01 -0.89388021582E-02  0.23564160089E-02  0.21713226335E-01  0.00000000000E+00 0. -1.
     999901    1    3    3    0    0  0.10377705858E+00  0.20141338701E-01 -0.27597419199E-01  0.88675643159E+00  0.88000000000E+00 0.  1.
        -11    1    4    4    0    0 -0.10096211464E+00 -0.18449173139E-01  0.24767575293E-02  0.10266506724E+00  0.51100000000E-03 0.  1.
         11    1    4    4    0    0 -0.22462063765E-01  0.72466365970E-02  0.22764245661E-01  0.32795274844E-01  0.51100000000E-03 0. -1.
</event>
<event>
 8    1  0.2959109E+004  0.1043930E+01  0.7957747E-01            NaN
         13   -1    0    0    0    0  0.00000000000E+00  0.00000000000E+00  0.74505805969E-08  0.10566000000E+00  0.10566000000E+00 0. -1.
     999900   -1    0    0    0    0 -0.00000000000E+00 -0.00000000000E+00 -0.74505805969E-08  0.93827000000E+00  0.93827000000E+00 0.  1.
     999902    2    1    2    0    0  0.24115446435E-02  0.87622026636E-02 -0.12860219934E-01  0.10281827145E+01  0.10280621175E+01 0.  0.
     999903    2    3    3    0    0 -0.90342896956E-02  0.13127388243E+00  0.77081863948E-02  0.13938398695E+00  0.45321397600E-01 0.  0.
         14    1    1    2    0    0 -0.24115446435E-02 -0.87622026636E-02  0.12860219934E-01  0.15747285475E-01  0.00000000000E+00 0. -1.
     999901    1    3    3    0    0  0.11445834339E-01 -0.12251167977E+00 -0.20568406329E-01  0.88879872758E+00  0.88000000000E+00 0. -1.
        -11    1    4    4    0    0  0.22505767490E-02  0.11717105704E+00 -0.49885648461E-02  0.11729990879E+00  0.51100000000E-03 0.  1.
         11    1    4    4    0    0 -0.11284866445E-01  0.14102825398E-01  0.12696751241E-01  0.22084078155E-01  0.51100000000E-03 0. -1.
</event>
<event>
 8    1  0.2959109E+004  0.1043930E+01  0.7957747E-01            NaN
         13   -1    0    0    0    0  0.00000000000E+00  0.00000000000E+00  0.74505805969E-08  0.10566000000E+00  0.10566000000E+00 0.  1.
     999900   -1    0    0    0    0 -0.00000000000E+00 -0.00000000000E+00 -0.74505805969E-08  0.93827000000E+00  0.93827000000E+00 0.  1.
     999902    2    1    2    0    0 -0.12872598035E-01 -0.59157865663E-02 -0.31763899905E-03  0.10297595658E+01  0.10296620621E+01 0.  0.
     999903    2    3    3    0    0 -0.54743931577E-01 -0.61187825229E-01  0.10540684016E+00  0.14072308043E+00  0.44176186019E-01 0.  0.
         14    1    1    2    0    0  0.12872598035E-01  0.59157865663E-02  0.31763899905E-03  0.14170434200E-01  0.00000000000E+00 0. -1.
     999901    1    3    3    0    0  0.41871333542E-01  0.55272038662E-01 -0.10572447916E+00  0.88903648537E+00  0.88000000000E+00 0.  1.
        -11    1    4    4    0    0 -0.44273792999E-01 -0.66322092056E-01  0.99878861388E-01  0.12780781163E+00  0.51100000000E-03 0.  1.
         11    1    4    4    0    0 -0.10470138578E-01  0.51342668280E-02  0.55279787749E-02  0.12915268795E-01  0.51100000000E-03 0. -1.
</event>
<event>
 8    1  0.2959109E+004  0.1043930E+01  0.7957747E-01            NaN
         13   -1    0    0    0    0  0.00000000000E+00  0.00000000000E+00  0.74505805969E-08  0.10566000000E+00  0.10566000000E+00 0.  1.
     999900   -1    0    0    0    0 -0.00000000000E+00 -0.00000000000E+00 -0.74505805969E-08  0.93827000000E+00  0.93827000000E+00 0.  1.
     999902    2    1    2    0    0  0.20617758442E-02 -0.12876709297E-01  0.48246181090E-02  0.10300254144E+01  0.10299315592E+01 0.  0.
     999903    2    3    3    0    0  0.11297674498E+00 -0.15069527178E-01 -0.67776456650E-01  0.14009403786E+00  0.45186898666E-01 0.  0.
         14    1    1    2    0    0 -0.20617758442E-02  0.12876709297E-01 -0.48246181090E-02  0.13904585641E-01  0.00000000000E+00 0.  1.
     999901    1    3    3    0    0 -0.11091496914E+00  0.21928178819E-02  0.72601074759E-01  0.88993137650E+00  0.88000000000E+00 0. -1.
        -11    1    4    4    0    0  0.35275363134E-01 -0.83839457154E-02  0.75869042044E-03  0.36269526081E-01  0.51100000000E-03 0.  1.
         11    1    4    4    0    0  0.77701381847E-01 -0.66855814630E-02 -0.68535147071E-01  0.10382451178E+00  0.51100000000E-03 0. -1.
</event>
<event>
 8    1  0.2959109E+004  0.1043930E+01  0.7957747E-01            NaN
         13   -1    0    0    0    0  0.00000000000E+00  0.00000000000E+00  0.74505805969E-08  0.10566000000E+00  0.10566000000E+00 0. -1.
     999900   -1    0    0    0    0 -0.00000000000E+00 -0.00000000000E+00 -0.74505805969E-08  0.93827000000E+00  0.93827000000E+00 0. -1.
     999902    2    1    2    0    0  0.36579734030E-02 -0.89901912815E-02  0.96249830450E-02  0.10302608886E+01  0.10301702063E+01 0.  0.
     999903    2    3    3    0    0 -0.13404150771E-01  0.63234765035E-01  0.11473170043E+00  0.14090438950E+00  0.50123618481E-01 0.  0.
         14    1    1    2    0    0 -0.36579734030E-02  0.89901912815E-02 -0.96249830450E-02  0.13669111431E-01  0.00000000000E+00 0. -1.
     999901    1    3    3    0    0  0.17062124174E-01 -0.72224956317E-01 -0.10510671739E+00  0.88935649907E+00  0.88000000000E+00 0. -1.
        -11    1    4    4    0    0  0.59707443583E-03  0.75951628210E-02  0.63581163747E-01  0.64038023865E-01  0.51100000000E-03 0.  1.
         11    1    4    4    0    0 -0.14001225206E-01  0.55639602214E-01  0.51150536684E-01  0.76866365635E-01  0.51100000000E-03 0. -1.
</event>
<event>
 8    1  0.2959109E+004  0.1043930E+01  0.7957747E-01            NaN
         13   -1    0    0    0    0  0.00000000000E+00  0.00000000000E+00  0.74505805969E-08  0.10566000000E+00  0.10566000000E+00 0. -1.
     999900   -1    0    0    0    0 -0.00000000000E+00 -0.00000000000E+00 -0.74505805969E-08  0.93827000000E+00  0.93827000000E+00 0.  1.
     999902    2    1    2    0    0 -0.59977679762E-02 -0.83484623018E-02 -0.93497157984E-02  0.10300344169E+01  0.10299406841E+01 0.  0.
     999903    2    3    3    0    0 -0.46785740971E-01  0.11846703788E+00 -0.34875228238E-01  0.13964271570E+00  0.45392310810E-01 0.  0.
         14    1    1    2    0    0  0.59977679762E-02  0.83484623018E-02  0.93497157984E-02  0.13895583076E-01  0.00000000000E+00 0. -1.
     999901    1    3    3    0    0  0.40787972995E-01 -0.12681550018E+00  0.25525512439E-01  0.89039170123E+00  0.88000000000E+00 0.  1.
        -11    1    4    4    0    0 -0.20073661400E-01  0.64519341847E-01  0.44784182608E-02  0.67720120389E-01  0.51100000000E-03 0.  1.
         11    1    4    4    0    0 -0.26712079571E-01  0.53947696032E-01 -0.39353646498E-01  0.71922595309E-01  0.51100000000E-03 0. -1.
</event>
<event>
 8    1  0.2959109E+004  0.1043930E+01  0.7957747E-01            NaN
         13   -1    0    0    0    0  0.00000000000E+00  0.00000000000E+00  0.74505805969E-08  0.10566000000E+00  0.10566000000E+00 0. -1.
     999900   -1    0    0    0    0 -0.00000000000E+00 -0.00000000000E+00 -0.74505805969E-08  0.93827000000E+00  0.93827000000E+00 0.  1.
     999902    2    1    2    0    0  0.65106634041E-03  0.10239321269E-01 -0.11877638234E-01  0.10282345906E+01  0.10281147929E+01 0.  0.
     999903    2    3    3    0    0 -0.21991370362E-01 -0.12422308560E+00 -0.31917245805E-01  0.13750769377E+00  0.44437145495E-01 0.  0.
         14    1    1    2    0    0 -0.65106634041E-03 -0.10239321269E-01  0.11877638234E-01  0.15695409439E-01  0.00000000000E+00 0. -1.
     999901    1    3    3    0    0  0.22642436702E-01  0.13446240687E+00  0.20039607571E-01  0.89072689679E+00  0.88000000000E+00 0.  1.
        -11    1    4    4    0    0  0.20496577554E-02 -0.63990998341E-01  0.25231778920E-02  0.64075553164E-01  0.51100000000E-03 0.  1.
         11    1    4    4    0    0 -0.24041028117E-01 -0.60232087257E-01 -0.34440423697E-01  0.73432140604E-01  0.51100000000E-03 0. -1.
</event>
<event>
 8    1  0.2959109E+004  0.1043930E+01  0.7957747E-01            NaN
         13   -1    0    0    0    0  0.00000000000E+00  0.00000000000E+00  0.74505805969E-08  0.10566000000E+00  0.10566000000E+00 0.  1.
     999900   -1    0    0    0    0 -0.00000000000E+00 -0.00000000000E+00 -0.74505805969E-08  0.93827000000E+00  0.93827000000E+00 0. -1.
     999902    2    1    2    0    0  0.39964173733E-02  0.12640650699E-02 -0.12958886544E-01  0.10303100898E+01  0.10302200635E+01 0.  0.
     999903    2    3    3    0    0 -0.69409984302E-01  0.71061724671E-02  0.11114146182E+00  0.13855702621E+00  0.44467756507E-01 0.  0.
         14    1    1    2    0    0 -0.39964173733E-02 -0.12640650699E-02  0.12958886544E-01  0.13619910161E-01  0.00000000000E+00 0. -1.
     999901    1    3    3    0    0  0.73406401675E-01 -0.58421073971E-02 -0.12410034837E+00  0.89175306363E+00  0.88000000000E+00 0. -1.
        -11    1    4    4    0    0 -0.70346013536E-01  0.13111235224E-01  0.82219400619E-01  0.10899888563E+00  0.51100000000E-03 0. -1.
         11    1    4    4    0    0  0.93602923331E-03 -0.60050627568E-02  0.28922061202E-01  0.29558140581E-01  0.51100000000E-03 0.  1.
</event>
<event>
 8    1  0.2959109E+004  0.1043930E+01  0.7957747E-01            NaN
         13   -1    0    0    0    0  0.00000000000E+00  0.00000000000E+00  0.74505805969E-08  0.10566000000E+00  0.10566000000E+00 0. -1.
     999900   -1    0    0    0    0 -0.00000000000E+00 -0.00000000000E+00 -0.74505805969E-08  0.93827000000E+00  0.93827000000E+00 0.  1.
     999902    2    1    2    0    0  0.10335886717E-01 -0.76741334540E-02  0.51738330311E-02  0.10300558720E+01  0.10299624304E+01 0.  0.
     999903    2    3    3    0    0 -0.46645331698E-01 -0.69788971621E-01 -0.10099045690E+00  0.13967619525E+00  0.47582345538E-01 0.  0.
         14    1    1    2    0    0 -0.10335886717E-01  0.76741334540E-02 -0.51738330311E-02  0.13874127963E-01  0.00000000000E+00 0.  1.
     999901    1    3    3    0    0  0.56981218415E-01  0.62114838167E-01  0.10616428993E+00  0.89037967678E+00  0.88000000000E+00 0. -1.
        -11    1    4    4    0    0 -0.52500150272E-01 -0.40387403451E-01 -0.64599818776E-01  0.92524622901E-01  0.51100000000E-03 0. -1.
         11    1    4    4    0    0  0.58548185740E-02 -0.29401568170E-01 -0.36390638122E-01  0.47151572352E-01  0.51100000000E-03 0.  1.
</event>
<event>
 8    1  0.2959109E+004  0.1043930E+01  0.7957747E-01            NaN
         13   -1    0    0    0    0  0.00000000000E+00  0.00000000000E+00  0.74505805969E-08  0.10566000000E+00  0.10566000000E+00 0.  1.
     999900   -1    0    0    0    0 -0.00000000000E+00 -0.00000000000E+00 -0.74505805969E-08  0.93827000000E+00  0.93827000000E+00 0.  1.
     999902    2    1    2    0    0 -0.43186287642E-02  0.13323904417E-01 -0.73878054182E-02  0.10280947023E+01  0.10279727430E+01 0.  0.
     999903    2    3    3    0    0 -0.74986820528E-01  0.87101876516E-01 -0.66715535611E-01  0.14020002273E+00  0.44669044503E-01 0.  0.
         14    1    1    2    0    0  0.43186287642E-02 -0.13323904417E-01  0.73878054182E-02  0.15835297667E-01  0.00000000000E+00 0. -1.
     999901    1    3    3    0    0  0.70668191764E-01 -0.73777972099E-01  0.59327730193E-01  0.88789467960E+00  0.88000000000E+00 0. -1.
        -11    1    4    4    0    0 -0.50004684943E-01  0.33344684511E-01 -0.16032041071E-01  0.62206301636E-01  0.51100000000E-03 0.  1.
         11    1    4    4    0    0 -0.24982135585E-01  0.53757192005E-01 -0.50683494539E-01  0.77993721096E-01  0.51100000000E-03 0. -1.
</event>
<event>
 8    1  0.2959109E+004  0.1043930E+01  0.7957747E-01            NaN
         13   -1    0    0    0    0  0.00000000000E+00  0.00000000000E+00  0.74505805969E-08  0.10566000000E+00  0.10566000000E+00 0. -1.
     999900   -1    0    0    0    0 -0.00000000000E+00 -0.00000000000E+00 -0.74505805969E-08  0.93827000000E+00  0.93827000000E+00 0.  1.
     999902    2    1    2    0    0 -0.36781777979E-02 -0.14155775823E-01  0.23373578910E-02  0.10291185780E+01  0.10290119869E+01 0.  0.
     999903    2    3    3    0    0 -0.42122733569E-01  0.70821598294E-01  0.10234637919E+00  0.13855642834E+00  0.43966794660E-01 0.  0.
         14    1    1    2    0    0  0.36781777979E-02  0.14155775823E-01 -0.23373578910E-02  0.14811422045E-01  0.00000000000E+00 0. -1.
     999901    1    3    3    0    0  0.38444555771E-01 -0.84977374118E-01 -0.10000902130E+00  0.89056214961E+00  0.88000000000E+00 0.  1.
        -11    1    4    4    0    0 -0.28876980055E-01  0.59821823601E-01  0.10150623864E+00  0.12131079160E+00  0.51100000000E-03 0. -1.
         11    1    4    4    0    0 -0.13245753514E-01  0.10999774694E-01  0.84014055873E-03  0.17245636741E-01  0.51100000000E-03 0.  1.
</event>
<event>
 8    1  0.2959109E+004  0.1043930E+01  0.7957747E-01            NaN
         13   -1    0    0    0    0  0.00000000000E+00  0.00000000000E+00  0.74505805969E-08  0.10566000000E+00  0.10566000000E+00 0. -1.
     999900   -1    0    0    0    0 -0.00000000000E+00 -0.00000000000E+00 -0.74505805969E-08  0.93827000000E+00  0.93827000000E+00 0.  1.
     999902    2    1    2    0    0  0.56332628819E-02  0.64336210031E-02  0.10895648689E-01  0.10300793578E+01  0.10299862344E+01 0.  0.
     999903    2    3    3    0    0 -0.65399426575E-01  0.93563442238E-01  0.68982477573E-01  0.14102855584E+00  0.45817776355E-01 0.  0.
         14    1    1    2    0    0 -0.56332628819E-02 -0.64336210031E-02 -0.10895648689E-01  0.13850642233E-01  0.00000000000E+00 0.  1.
     999901    1    3    3    0    0  0.71032689456E-01 -0.87129821235E-01 -0.58086828885E-01  0.88905080193E+00  0.88000000000E+00 0.  1.
        -11    1    4    4    0    0 -0.61039164939E-02  0.35200736613E-01  0.38226745346E-01  0.52324896898E-01  0.51100000000E-03 0. -1.
         11    1    4    4    0    0 -0.59295510081E-01  0.58362705625E-01  0.30755732228E-01  0.88703658941E-01  0.51100000000E-03 0.  1.
</event>
<event>
 8    1  0.2959109E+004  0.1043930E+01  0.7957747E-01            NaN
         13   -1    0    0    0    0  0.00000000000E+00  0.00000000000E+00  0.74505805969E-08  0.10566000000E+00  0.10566000000E+00 0. -1.
     999900   -1    0    0    0    0 -0.00000000000E+00 -0.00000000000E+00 -0.74505805969E-08  0.93827000000E+00  0.93827000000E+00 0.  1.
     999902    2    1    2    0    0 -0.10785287930E-01 -0.55639529553E-02 -0.52504205768E-02  0.10307070304E+01  0.10306222080E+01 0.  0.
     999903    2    3    3    0    0  0.27424344087E-01  0.76195018597E-01  0.10409883036E+00  0.13935874603E+00  0.45016864678E-01 0.  0.
         14    1    1    2    0    0  0.10785287930E-01  0.55639529553E-02  0.52504205768E-02  0.13222969578E-01  0.00000000000E+00 0.  1.
     999901    1    3    3    0    0 -0.38209632017E-01 -0.81758971553E-01 -0.10934925094E+00  0.89134828439E+00  0.88000000000E+00 0.  1.
        -11    1    4    4    0    0  0.24944962863E-02  0.13125279231E-01  0.52405652533E-01  0.54084276874E-01  0.51100000000E-03 0. -1.
         11    1    4    4    0    0  0.24929847801E-01  0.63069739367E-01  0.51693177826E-01  0.85274469156E-01  0.51100000000E-03 0.  1.
</event>
<event>
 8    1  0.2959109E+004  0.1043930E+01  0.7957747E-01            NaN
         13   -1    0    0    0    0  0.00000000000E+00  0.00000000000E+00  0.74505805969E-08  0.10566000000E+00  0.10566000000E+00 0. -1.
     999900   -1    0    0    0    0 -0.00000000000E+00 -0.00000000000E+00 -0.74505805969E-08  0.93827000000E+00  0.93827000000E+00 0.  1.
     999902    2    1    2    0    0  0.69264284718E-02 -0.10035530034E-02  0.12230273394E-01  0.10298387929E+01  0.10297423839E+01 0.  0.
     999903    2    3    3    0    0 -0.92040504396E-01  0.91991783870E-01  0.24921221097E-01  0.13933127097E+00  0.43106763496E-01 0.  0.
         14    1    1    2    0    0 -0.69264284718E-02  0.10035530034E-02 -0.12230273394E-01  0.14091207091E-01  0.00000000000E+00 0.  1.
     999901    1    3    3    0    0  0.98966932868E-01 -0.92995336873E-01 -0.12690947704E-01  0.89050752194E+00  0.88000000000E+00 0.  1.
        -11    1    4    4    0    0 -0.14385990222E-01  0.33814791735E-01 -0.65367070377E-02  0.37328092835E-01  0.51100000000E-03 0. -1.
         11    1    4    4    0    0 -0.77654514174E-01  0.58176992134E-01  0.31457928135E-01  0.10200317813E+00  0.51100000000E-03 0.  1.
</event>
<event>
 8    1  0.2959109E+004  0.1043930E+01  0.7957747E-01            NaN
         13   -1    0    0    0    0  0.00000000000E+00  0.00000000000E+00  0.74505805969E-08  0.10566000000E+00  0.10566000000E+00 0.  1.
     999900   -1    0    0    0    0 -0.00000000000E+00 -0.00000000000E+00 -0.74505805969E-08  0.93827000000E+00  0.93827000000E+00 0.  1.
     999902    2    1    2    0    0 -0.45846320313E-02 -0.10992391280E-01 -0.74540581518E-02  0.10298795730E+01  0.10297837250E+01 0.  0.
     999903    2    3    3    0    0  0.36698204668E-01  0.57334557598E-01 -0.11291934271E+00  0.13999431587E+00  0.47049131733E-01 0.  0.
         14    1    1    2    0    0  0.45846320313E-02  0.10992391280E-01  0.74540581518E-02  0.14050427035E-01  0.00000000000E+00 0. -1.
     999901    1    3    3    0    0 -0.41282836699E-01 -0.68326948879E-01  0.10546528456E+00  0.88988525710E+00  0.88000000000E+00 0. -1.
        -11    1    4    4    0    0 -0.67273328135E-02  0.27708720270E-01 -0.27026449571E-01  0.39290205945E-01  0.51100000000E-03 0.  1.
         11    1    4    4    0    0  0.43425537481E-01  0.29625837329E-01 -0.85892893139E-01  0.10070410992E+00  0.51100000000E-03 0. -1.
</event>
<event>
 8    1  0.2959109E+004  0.1043930E+01  0.7957747E-01            NaN
         13   -1    0    0    0    0  0.00000000000E+00  0.00000000000E+00  0.74505805969E-08  0.10566000000E+00  0.10566000000E+00 0. -1.
     999900   -1    0    0    0    0 -0.00000000000E+00 -0.00000000000E+00 -0.74505805969E-08  0.93827000000E+00  0.93827000000E+00 0. -1.
     999902    2    1    2    0    0 -0.12864349010E-01 -0.33309885591E-02 -0.35840344613E-03  0.10306365650E+01  0.10305508303E+01 0.  0.
     999903    2    3    3    0    0 -0.39908139880E-01 -0.12790484785E+00 -0.12076433323E-01  0.14137432853E+00  0.43457459583E-01 0.  0.
         14    1    1    2    0    0  0.12864349010E-01  0.33309885591E-02  0.35840344613E-03  0.13293434968E-01  0.00000000000E+00 0. -1.
     999901    1    3    3    0    0  0.27043790870E-01  0.12457385929E+00  0.11718029877E-01  0.88926223650E+00  0.88000000000E+00 0. -1.
        -11    1    4    4    0    0 -0.34828593051E-01 -0.41295254289E-01 -0.24120792636E-02  0.54077797367E-01  0.51100000000E-03 0. -1.
         11    1    4    4    0    0 -0.50795468293E-02 -0.86609593561E-01 -0.96643540599E-02  0.87296531164E-01  0.51100000000E-03 0.  1.
</event>
<event>
 8    1  0.2959109E+004  0.1043930E+01  0.7957747E-01            NaN
         13   -1    0    0    0    0  0.00000000000E+00  0.00000000000E+00  0.74505805969E-08  0.10566000000E+00  0.10566000000E+00 0.  1.
     999900   -1    0    0    0    0 -0.00000000000E+00 -0.00000000000E+00 -0.74505805969E-08  0.93827000000E+00  0.93827000000E+00 0.  1.
     999902    2    1    2    0    0 -0.11180683317E-01 -0.93662286362E-02 -0.19236509732E-02  0.10292182920E+01  0.10291131416E+01 0.  0.
     999903    2    3    3    0    0  0.86664558349E-01 -0.97991375961E-01  0.14764609530E-01  0.13921458075E+00  0.45273064423E-01 0.  0.
         14    1    1    2    0    0  0.11180683317E-01  0.93662286362E-02  0.19236509732E-02  0.14711707969E-01  0.00000000000E+00 0.  1.
     999901    1    3    3    0    0 -0.97845241666E-01  0.88625147325E-01 -0.16688260503E-01  0.89000371128E+00  0.88000000000E+00 0.  1.
        -11    1    4    4    0    0  0.64543963206E-01 -0.50294724184E-01 -0.73860316077E-02  0.82160191400E-01  0.51100000000E-03 0.  1.
         11    1    4    4    0    0  0.22120595143E-01 -0.47696651777E-01  0.22150641138E-01  0.57054389350E-01  0.51100000000E-03 0. -1.
</event>
<event>
 8    1  0.2959109E+004  0.1043930E+01  0.7957747E-01            NaN
         13   -1    0    0    0    0  0.00000000000E+00  0.00000000000E+00  0.74505805969E-08  0.10566000000E+00  0.10566000000E+00 0. -1.
     999900   -1    0    0    0    0 -0.00000000000E+00 -0.00000000000E+00 -0.74505805969E-08  0.93827000000E+00  0.93827000000E+00 0. -1.
     999902    2    1    2    0    0 -0.12787035153E-01 -0.88321121669E-03 -0.52527958063E-02  0.10300779173E+01  0.10299847745E+01 0.  0.
     999903    2    3    3    0    0 -0.67278608275E-01  0.10205882983E-01 -0.11550121019E+00  0.14145706883E+00  0.45155305181E-01 0.  0.
         14    1    1    2    0    0  0.12787035153E-01  0.88321121669E-03  0.52527958063E-02  0.13852082653E-01  0.00000000000E+00 0. -1.
     999901    1    3    3    0    0  0.54491573123E-01 -0.11089094200E-01  0.11024841439E+00  0.88862084852E+00  0.88000000000E+00 0.  1.
        -11    1    4    4    0    0 -0.53109525351E-01 -0.52800759203E-02 -0.51770735244E-01  0.74357051000E-01  0.51100000000E-03 0.  1.
         11    1    4    4    0    0 -0.14169082924E-01  0.15485958904E-01 -0.63730474948E-01  0.67100017826E-01  0.51100000000E-03 0. -1.
</event>
<event>
 8    1  0.2959109E+004  0.1043930E+01  0.7957747E-01            NaN
         13   -1    0    0    0    0  0.00000000000E+00  0.00000000000E+00  0.74505805969E-08  0.10566000000E+00  0.10566000000E+00 0.  1.
     999900   -1    0    0    0    0 -0.00000000000E+00 -0.00000000000E+00 -0.74505805969E-08  0.93827000000E+00  0.93827000000E+00 0. -1.
     999902    2    1    2    0    0  0.12366267196E-01  0.45341024178E-02  0.55325656617E-02  0.10296439252E+01  0.10295448125E+01 0.  0.
     999903    2    3    3    0    0  0.96534411554E-02  0.98255454472E-01 -0.88319494555E-01  0.13970052229E+00  0.44368677579E-01 0.  0.
         14    1    1    2    0    0 -0.12366267196E-01 -0.45341024178E-02 -0.55325656617E-02  0.14286074755E-01  0.00000000000E+00 0. -1.
     999901    1    3    3    0    0  0.27128260407E-02 -0.93721352054E-01  0.93852060216E-01  0.88994340295E+00  0.88000000000E+00 0.  1.
        -11    1    4    4    0    0 -0.14322745130E-01  0.54058078628E-01 -0.59864045446E-01  0.81923024549E-01  0.51100000000E-03 0. -1.
         11    1    4    4    0    0  0.23976186286E-01  0.44197375844E-01 -0.28455449109E-01  0.57777497741E-01  0.51100000000E-03 0.  1.
</event>
<event>
 8    1  0.2959109E+004  0.1043930E+01  0.7957747E-01            NaN
         13   -1    0    0    0    0  0.00000000000E+00  0.00000000000E+00  0.74505805969E-08  0.10566000000E+00  0.10566000000E+00 0.  1.
     999900   -1    0    0    0    0 -0.00000000000E+00 -0.00000000000E+00 -0.74505805969E-08  0.93827000000E+00  0.93827000000E+00 0.  1.
     999902    2    1    2    0    0 -0.10547169973E-01  0.65991888104E-02  0.74989930028E-02  0.10294032322E+01  0.10293007274E+01 0.  0.
     999903    2    3    3    0    0 -0.11681096325E+00 -0.17202292122E-01  0.65507471732E-01  0.14079562031E+00  0.39893080324E-01 0.  0.
         14    1    1    2    0    0  0.10547169973E-01 -0.65991888104E-02 -0.74989930028E-02  0.14526767825E-01  0.00000000000E+00 0.  1.
     999901    1    3    3    0    0  0.10626379327E+00  0.23801480932E-01 -0.58008478729E-01  0.88860761186E+00  0.88000000000E+00 0.  1.
        -11    1    4    4    0    0 -0.51423993718E-01 -0.32191077799E-02  0.50742086629E-01  0.72317427093E-01  0.51100000000E-03 0. -1.
         11    1    4    4    0    0 -0.65386969528E-01 -0.13983184342E-01  0.14765385102E-01  0.68478193219E-01  0.51100000000E-03 0.  1.
</event>
<event>
 8    1  0.2959109E+004  0.1043930E+01  0.7957747E-01            NaN
         13   -1    0    0    0    0  0.00000000000E+00  0.00000000000E+00  0.74505805969E-08  0.10566000000E+00  0.10566000000E+00 0. -1.
     999900   -1    0    0    0    0 -0.00000000000E+00 -0.00000000000E+00 -0.74505805969E-08  0.93827000000E+00  0.93827000000E+00 0. -1.
     999902    2    1    2    0    0 -0.41461094985E-02 -0.50587788329E-02  0.11417643883E-01  0.10307715784E+01  0.10306875874E+01 0.  0.
     999903    2    3    3    0    0  0.46596653293E-01 -0.11617245095E+00 -0.45439804468E-01  0.14051664550E+00  0.44864968242E-01 0.  0.
         14    1    1    2    0    0  0.41461094985E-02  0.50587788329E-02 -0.11417643883E-01  0.13158421603E-01  0.00000000000E+00 0. -1.
     999901    1    3    3    0    0 -0.50742762791E-01  0.11111367212E+00  0.56857448351E-01  0.89025493289E+00  0.88000000000E+00 0. -1.
        -11    1    4    4    0    0  0.33833511315E-01 -0.52133209242E-01 -0.42221829280E-01  0.75136688658E-01  0.51100000000E-03 0. -1.
         11    1    4    4    0    0  0.12763141978E-01 -0.64039241709E-01 -0.32179751883E-02  0.65379956845E-01  0.51100000000E-03 0.  1.
</event>
<event>
 8    1  0.2959109E+004  0.1043930E+01  0.7957747E-01            NaN
         13   -1    0    0    0    0  0.00000000000E+00  0.00000000000E+00  0.74505805969E-08  0.10566000000E+00  0.10566000000E+00 0. -1.
     999900   -1    0    0    0    0 -0.00000000000E+00 -0.00000000000E+00 -0.74505805969E-08  0.93827000000E+00  0.93827000000E+00 0. -1.
     999902    2    1    2    0    0  0.11474547965E-01 -0.70133717883E-02 -0.28578618839E-02  0.10301815452E+01  0.10300898000E+01 0.  0.
     999903    2    3    3    0    0 -0.63839275839E-01  0.10006416627E+00 -0.57639161110E-01  0.13881250717E+00  0.43108569261E-01 0.  0.
         14    1    1    2    0    0 -0.11474547965E-01  0.70133717883E-02  0.28578618839E-02  0.13748454800E-01  0.00000000000E+00 0.  1.
     999901    1    3    3    0    0  0.75313823803E-01 -0.10707753805E+00  0.54781299226E-01  0.89136903803E+00  0.88000000000E+00 0.  1.
        -11    1    4    4    0    0 -0.65510817236E-01  0.69291349387E-01 -0.45900745247E-01  0.10583051455E+00  0.51100000000E-03 0.  1.
         11    1    4    4    0    0  0.16715413971E-02  0.30772816879E-01 -0.11738415862E-01  0.32981992621E-01  0.51100000000E-03 0. -1.
</event>
<event>
 8    1  0.2959109E+004  0.1043930E+01  0.7957747E-01            NaN
         13   -1    0    0    0    0  0.00000000000E+00  0.00000000000E+00  0.74505805969E-08  0.10566000000E+00  0.10566000000E+00 0. -1.
     999900   -1    0    0    0    0 -0.00000000000E+00 -0.00000000000E+00 -0.74505805969E-08  0.93827000000E+00  0.93827000000E+00 0. -1.
     999902    2    1    2    0    0 -0.10184137933E-01  0.42486246679E-02 -0.85171308834E-02  0.10299905238E+01  0.10298961939E+01 0.  0.
     999903    2    3    3    0    0  0.11938503368E-01 -0.12999044015E+00 -0.73501526089E-03  0.13950183829E+00  0.49195327469E-01 0.  0.
         14    1    1    2    0    0  0.10184137933E-01 -0.42486246679E-02  0.85171308834E-02  0.13939476155E-01  0.00000000000E+00 0. -1.
     999901    1    3    3    0    0 -0.22122641300E-01  0.13423906482E+00 -0.77821156225E-02  0.89048868556E+00  0.88000000000E+00 0.  1.
        -11    1    4    4    0    0  0.15448581410E-02 -0.12726825644E+00 -0.62143721011E-02  0.12743027593E+00  0.51100000000E-03 0. -1.
         11    1    4    4    0    0  0.10393645227E-01 -0.27221837152E-02  0.54793568402E-02  0.12071562354E-01  0.51100000000E-03 0.  1.
</event>
<event>
 8    1  0.2959109E+004  0.1043930E+01  0.7957747E-01            NaN
         13   -1    0    0    0    0  0.00000000000E+00  0.00000000000E+00  0.74505805969E-08  0.10566000000E+00  0.10566000000E+00 0.  1.
     999900   -1    0    0    0    0 -0.00000000000E+00 -0.00000000000E+00 -0.74505805969E-08  0.93827000000E+00  0.93827000000E+00 0. -1.
     999902    2    1    2    0    0 -0.83382481978E-02 -0.62166941477E-02  0.88335855859E-03  0.10334918971E+01  0.10334391842E+01 0.  0.
     999903    2    3    3    0    0 -0.89730297886E-01  0.37640324267E-01  0.94979817764E-01  0.14365918957E+00  0.46351662269E-01 0.  0.
         14    1    1    2    0    0  0.83382481978E-02  0.62166941477E-02 -0.88335855859E-03  0.10438102868E-01  0.00000000000E+00 0. -1.
     999901    1    3    3    0    0  0.81392049688E-01 -0.43857018415E-01 -0.94096459206E-01  0.88983270756E+00  0.88000000000E+00 0. -1.
        -11    1    4    4    0    0 -0.59050175742E-01 -0.17268009216E-03  0.50308027173E-01  0.77576489948E-01  0.51100000000E-03 0.  1.
         11    1    4    4    0    0 -0.30680122143E-01  0.37813004359E-01  0.44671790591E-01  0.66082699620E-01  0.51100000000E-03 0. -1.
</event>
<event>
 8    1  0.2959109E+004  0.1043930E+01  0.7957747E-01            NaN
         13   -1    0    0    0    0  0.00000000000E+00  0.00000000000E+00  0.74505805969E-08  0.10566000000E+00  0.10566000000E+00 0.  1.
     999900   -1    0    0    0    0 -0.00000000000E+00 -0.00000000000E+00 -0.74505805969E-08  0.93827000000E+00  0.93827000000E+00 0.  1.
     999902    2    1    2    0    0  0.58575405432E-03 -0.45857088056E-02  0.13282160516E-01  0.10298663013E+01  0.10297702710E+01 0.  0.
     999903    2    3    3    0    0 -0.82811752038E-01 -0.69457969527E-01 -0.75384987124E-01  0.13912199607E+00  0.44607596891E-01 0.  0.
         14    1    1    2    0    0 -0.58575405432E-03  0.45857088056E-02 -0.13282160516E-01  0.14063698697E-01  0.00000000000E+00 0. -1.
     999901    1    3    3    0    0  0.83397506093E-01  0.64872260722E-01  0.88667147640E-01  0.89074430523E+00  0.88000000000E+00 0. -1.
        -11    1    4    4    0    0 -0.17995003300E-01 -0.17772170594E-01 -0.43456635942E-01  0.50283302594E-01  0.51100000000E-03 0. -1.
         11    1    4    4    0    0 -0.64816748738E-01 -0.51685798933E-01 -0.31928351183E-01  0.88838693477E-01  0.51100000000E-03 0.  1.
</event>
<event>
 8    1  0.2959109E+004  0.1043930E+01  0.7957747E-01            NaN
         13   -1    0    0    0    0  0.00000000000E+00  0.00000000000E+00  0.74505805969E-08  0.10566000000E+00  0.10566000000E+00 0.  1.
     999900   -1    0    0    0    0 -0.00000000000E+00 -0.00000000000E+00 -0.74505805969E-08  0.93827000000E+00  0.93827000000E+00 0.  1.
     999902    2    1    2    0    0  0.13000891546E-01 -0.71976253799E-02  0.27862524415E-02  0.10288107343E+01  0.10286996330E+01 0.  0.
     999903    2    3    3    0    0  0.43446873091E-01 -0.80969077365E-01 -0.95240687666E-01  0.13977841437E+00  0.44984378030E-01 0.  0.
         14    1    1    2    0    0 -0.13000891546E-01  0.71976253799E-02 -0.27862524415E-02  0.15119265682E-01  0.00000000000E+00 0.  1.
     999901    1    3    3    0    0 -0.30445981545E-01  0.73771451985E-01  0.98026940108E-01  0.88903231995E+00  0.88000000000E+00 0. -1.
        -11    1    4    4    0    0 -0.46994917840E-02 -0.31488872462E-01 -0.41383209367E-01  0.52215567128E-01  0.51100000000E-03 0.  1.
         11    1    4    4    0    0  0.48146364875E-01 -0.49480204903E-01 -0.53857478299E-01  0.87562847245E-01  0.51100000000E-03 0. -1.
</event>
<event>
 8    1  0.2959109E+004  0.1043930E+01  0.7957747E-01            NaN
         13   -1    0    0    0    0  0.00000000000E+00  0.00000000000E+00  0.74505805969E-08  0.10566000000E+00  0.10566000000E+00 0. -1.
     999900   -1    0    0    0    0 -0.00000000000E+00 -0.00000000000E+00 -0.74505805969E-08  0.93827000000E+00  0.93827000000E+00 0. -1.
     999902    2    1    2    0    0 -0.13935515087E-01 -0.14106912433E-03  0.40494902594E-03  0.10299878888E+01  0.10298935229E+01 0.  0.
     999903    2    3    3    0    0 -0.83627177535E-01 -0.19481279393E-02  0.10441570408E+00  0.14112432758E+00  0.44901409239E-01 0.  0.
         14    1    1    2    0    0  0.13935515087E-01  0.14106912433E-03 -0.40494902594E-03  0.13942111209E-01  0.00000000000E+00 0. -1.
     999901    1    3    3    0    0  0.69691662448E-01  0.18070588150E-02 -0.10401075506E+00  0.88886356121E+00  0.88000000000E+00 0. -1.
        -11    1    4    4    0    0 -0.75236919207E-01 -0.16662243414E-01  0.77309181055E-01  0.10915674493E+00  0.51100000000E-03 0. -1.
         11    1    4    4    0    0 -0.83902583288E-02  0.14714115474E-01  0.27106523028E-01  0.31967582653E-01  0.51100000000E-03 0.  1.
</event>
<event>
 8    1  0.2959109E+004  0.1043930E+01  0.7957747E-01            NaN
         13   -1    0    0    0    0  0.00000000000E+00  0.00000000000E+00  0.74505805969E-08  0.10566000000E+00  0.10566000000E+00 0. -1.
     999900   -1    0    0    0    0 -0.00000000000E+00 -0.00000000000E+00 -0.74505805969E-08  0.93827000000E+00  0.93827000000E+00 0. -1.
     999902    2    1    2    0    0  0.10902745036E-01 -0.30366351637E-02  0.76172638011E-02  0.10302876501E+01  0.10301973249E+01 0.  0.
     999903    2    3    3    0    0 -0.86845413714E-01 -0.99845664323E-01  0.11910893624E-01  0.13958841585E+00  0.42799227639E-01 0.  0.
         14    1    1    2    0    0 -0.10902745036E-01  0.30366351637E-02 -0.76172638011E-02  0.13642349880E-01  0.00000000000E+00 0.  1.
     999901    1    3    3    0    0  0.97748158749E-01  0.96809029159E-01 -0.42936298234E-02  0.89069923427E+00  0.88000000000E+00 0. -1.
        -11    1    4    4    0    0 -0.33400854939E-01 -0.23146895752E-01  0.20851751088E-01  0.45677702854E-01  0.51100000000E-03 0. -1.
         11    1    4    4    0    0 -0.53444558774E-01 -0.76698768571E-01 -0.89408574634E-02  0.93910713000E-01  0.51100000000E-03 0.  1.
</event>
<event>
 8    1  0.2959109E+004  0.1043930E+01  0.7957747E-01            NaN
         13   -1    0    0    0    0  0.00000000000E+00  0.00000000000E+00  0.74505805969E-08  0.10566000000E+00  0.10566000000E+00 0.  1.
     999900   -1    0    0    0    0 -0.00000000000E+00 -0.00000000000E+00 -0.74505805969E-08  0.93827000000E+00  0.93827000000E+00 0. -1.
     999902    2    1    2    0    0  0.85987268554E-02  0.56345177753E-02 -0.97900345352E-02  0.10297338502E+01  0.10296359898E+01 0.  0.
     999903    2    3    3    0    0  0.11369621579E+00  0.48107105183E-01  0.47442909746E-01  0.14061911472E+00  0.47768009014E-01 0.  0.
         14    1    1    2    0    0 -0.85987268554E-02 -0.56345177753E-02  0.97900345352E-02  0.14196149841E-01  0.00000000000E+00 0.  1.
     999901    1    3    3    0    0 -0.10509748894E+00 -0.42472587408E-01 -0.57232944282E-01  0.88911473544E+00  0.88000000000E+00 0. -1.
        -11    1    4    4    0    0  0.11001087042E+00  0.56146528656E-01  0.43993107278E-01  0.13111246661E+00  0.51100000000E-03 0.  1.
         11    1    4    4    0    0  0.36853453707E-02 -0.80394234730E-02  0.34498024680E-02  0.95066481131E-02  0.51100000000E-03 0. -1.
</event>
<event>
 8    1  0.2959109E+004  0.1043930E+01  0.7957747E-01            NaN
         13   -1    0    0    0    0  0.00000000000E+00  0.00000000000E+00  0.74505805969E-08  0.10566000000E+00  0.10566000000E+00 0.  1.
     999900   -1    0    0    0    0 -0.00000000000E+00 -0.00000000000E+00 -0.74505805969E-08  0.93827000000E+00  0.93827000000E+00 0.  1.
     999902    2    1    2    0    0 -0.71285055703E-02  0.12214517395E-01  0.16617735196E-02  0.10296902136E+01  0.10295917465E+01 0.  0.
     999903    2    3    3    0    0  0.29737585491E-01 -0.12646158079E+00  0.11980029439E-01  0.13800829982E+00  0.45010157817E-01 0.  0.
         14    1    1    2    0    0  0.71285055703E-02 -0.12214517395E-01 -0.16617735196E-02  0.14239786448E-01  0.00000000000E+00 0.  1.
     999901    1    3    3    0    0 -0.36866091062E-01  0.13867609818E+00 -0.10318255919E-01  0.89168191374E+00  0.88000000000E+00 0.  1.
        -11    1    4    4    0    0  0.41674478337E-01 -0.93059786261E-01  0.10457984001E-01  0.10250130006E+00  0.51100000000E-03 0.  1.
         11    1    4    4    0    0 -0.11936892845E-01 -0.33401794527E-01  0.15220454379E-02  0.35506999756E-01  0.51100000000E-03 0. -1.
</event>
<event>
 8    1  0.2959109E+004  0.1043930E+01  0.7957747E-01            NaN
         13   -1    0    0    0    0  0.00000000000E+00  0.00000000000E+00  0.74505805969E-08  0.10566000000E+00  0.10566000000E+00 0.  1.
     999900   -1    0    0    0    0 -0.00000000000E+00 -0.00000000000E+00 -0.74505805969E-08  0.93827000000E+00  0.93827000000E+00 0.  1.
     999902    2    1    2    0    0  0.49593275228E-02 -0.97748647514E-02  0.95720620361E-02  0.10293777740E+01  0.10292749071E+01 0.  0.
     999903    2    3    3    0    0  0.37853502504E-01 -0.17990225006E-01 -0.12432855757E+00  0.13860345081E+00  0.44685461857E-01 0.  0.
         14    1    1    2    0    0 -0.49593275228E-02  0.97748647514E-02 -0.95720620361E-02  0.14552226016E-01  0.00000000000E+00 0. -1.
     999901    1    3    3    0    0 -0.32894174981E-01  0.82153602544E-02  0.13390061961E+00  0.89077432317E+00  0.88000000000E+00 0. -1.
        -11    1    4    4    0    0  0.22404449397E-01 -0.14423440183E-01 -0.20640393717E-01  0.33708781546E-01  0.51100000000E-03 0.  1.
         11    1    4    4    0    0  0.15449053107E-01 -0.35667848230E-02 -0.10368816385E+00  0.10489466927E+00  0.51100000000E-03 0. -1.
</event>
<event>
 8    1  0.2959109E+004  0.1043930E+01  0.7957747E-01            NaN
         13   -1    0    0    0    0  0.00000000000E+00  0.00000000000E+00  0.74505805969E-08  0.10566000000E+00  0.10566000000E+00 0. -1.
     999900   -1    0    0    0    0 -0.00000000000E+00 -0.00000000000E+00 -0.74505805969E-08  0.93827000000E+00  0.93827000000E+00 0. -1.
     999902    2    1    2    0    0 -0.17946534056E-01 -0.25740276614E-02 -0.99171430131E-02  0.10232647289E+01  0.10230560356E+01 0.  0.
     999903    2    3    3    0    0  0.10440422630E+00 -0.93952416627E-03  0.66281384541E-01  0.13153685801E+00  0.44806226181E-01 0.  0.
         14    1    1    2    0    0  0.17946534056E-01  0.25740276614E-02  0.99171430131E-02  0.20665271074E-01  0.00000000000E+00 0. -1.
     999901    1    3    3    0    0 -0.12235076036E+00 -0.16345034951E-02 -0.76198527554E-01  0.89172787091E+00  0.88000000000E+00 0. -1.
        -11    1    4    4    0    0  0.30382742261E-01  0.14721531467E-01  0.49226376698E-02  0.34122250785E-01  0.51100000000E-03 0.  1.
         11    1    4    4    0    0  0.74021484039E-01 -0.15661055633E-01  0.61358746871E-01  0.97414607228E-01  0.51100000000E-03 0. -1.
</event>
<event>
 8    1  0.2959109E+004  0.1043930E+01  0.7957747E-01            NaN
         13   -1    0    0    0    0  0.00000000000E+00  0.00000000000E+00  0.74505805969E-08  0.10566000000E+00  0.10566000000E+00 0. -1.
     999900   -1    0    0    0    0 -0.00000000000E+00 -0.00000000000E+00 -0.74505805969E-08  0.93827000000E+00  0.93827000000E+00 0. -1.
     999902    2    1    2    0    0 -0.45675302710E-02  0.29323562401E-02 -0.12478606196E-01  0.10303220369E+01  0.10302321695E+01 0.  0.
     999903    2    3    3    0    0 -0.65085807870E-01 -0.54372324446E-01  0.10095085174E+00  0.13913601244E+00  0.44443710883E-01 0.  0.
         14    1    1    2    0    0  0.45675302710E-02 -0.29323562401E-02  0.12478606196E-01  0.13607963054E-01  0.00000000000E+00 0. -1.
     999901    1    3    3    0    0  0.60518277599E-01  0.57304680686E-01 -0.11342945794E+00  0.89118602451E+00  0.88000000000E+00 0. -1.
        -11    1    4    4    0    0 -0.18422746084E-01 -0.33697735884E-01  0.68854304327E-01  0.78842319361E-01  0.51100000000E-03 0.  1.
         11    1    4    4    0    0 -0.46663061787E-01 -0.20674588562E-01  0.32096547417E-01  0.60293693075E-01  0.51100000000E-03 0. -1.
</event>
<event>
 8    1  0.2959109E+004  0.1043930E+01  0.7957747E-01            NaN
         13   -1    0    0    0    0  0.00000000000E+00  0.00000000000E+00  0.74505805969E-08  0.10566000000E+00  0.10566000000E+00 0.  1.
     999900   -1    0    0    0    0 -0.00000000000E+00 -0.00000000000E+00 -0.74505805969E-08  0.93827000000E+00  0.93827000000E+00 0.  1.
     999902    2    1    2    0    0  0.11026638704E-01 -0.58937118993E-02 -0.40520299133E-02  0.10307868821E+01  0.10307030876E+01 0.  0.
     999903    2    3    3    0    0 -0.23202256363E-01 -0.12622820457E+00  0.36836773257E-01  0.14099819844E+00  0.45295030316E-01 0.  0.
         14    1    1    2    0    0 -0.11026638704E-01  0.58937118993E-02  0.40520299133E-02  0.13143117875E-01  0.00000000000E+00 0.  1.
     999901    1    3    3    0    0  0.34228895067E-01  0.12033449267E+00 -0.40888803171E-01  0.88978868368E+00  0.88000000000E+00 0. -1.
        -11    1    4    4    0    0 -0.23324930487E-01 -0.54827467072E-01 -0.21916593697E-02  0.59625229723E-01  0.51100000000E-03 0.  1.
         11    1    4    4    0    0  0.12267412384E-03 -0.71400737497E-01  0.39028432627E-01  0.81372968720E-01  0.51100000000E-03 0. -1.
</event>
<event>
 8    1  0.2959109E+004  0.1043930E+01  0.7957747E-01            NaN
         13   -1    0    0    0    0  0.00000000000E+00  0.00000000000E+00  0.74505805969E-08  0.10566000000E+00  0.10566000000E+00 0. -1.
     999900   -1    0    0    0    0 -0.00000000000E+00 -0.00000000000E+00 -0.74505805969E-08  0.93827000000E+00  0.93827000000E+00 0. -1.
     999902    2    1    2    0    0  0.33893265576E-02  0.98893899287E-02 -0.91037973616E-02  0.10300675798E+01  0.10299742969E+01 0.  0.
     999903    2    3    3    0    0 -0.35667068498E-01  0.10018150854E+00 -0.82185303316E-01  0.14157505017E+00  0.44503891074E-01 0.  0.
         14    1    1    2    0    0 -0.33893265576E-02 -0.98893899287E-02  0.91037973616E-02  0.13862420210E-01  0.00000000000E+00 0. -1.
     999901    1    3    3    0    0  0.39056395056E-01 -0.90292118612E-01  0.73081505955E-01  0.88849252962E+00  0.88000000000E+00 0.  1.
        -11    1    4    4    0    0 -0.20029540030E-01  0.59941569476E-01 -0.74542299392E-01  0.97729165272E-01  0.51100000000E-03 0.  1.
         11    1    4    4    0    0 -0.15637528469E-01  0.40239939065E-01 -0.76430039241E-02  0.43845884898E-01  0.51100000000E-03 0. -1.
</event>
<event>
 8    1  0.2959109E+004  0.1043930E+01  0.7957747E-01            NaN
         13   -1    0    0    0    0  0.00000000000E+00  0.00000000000E+00  0.74505805969E-08  0.10566000000E+00  0.10566000000E+00 0.  1.
     999900   -1    0    0    0    0 -0.00000000000E+00 -0.00000000000E+00 -0.74505805969E-08  0.93827000000E+00  0.93827000000E+00 0. -1.
     999902    2    1    2    0    0 -0.12023295263E-01  0.24807351520E-02  0.65420812726E-02  0.10300191228E+01  0.10299251822E+01 0.  0.
     999903    2    3    3    0    0 -0.16739427489E-02 -0.36358650598E-01 -0.12671344587E+00  0.13907993160E+00  0.44296460937E-01 0.  0.
         14    1    1    2    0    0  0.12023295263E-01 -0.24807351520E-02 -0.65420812726E-02  0.13910877156E-01  0.00000000000E+00 0. -1.
     999901    1    3    3    0    0 -0.10349352514E-01  0.38839385750E-01  0.13325552714E+00  0.89093919125E+00  0.88000000000E+00 0.  1.
        -11    1    4    4    0    0 -0.17153435109E-01 -0.22059147287E-01 -0.34060666870E-01  0.44059465086E-01  0.51100000000E-03 0.  1.
         11    1    4    4    0    0  0.15479492360E-01 -0.14299503311E-01 -0.92652779000E-01  0.95020466512E-01  0.51100000000E-03 0. -1.
</event>
<event>
 8    1  0.2959109E+004  0.1043930E+01  0.7957747E-01            NaN
         13   -1    0    0    0    0  0.00000000000E+00  0.00000000000E+00  0.74505805969E-08  0.10566000000E+00  0.10566000000E+00 0.  1.
     999900   -1    0    0    0    0 -0.00000000000E+00 -0.00000000000E+00 -0.74505805969E-08  0.93827000000E+00  0.93827000000E+00 0.  1.
     999902    2    1    2    0    0 -0.14208827917E-01  0.18384062451E-02 -0.49639085193E-03  0.10295941382E+01  0.10294943286E+01 0.  0.
     999903    2    3    3    0    0  0.11247522343E+00 -0.57341399522E-01 -0.33337641463E-01  0.13794978874E+00  0.44497571729E-01 0.  0.
         14    1    1    2    0    0  0.14208827917E-01 -0.18384062451E-02  0.49639085193E-03  0.14335861752E-01  0.00000000000E+00 0. -1.
     999901    1    3    3    0    0 -0.12668405134E+00  0.59179805767E-01  0.32841250611E-01  0.89164434951E+00  0.88000000000E+00 0. -1.
        -11    1    4    4    0    0  0.10125182408E+00 -0.55633554618E-01 -0.42757825087E-01  0.12318894839E+00  0.51100000000E-03 0.  1.
         11    1    4    4    0    0  0.11223399349E-01 -0.17078449044E-02  0.94201836241E-02  0.14760840344E-01  0.51100000000E-03 0. -1.
</event>
<event>
 8    1  0.2959109E+004  0.1043930E+01  0.7957747E-01            NaN
         13   -1    0    0    0    0  0.00000000000E+00  0.00000000000E+00  0.74505805969E-08  0.10566000000E+00  0.10566000000E+00 0. -1.
     999900   -1    0    0    0    0 -0.00000000000E+00 -0.00000000000E+00 -0.74505805969E-08  0.93827000000E+00  0.93827000000E+00 0. -1.
     999902    2    1    2    0    0 -0.29223627005E-02 -0.11372277122E-01 -0.12160725785E-01  0.10270257951E+01  0.10268866694E+01 0.  0.
     999903    2    3    3    0    0 -0.10100024657E+00  0.16808892903E-01 -0.82137523456E-01  0.13836939254E+00  0.43771307319E-01 0.  0.
         14    1    1    2    0    0  0.29223627005E-02  0.11372277122E-01  0.12160725785E-01  0.16904204871E-01  0.00000000000E+00 0. -1.
     999901    1    3    3    0    0  0.98077883872E-01 -0.28181170026E-01  0.69976797671E-01  0.88865640259E+00  0.88000000000E+00 0.  1.
        -11    1    4    4    0    0 -0.66892879195E-01 -0.10416431812E-01 -0.49119518947E-01  0.83642976999E-01  0.51100000000E-03 0.  1.
         11    1    4    4    0    0 -0.34107367377E-01  0.27225324716E-01 -0.33018004509E-01  0.54726415542E-01  0.51100000000E-03 0. -1.
</event>
<event>
 8    1  0.2959109E+004  0.1043930E+01  0.7957747E-01            NaN
         13   -1    0    0    0    0  0.00000000000E+00  0.00000000000E+00  0.74505805969E-08  0.10566000000E+00  0.10566000000E+00 0.  1.
     999900   -1    0    0    0    0 -0.00000000000E+00 -0.00000000000E+00 -0.74505805969E-08  0.93827000000E+00  0.93827000000E+00 0.  1.
     999902    2    1    2    0    0  0.53417293613E-02  0.11594390086E-01 -0.47175513495E-02  0.10303204723E+01  0.10302305841E+01 0.  0.
     999903    2    3    3    0    0 -0.49081008104E-01 -0.98923267955E-01 -0.71679158989E-01  0.13922011655E+00  0.45272295260E-01 0.  0.
         14    1    1    2    0    0 -0.53417293613E-02 -0.11594390086E-01  0.47175513495E-02  0.13609527720E-01  0.00000000000E+00 0.  1.
     999901    1    3    3    0    0  0.54422737466E-01  0.11051765804E+00  0.66961607639E-01  0.89110035573E+00  0.88000000000E+00 0. -1.
        -11    1    4    4    0    0 -0.48244188083E-01 -0.72648228573E-01 -0.34730154418E-01  0.93870717188E-01  0.51100000000E-03 0. -1.
         11    1    4    4    0    0 -0.83682002178E-03 -0.26275039383E-01 -0.36949004571E-01  0.45349399357E-01  0.51100000000E-03 0.  1.
</event>
<event>
 8    1  0.2959109E+004  0.1043930E+01  0.7957747E-01            NaN
         13   -1    0    0    0    0  0.00000000000E+00  0.00000000000E+00  0.74505805969E-08  0.10566000000E+00  0.10566000000E+00 0. -1.
     999900   -1    0    0    0    0 -0.00000000000E+00 -0.00000000000E+00 -0.74505805969E-08  0.93827000000E+00  0.93827000000E+00 0. -1.
     999902    2    1    2    0    0  0.10561250688E-01  0.77642481836E-02 -0.24469136800E-02  0.10305954227E+01  0.10305091529E+01 0.  0.
     999903    2    3    3    0    0  0.70080337229E-01 -0.10446523088E+00 -0.43816842237E-01  0.14051146673E+00  0.44713739398E-01 0.  0.
         14    1    1    2    0    0 -0.10561250688E-01 -0.77642481836E-02  0.24469136800E-02  0.13334577328E-01  0.00000000000E+00 0. -1.
     999901    1    3    3    0    0 -0.59519086541E-01  0.11222947906E+00  0.41369928557E-01  0.89008395594E+00  0.88000000000E+00 0.  1.
        -11    1    4    4    0    0  0.66782092228E-01 -0.66223618334E-01 -0.22914819826E-01  0.96802714612E-01  0.51100000000E-03 0.  1.
         11    1    4    4    0    0  0.32982450019E-02 -0.38241612544E-01 -0.20902022411E-01  0.43708752120E-01  0.51100000000E-03 0. -1.
</event>
<event>
 8    1  0.2959109E+004  0.1043930E+01  0.7957747E-01            NaN
         13   -1    0    0    0    0  0.00000000000E+00  0.00000000000E+00  0.74505805969E-08  0.10566000000E+00  0.10566000000E+00 0.  1.
     999900   -1    0    0    0    0 -0.00000000000E+00 -0.00000000000E+00 -0.74505805969E-08  0.93827000000E+00  0.93827000000E+00 0. -1.
     999902    2    1    2    0    0 -0.83082101303E-02 -0.94055315841E-02 -0.80115333654E-02  0.10290412443E+01  0.10289335291E+01 0.  0.
     999903    2    3    3    0    0  0.59827585203E-01 -0.11372676060E+00  0.29955057420E-01  0.13945321185E+00  0.45130663656E-01 0.  0.
         14    1    1    2    0    0  0.83082101303E-02  0.94055315841E-02  0.80115333654E-02  0.14888755717E-01  0.00000000000E+00 0. -1.
     999901    1    3    3    0    0 -0.68135795333E-01  0.10432122902E+00 -0.37966590785E-01  0.88958803243E+00  0.88000000000E+00 0. -1.
        -11    1    4    4    0    0  0.34218858309E-01 -0.74583051720E-01 -0.31898823029E-02  0.82121850551E-01  0.51100000000E-03 0. -1.
         11    1    4    4    0    0  0.25608726893E-01 -0.39143708883E-01  0.33144939723E-01  0.57331361299E-01  0.51100000000E-03 0.  1.
</event>
<event>
 8    1  0.2959109E+004  0.1043930E+01  0.7957747E-01            NaN
         13   -1    0    0    0    0  0.00000000000E+00  0.00000000000E+00  0.74505805969E-08  0.10566000000E+00  0.10566000000E+00 0. -1.
     999900   -1    0    0    0    0 -0.00000000000E+00 -0.00000000000E+00 -0.74505805969E-08  0.93827000000E+00  0.93827000000E+00 0. -1.
     999902    2    1    2    0    0 -0.86079631662E-02  0.67022476059E-02 -0.76071933478E-02  0.10306301299E+01  0.10305443116E+01 0.  0.
     999903    2    3    3    0    0  0.12886505441E+00 -0.22339020698E-02  0.26458960496E-01  0.13926085284E+00  0.45632400503E-01 0.  0.
         14    1    1    2    0    0  0.86079631662E-02 -0.67022476059E-02  0.76071933478E-02  0.13299870055E-01  0.00000000000E+00 0.  1.
     999901    1    3    3    0    0 -0.13747301758E+00  0.89361496757E-02 -0.34066153844E-01  0.89136927711E+00  0.88000000000E+00 0. -1.
        -11    1    4    4    0    0  0.67646292095E-01  0.21265655206E-01  0.96577312217E-02  0.71566625035E-01  0.51100000000E-03 0. -1.
         11    1    4    4    0    0  0.61218762316E-01 -0.23499557276E-01  0.16801229274E-01  0.67694227803E-01  0.51100000000E-03 0.  1.
</event>
<event>
 8    1  0.2959109E+004  0.1043930E+01  0.7957747E-01            NaN
         13   -1    0    0    0    0  0.00000000000E+00  0.00000000000E+00  0.74505805969E-08  0.10566000000E+00  0.10566000000E+00 0.  1.
     999900   -1    0    0    0    0 -0.00000000000E+00 -0.00000000000E+00 -0.74505805969E-08  0.93827000000E+00  0.93827000000E+00 0. -1.
     999902    2    1    2    0    0 -0.61182145747E-02  0.12580352293E-01 -0.30796534976E-02  0.10296058219E+01  0.10295061760E+01 0.  0.
     999903    2    3    3    0    0  0.11585550899E+00 -0.45810590637E-01  0.39222686780E-01  0.13827166486E+00  0.45381989479E-01 0.  0.
         14    1    1    2    0    0  0.61182145747E-02 -0.12580352293E-01  0.30796534976E-02  0.14324178129E-01  0.00000000000E+00 0. -1.
     999901    1    3    3    0    0 -0.12197372356E+00  0.58390942930E-01 -0.42302340278E-01  0.89133415701E+00  0.88000000000E+00 0.  1.
        -11    1    4    4    0    0  0.81047523427E-01 -0.23943623436E-01  0.47913171081E-02  0.84647598889E-01  0.51100000000E-03 0.  1.
         11    1    4    4    0    0  0.34807985558E-01 -0.21866967201E-01  0.34431369672E-01  0.53624065975E-01  0.51100000000E-03 0. -1.
</event>
<event>
 8    1  0.2959109E+004  0.1043930E+01  0.7957747E-01            NaN
         13   -1    0    0    0    0  0.00000000000E+00  0.00000000000E+00  0.74505805969E-08  0.10566000000E+00  0.10566000000E+00 0. -1.
     999900   -1    0    0    0    0 -0.00000000000E+00 -0.00000000000E+00 -0.74505805969E-08  0.93827000000E+00  0.93827000000E+00 0. -1.
     999902    2    1    2    0    0  0.12043736379E-01 -0.81441890621E-02 -0.45945743581E-02  0.10286823931E+01  0.10285693834E+01 0.  0.
     999903    2    3    3    0    0 -0.10771249560E+00  0.49102612153E-01  0.51165794305E-01  0.13698290897E+00  0.46187992107E-01 0.  0.
         14    1    1    2    0    0 -0.12043736379E-01  0.81441890621E-02  0.45945743581E-02  0.15247606861E-01  0.00000000000E+00 0. -1.
     999901    1    3    3    0    0  0.11975623198E+00 -0.57246801215E-01 -0.55760368663E-01  0.89169948417E+00  0.88000000000E+00 0. -1.
        -11    1    4    4    0    0 -0.75011954800E-01  0.16381535730E-01  0.14933354851E-01  0.78220293300E-01  0.51100000000E-03 0. -1.
         11    1    4    4    0    0 -0.32700540802E-01  0.32721076423E-01  0.36232439453E-01  0.58762615674E-01  0.51100000000E-03 0.  1.
</event>
<event>
 8    1  0.2959109E+004  0.1043930E+01  0.7957747E-01            NaN
         13   -1    0    0    0    0  0.00000000000E+00  0.00000000000E+00  0.74505805969E-08  0.10566000000E+00  0.10566000000E+00 0.  1.
     999900   -1    0    0    0    0 -0.00000000000E+00 -0.00000000000E+00 -0.74505805969E-08  0.93827000000E+00  0.93827000000E+00 0. -1.
     999902    2    1    2    0    0  0.18297063042E-02 -0.12481607176E-01 -0.11168664458E-01  0.10270813381E+01  0.10269431326E+01 0.  0.
     999903    2    3    3    0    0 -0.44236833840E-01 -0.10560010822E+00 -0.65504712635E-01  0.13930569779E+00  0.44798769334E-01 0.  0.
         14    1    1    2    0    0 -0.18297063042E-02  0.12481607176E-01  0.11168664458E-01  0.16848661924E-01  0.00000000000E+00 0. -1.
     999901    1    3    3    0    0  0.46066540144E-01  0.93118501047E-01  0.54336048177E-01  0.88777564029E+00  0.88000000000E+00 0.  1.
        -11    1    4    4    0    0 -0.36971568961E-01 -0.71144581011E-01 -0.66359720727E-01  0.10407844145E+00  0.51100000000E-03 0. -1.
         11    1    4    4    0    0 -0.72652648785E-02 -0.34455527212E-01  0.85500809233E-03  0.35227256338E-01  0.51100000000E-03 0.  1.
</event>
<event>
 8    1  0.2959109E+004  0.1043930E+01  0.7957747E-01            NaN
         13   -1    0    0    0    0  0.00000000000E+00  0.00000000000E+00  0.74505805969E-08  0.10566000000E+00  0.10566000000E+00 0.  1.
     999900   -1    0    0    0    0 -0.00000000000E+00 -0.00000000000E+00 -0.74505805969E-08  0.93827000000E+00  0.93827000000E+00 0. -1.
     999902    2    1    2    0    0  0.13625334429E-01 -0.40030523705E-02 -0.17647005960E-02  0.10296195725E+01  0.10295201192E+01 0.  0.
     999903    2    3    3    0    0  0.11490032388E+00  0.46795126363E-01 -0.47579732267E-01  0.14117368470E+00  0.47689726873E-01 0.  0.
         14    1    1    2    0    0 -0.13625334429E-01  0.40030523705E-02  0.17647005960E-02  0.14310427484E-01  0.00000000000E+00 0.  1.
     999901    1    3    3    0    0 -0.10127498945E+00 -0.50798178734E-01  0.45815031671E-01  0.88844588782E+00  0.88000000000E+00 0.  1.
        -11    1    4    4    0    0  0.41813622286E-01 -0.66534775610E-02 -0.13891495108E-01  0.44563241911E-01  0.51100000000E-03 0.  1.
         11    1    4    4    0    0  0.73086701597E-01  0.53448603924E-01 -0.33688237159E-01  0.96610442788E-01  0.51100000000E-03 0. -1.
</event>
<event>
 8    1  0.2959109E+004  0.1043930E+01  0.7957747E-01            NaN
         13   -1    0    0    0    0  0.00000000000E+00  0.00000000000E+00  0.74505805969E-08  0.10566000000E+00  0.10566000000E+00 0.  1.
     999900   -1    0    0    0    0 -0.00000000000E+00 -0.00000000000E+00 -0.74505805969E-08  0.93827000000E+00  0.93827000000E+00 0. -1.
     999902    2    1    2    0    0 -0.66379025927E-02 -0.76267047003E-02  0.95921212526E-02  0.10299931006E+01  0.10298988057E+01 0.  0.
     999903    2    3    3    0    0 -0.94719508513E-01 -0.92308166349E-01  0.22138149494E-01  0.14146244715E+00  0.45043794512E-01 0.  0.
         14    1    1    2    0    0  0.66379025927E-02  0.76267047003E-02 -0.95921212526E-02  0.13936899424E-01  0.00000000000E+00 0. -1.
     999901    1    3    3    0    0  0.88081605920E-01  0.84681461648E-01 -0.12546028242E-01  0.88853065342E+00  0.88000000000E+00 0.  1.
        -11    1    4    4    0    0 -0.78838418841E-01 -0.54015173754E-01  0.28012514289E-01  0.99589644837E-01  0.51100000000E-03 0. -1.
         11    1    4    4    0    0 -0.15881089672E-01 -0.38292992595E-01 -0.58743647952E-02  0.41872802316E-01  0.51100000000E-03 0.  1.
</event>
<event>
 8    1  0.2959109E+004  0.1043930E+01  0.7957747E-01            NaN
         13   -1    0    0    0    0  0.00000000000E+00  0.00000000000E+00  0.74505805969E-08  0.10566000000E+00  0.10566000000E+00 0. -1.
     999900   -1    0    0    0    0 -0.00000000000E+00 -0.00000000000E+00 -0.74505805969E-08  0.93827000000E+00  0.93827000000E+00 0.  1.
     999902    2    1    2    0    0 -0.12876526834E-01  0.54481333188E-02 -0.10988924094E-02  0.10299052125E+01  0.10298097164E+01 0.  0.
     999903    2    3    3    0    0 -0.63902603457E-01  0.16986874494E-01 -0.11612758866E+00  0.14087855148E+00  0.44598798030E-01 0.  0.
         14    1    1    2    0    0  0.12876526834E-01 -0.54481333188E-02  0.10988924094E-02  0.14024787502E-01  0.00000000000E+00 0. -1.
     999901    1    3    3    0    0  0.51026076624E-01 -0.11538741175E-01  0.11502869625E+00  0.88902666102E+00  0.88000000000E+00 0. -1.
        -11    1    4    4    0    0 -0.36937078511E-01 -0.13063775332E-01 -0.52266153154E-01  0.65322445464E-01  0.51100000000E-03 0.  1.
         11    1    4    4    0    0 -0.26965524946E-01  0.30050649826E-01 -0.63861435503E-01  0.75556106014E-01  0.51100000000E-03 0. -1.
</event>
<event>
 8    1  0.2959109E+004  0.1043930E+01  0.7957747E-01            NaN
         13   -1    0    0    0    0  0.00000000000E+00  0.00000000000E+00  0.74505805969E-08  0.10566000000E+00  0.10566000000E+00 0. -1.
     999900   -1    0    0    0    0 -0.00000000000E+00 -0.00000000000E+00 -0.74505805969E-08  0.93827000000E+00  0.93827000000E+00 0.  1.
     999902    2    1    2    0    0  0.27877067429E-03 -0.12332335106E-01 -0.61404781429E-02  0.10301506795E+01  0.10300585191E+01 0.  0.
     999903    2    3    3    0    0  0.10067912016E+00 -0.42022548247E-01  0.76130625511E-01  0.14013367209E+00  0.44038552609E-01 0.  0.
         14    1    1    2    0    0 -0.27877067429E-03  0.12332335106E-01  0.61404781429E-02  0.13779320523E-01  0.00000000000E+00 0. -1.
     999901    1    3    3    0    0 -0.10040034949E+00  0.29690213141E-01 -0.82271103654E-01  0.89001700738E+00  0.88000000000E+00 0.  1.
        -11    1    4    4    0    0  0.58388981781E-01 -0.20649205782E-01  0.16744613752E-01  0.64158445301E-01  0.51100000000E-03 0. -1.
         11    1    4    4    0    0  0.42290138383E-01 -0.21373342465E-01  0.59386011759E-01  0.75975226793E-01  0.51100000000E-03 0.  1.
</event>
<event>
 8    1  0.2959109E+004  0.1043930E+01  0.7957747E-01            NaN
         13   -1    0    0    0    0  0.00000000000E+00  0.00000000000E+00  0.74505805969E-08  0.10566000000E+00  0.10566000000E+00 0. -1.
     999900   -1    0    0    0    0 -0.00000000000E+00 -0.00000000000E+00 -0.74505805969E-08  0.93827000000E+00  0.93827000000E+00 0.  1.
     999902    2    1    2    0    0 -0.70924855873E-02  0.11938161623E-01 -0.76838615375E-03  0.10300226828E+01  0.10299287905E+01 0.  0.
     999903    2    3    3    0    0 -0.25994320061E-02 -0.32285646127E-01 -0.12853515472E+00  0.13968551078E+00  0.44063998132E-01 0.  0.
         14    1    1    2    0    0  0.70924855873E-02 -0.11938161623E-01  0.76838615375E-03  0.13907317211E-01  0.00000000000E+00 0. -1.
     999901    1    3    3    0    0 -0.44930535812E-02  0.44223807749E-01  0.12776676857E+00  0.89033717200E+00  0.88000000000E+00 0. -1.
        -11    1    4    4    0    0  0.18956912700E-02  0.59594079735E-02 -0.65619343541E-01  0.65918643467E-01  0.51100000000E-03 0. -1.
         11    1    4    4    0    0 -0.44951232760E-02 -0.38245054100E-01 -0.62915811180E-01  0.73766867317E-01  0.51100000000E-03 0.  1.
</event>
<event>
 8    1  0.2959109E+004  0.1043930E+01  0.7957747E-01            NaN
         13   -1    0    0    0    0  0.00000000000E+00  0.00000000000E+00  0.74505805969E-08  0.10566000000E+00  0.10566000000E+00 0.  1.
     999900   -1    0    0    0    0 -0.00000000000E+00 -0.00000000000E+00 -0.74505805969E-08  0.93827000000E+00  0.93827000000E+00 0. -1.
     999902    2    1    2    0    0  0.80218835804E-02 -0.20995728988E-02  0.90192567511E-02  0.10316782322E+01  0.10316054812E+01 0.  0.
     999903    2    3    3    0    0 -0.76632995575E-01 -0.13479519097E-01 -0.10716842592E+00  0.13994086650E+00  0.45211294555E-01 0.  0.
         14    1    1    2    0    0 -0.80218835804E-02  0.20995728988E-02 -0.90192567511E-02  0.12251767827E-01  0.00000000000E+00 0. -1.
     999901    1    3    3    0    0  0.84654879155E-01  0.11379946198E-01  0.11618768267E+00  0.89173736568E+00  0.88000000000E+00 0. -1.
        -11    1    4    4    0    0 -0.47374354846E-01 -0.18774439796E-01 -0.95007200928E-01  0.10781205144E+00  0.51100000000E-03 0. -1.
         11    1    4    4    0    0 -0.29258640729E-01  0.52949206991E-02 -0.12161224994E-01  0.32128815055E-01  0.51100000000E-03 0.  1.
</event>
<event>
 8    1  0.2959109E+004  0.1043930E+01  0.7957747E-01            NaN
         13   -1    0    0    0    0  0.00000000000E+00  0.00000000000E+00  0.74505805969E-08  0.10566000000E+00  0.10566000000E+00 0.  1.
     999900   -1    0    0    0    0 -0.00000000000E+00 -0.00000000000E+00 -0.74505805969E-08  0.93827000000E+00  0.93827000000E+00 0. -1.
     999902    2    1    2    0    0  0.12494897396E-01 -0.47488197845E-04 -0.54539765338E-02  0.10302965640E+01  0.10302063576E+01 0.  0.
     999903    2    3    3    0    0  0.62499759971E-01 -0.11674910490E+00 -0.18493385621E-01  0.14108917551E+00  0.45028620270E-01 0.  0.
         14    1    1    2    0    0 -0.12494897396E-01  0.47488197845E-04  0.54539765338E-02  0.13633435961E-01  0.00000000000E+00 0. -1.
     999901    1    3    3    0    0 -0.50004862575E-01  0.11670161670E+00  0.13039409088E-01  0.88920738853E+00  0.88000000000E+00 0.  1.
        -11    1    4    4    0    0  0.40654159909E-01 -0.10790176247E+00 -0.89440368856E-02  0.11565382821E+00  0.51100000000E-03 0.  1.
         11    1    4    4    0    0  0.21845600062E-01 -0.88473424268E-02 -0.95493487357E-02  0.25435347302E-01  0.51100000000E-03 0. -1.
</event>
<event>
 8    1  0.2959109E+004  0.1043930E+01  0.7957747E-01            NaN
         13   -1    0    0    0    0  0.00000000000E+00  0.00000000000E+00  0.74505805969E-08  0.10566000000E+00  0.10566000000E+00 0.  1.
     999900   -1    0    0    0    0 -0.00000000000E+00 -0.00000000000E+00 -0.74505805969E-08  0.93827000000E+00  0.93827000000E+00 0. -1.
     999902    2    1    2    0    0  0.60322789872E-02  0.99330976978E-03  0.10963030788E-01  0.10313775860E+01  0.10313011984E+01 0.  0.
     999903    2    3    3    0    0 -0.49641698805E-01  0.42118420322E-01  0.11816625659E+00  0.14217378585E+00  0.44853780151E-01 0.  0.
         14    1    1    2    0    0 -0.60322789872E-02 -0.99330976978E-03 -0.10963030788E-01  0.12552414037E-01  0.00000000000E+00 0. -1.
     999901    1    3    3    0    0  0.55673977792E-01 -0.41125110553E-01 -0.10720322580E+00  0.88920380012E+00  0.88000000000E+00 0. -1.
        -11    1    4    4    0    0 -0.43260676276E-01  0.26537971243E-01  0.11405048882E+00  0.12483399036E+00  0.51100000000E-03 0.  1.
         11    1    4    4    0    0 -0.63810225287E-02  0.15580449079E-01  0.41157677767E-02  0.17339795483E-01  0.51100000000E-03 0. -1.
</event>
<event>
 8    1  0.2959109E+004  0.1043930E+01  0.7957747E-01            NaN
         13   -1    0    0    0    0  0.00000000000E+00  0.00000000000E+00  0.74505805969E-08  0.10566000000E+00  0.10566000000E+00 0.  1.
     999900   -1    0    0    0    0 -0.00000000000E+00 -0.00000000000E+00 -0.74505805969E-08  0.93827000000E+00  0.93827000000E+00 0.  1.
     999902    2    1    2    0    0  0.28819177698E-02 -0.36977099582E-02  0.13046844663E-01  0.10300664267E+01  0.10299731282E+01 0.  0.
     999903    2    3    3    0    0  0.36820551310E-01  0.37820478678E-01  0.12336783464E+00  0.14155851359E+00  0.45089339532E-01 0.  0.
         14    1    1    2    0    0 -0.28819177698E-02  0.36977099582E-02 -0.13046844663E-01  0.13863573300E-01  0.00000000000E+00 0. -1.
     999901    1    3    3    0    0 -0.33938633540E-01 -0.41518188637E-01 -0.11032098998E+00  0.88850791311E+00  0.88000000000E+00 0.  1.
        -11    1    4    4    0    0  0.10121869595E-01 -0.97113959253E-02  0.35206485832E-01  0.37901467261E-01  0.51100000000E-03 0. -1.
         11    1    4    4    0    0  0.26698681716E-01  0.47531874604E-01  0.88161348807E-01  0.10365704633E+00  0.51100000000E-03 0.  1.
</event>
<event>
 8    1  0.2959109E+004  0.1043930E+01  0.7957747E-01            NaN
         13   -1    0    0    0    0  0.00000000000E+00  0.00000000000E+00  0.74505805969E-08  0.10566000000E+00  0.10566000000E+00 0.  1.
     999900   -1    0    0    0    0 -0.00000000000E+00 -0.00000000000E+00 -0.74505805969E-08  0.93827000000E+00  0.93827000000E+00 0.  1.
     999902    2    1    2    0    0  0.88176135703E-02  0.33505417952E-02  0.96902886146E-02  0.10304067558E+01  0.10303180113E+01 0.  0.
     999903    2    3    3    0    0  0.57047536944E-01 -0.39680134134E-01  0.11560897259E+00  0.14170178105E+00  0.43416882588E-01 0.  0.
         14    1    1    2    0    0 -0.88176135703E-02 -0.33505417952E-02 -0.96902886146E-02  0.13523244168E-01  0.00000000000E+00 0. -1.
     999901    1    3    3    0    0 -0.48229923373E-01  0.43030675929E-01 -0.10591868398E+00  0.88870497478E+00  0.88000000000E+00 0.  1.
        -11    1    4    4    0    0  0.31611367910E-01 -0.13551627334E-01  0.92096775816E-01  0.98310744180E-01  0.51100000000E-03 0. -1.
         11    1    4    4    0    0  0.25436169034E-01 -0.26128506800E-01  0.23512196776E-01  0.43391036874E-01  0.51100000000E-03 0.  1.
</event>
<event>
 8    1  0.2959109E+004  0.1043930E+01  0.7957747E-01            NaN
         13   -1    0    0    0    0  0.00000000000E+00  0.00000000000E+00  0.74505805969E-08  0.10566000000E+00  0.10566000000E+00 0.  1.
     999900   -1    0    0    0    0 -0.00000000000E+00 -0.00000000000E+00 -0.74505805969E-08  0.93827000000E+00  0.93827000000E+00 0. -1.
     999902    2    1    2    0    0 -0.12971913431E-01  0.41463482001E-02 -0.48737918356E-02  0.10294656788E+01  0.10293640596E+01 0.  0.
     999903    2    3    3    0    0 -0.11457734751E+00  0.61883326208E-01 -0.31716071759E-01  0.14133408332E+00  0.44854200195E-01 0.  0.
         14    1    1    2    0    0  0.12971913431E-01 -0.41463482001E-02  0.48737918356E-02  0.14464321219E-01  0.00000000000E+00 0. -1.
     999901    1    3    3    0    0  0.10160543408E+00 -0.57736978008E-01  0.26842279923E-01  0.88813159546E+00  0.88000000000E+00 0.  1.
        -11    1    4    4    0    0 -0.27851182342E-01  0.23106696376E-01 -0.28859075651E-01  0.46289471197E-01  0.51100000000E-03 0.  1.
         11    1    4    4    0    0 -0.86726165169E-01  0.38776629832E-01 -0.28569961080E-02  0.95044612124E-01  0.51100000000E-03 0. -1.
</event>
<event>
 8    1  0.2959109E+004  0.1043930E+01  0.7957747E-01            NaN
         13   -1    0    0    0    0  0.00000000000E+00  0.00000000000E+00  0.74505805969E-08  0.10566000000E+00  0.10566000000E+00 0.  1.
     999900   -1    0    0    0    0 -0.00000000000E+00 -0.00000000000E+00 -0.74505805969E-08  0.93827000000E+00  0.93827000000E+00 0.  1.
     999902    2    1    2    0    0  0.38026734426E-02  0.46816826876E-02  0.12824246611E-01  0.10297582048E+01  0.10296606822E+01 0.  0.
     999903    2    3    3    0    0 -0.25494896642E-01 -0.12636035622E+00  0.29277259288E-01  0.13942059175E+00  0.44317198871E-01 0.  0.
         14    1    1    2    0    0 -0.38026734426E-02 -0.46816826876E-02 -0.12824246611E-01  0.14171795202E-01  0.00000000000E+00 0. -1.
     999901    1    3    3    0    0  0.29297570085E-01  0.13104203890E+00 -0.16453012676E-01  0.89033761304E+00  0.88000000000E+00 0.  1.
        -11    1    4    4    0    0 -0.34389006333E-01 -0.60800473098E-01  0.19621377374E-01  0.72557293614E-01  0.51100000000E-03 0.  1.
         11    1    4    4    0    0  0.88941096907E-02 -0.65559883119E-01  0.96558819136E-02  0.66863298141E-01  0.51100000000E-03 0. -1.
</event>
<event>
 8    1  0.2959109E+004  0.1043930E+01  0.7957747E-01            NaN
         13   -1    0    0    0    0  0.00000000000E+00  0.00000000000E+00  0.74505805969E-08  0.10566000000E+00  0.10566000000E+00 0. -1.
     999900   -1    0    0    0    0 -0.00000000000E+00 -0.00000000000E+00 -0.74505805969E-08  0.93827000000E+00  0.93827000000E+00 0.  1.
     999902    2    1    2    0    0 -0.48408890796E-03  0.24313415746E-02 -0.13928121316E-01  0.10297829746E+01  0.10296857950E+01 0.  0.
     999903    2    3    3    0    0 -0.13009596700E+00 -0.68225144676E-02  0.30147539629E-02  0.14007969047E+00  0.51397700402E-01 0.  0.
         14    1    1    2    0    0  0.48408890796E-03 -0.24313415746E-02  0.13928121316E-01  0.14147025387E-01  0.00000000000E+00 0. -1.
     999901    1    3    3    0    0  0.12961187809E+00  0.92538560423E-02 -0.16942875278E-01  0.88970328414E+00  0.88000000000E+00 0. -1.
        -11    1    4    4    0    0 -0.80528308441E-01  0.13808174521E-01  0.19335551104E-01  0.83961888983E-01  0.51100000000E-03 0.  1.
         11    1    4    4    0    0 -0.49567658560E-01 -0.20630688989E-01 -0.16320797141E-01  0.56117801486E-01  0.51100000000E-03 0. -1.
</event>
<event>
 8    1  0.2959109E+004  0.1043930E+01  0.7957747E-01            NaN
         13   -1    0    0    0    0  0.00000000000E+00  0.00000000000E+00  0.74505805969E-08  0.10566000000E+00  0.10566000000E+00 0. -1.
     999900   -1    0    0    0    0 -0.00000000000E+00 -0.00000000000E+00 -0.74505805969E-08  0.93827000000E+00  0.93827000000E+00 0.  1.
     999902    2    1    2    0    0 -0.11301859178E-01  0.56394287153E-02 -0.62290059303E-02  0.10298468295E+01  0.10297505312E+01 0.  0.
     999903    2    3    3    0    0 -0.33409062618E-01  0.97106186178E-01 -0.86077517504E-01  0.14123517022E+00  0.44634711029E-01 0.  0.
         14    1    1    2    0    0  0.11301859178E-01 -0.56394287153E-02  0.62290059303E-02  0.14083170524E-01  0.00000000000E+00 0. -1.
     999901    1    3    3    0    0  0.22107203440E-01 -0.91466757462E-01  0.79848511574E-01  0.88861165926E+00  0.88000000000E+00 0. -1.
        -11    1    4    4    0    0  0.84788114461E-02  0.41450726211E-01 -0.32956603796E-01  0.53632562886E-01  0.51100000000E-03 0.  1.
         11    1    4    4    0    0 -0.41887874064E-01  0.55655459967E-01 -0.53120913708E-01  0.87602607335E-01  0.51100000000E-03 0. -1.
</event>
<event>
 8    1  0.2959109E+004  0.1043930E+01  0.7957747E-01            NaN
         13   -1    0    0    0    0  0.00000000000E+00  0.00000000000E+00  0.74505805969E-08  0.10566000000E+00  0.10566000000E+00 0.  1.
     999900   -1    0    0    0    0 -0.00000000000E+00 -0.00000000000E+00 -0.74505805969E-08  0.93827000000E+00  0.93827000000E+00 0. -1.
     999902    2    1    2    0    0 -0.33344059944E-02 -0.69888235787E-02 -0.11963338325E-01  0.10296792673E+01  0.10295806477E+01 0.  0.
     999903    2    3    3    0    0  0.88300511633E-01  0.79374508853E-01 -0.58267833620E-01  0.13951091829E+00  0.44394401402E-01 0.  0.
         14    1    1    2    0    0  0.33344059944E-02  0.69888235787E-02  0.11963338325E-01  0.14250732691E-01  0.00000000000E+00 0. -1.
     999901    1    3    3    0    0 -0.91634917628E-01 -0.86363332432E-01  0.46304495295E-01  0.89016834902E+00  0.88000000000E+00 0. -1.
        -11    1    4    4    0    0  0.19361835436E-01  0.37830328296E-01 -0.45537828108E-02  0.42743566409E-01  0.51100000000E-03 0. -1.
         11    1    4    4    0    0  0.68938676197E-01  0.41544180557E-01 -0.53714050810E-01  0.96767351878E-01  0.51100000000E-03 0.  1.
</event>
<event>
 8    1  0.2959109E+004  0.1043930E+01  0.7957747E-01            NaN
         13   -1    0    0    0    0  0.00000000000E+00  0.00000000000E+00  0.74505805969E-08  0.10566000000E+00  0.10566000000E+00 0.  1.
     999900   -1    0    0    0    0 -0.00000000000E+00 -0.00000000000E+00 -0.74505805969E-08  0.93827000000E+00  0.93827000000E+00 0. -1.
     999902    2    1    2    0    0 -0.33277569923E-02 -0.10055272331E-01 -0.11472114281E-01  0.10283161640E+01  0.10281976178E+01 0.  0.
     999903    2    3    3    0    0  0.40234056750E-02 -0.92346483349E-01 -0.96261069999E-01  0.14038877395E+00  0.43574688456E-01 0.  0.
         14    1    1    2    0    0  0.33277569923E-02  0.10055272331E-01  0.11472114281E-01  0.15613835991E-01  0.00000000000E+00 0.  1.
     999901    1    3    3    0    0 -0.73511626672E-02  0.82291211018E-01  0.84788955718E-01  0.88792739006E+00  0.88000000000E+00 0.  1.
        -11    1    4    4    0    0 -0.14837136294E-01 -0.10624008313E-01 -0.19121577123E-01  0.26436830345E-01  0.51100000000E-03 0. -1.
         11    1    4    4    0    0  0.18860541969E-01 -0.81722475036E-01 -0.77139492876E-01  0.11395194361E+00  0.51100000000E-03 0.  1.
</event>
<event>
 8    1  0.2959109E+004  0.1043930E+01  0.7957747E-01            NaN
         13   -1    0    0    0    0  0.00000000000E+00  0.00000000000E+00  0.74505805969E-08  0.10566000000E+00  0.10566000000E+00 0.  1.
     999900   -1    0    0    0    0 -0.00000000000E+00 -0.00000000000E+00 -0.74505805969E-08  0.93827000000E+00  0.93827000000E+00 0. -1.
     999902    2    1    2    0    0 -0.29068598387E-02  0.63205223697E-02 -0.11306873302E-01  0.10306542996E+01  0.10305687949E+01 0.  0.
     999903    2    3    3    0    0  0.95717588980E-01  0.55318921087E-01 -0.75579151924E-01  0.14146447129E+00  0.45584521066E-01 0.  0.
         14    1    1    2    0    0  0.29068598387E-02 -0.63205223697E-02  0.11306873302E-01  0.13275700396E-01  0.00000000000E+00 0.  1.
     999901    1    3    3    0    0 -0.98624448819E-01 -0.48998398718E-01  0.64272278622E-01  0.88918982832E+00  0.88000000000E+00 0.  1.
        -11    1    4    4    0    0  0.51266721011E-01  0.82635520300E-02 -0.49285471147E-01  0.71595263549E-01  0.51100000000E-03 0. -1.
         11    1    4    4    0    0  0.44450867969E-01  0.47055369057E-01 -0.26293680777E-01  0.69869207739E-01  0.51100000000E-03 0.  1.
</event>
<event>
 8    1  0.2959109E+004  0.1043930E+01  0.7957747E-01            NaN
         13   -1    0    0    0    0  0.00000000000E+00  0.00000000000E+00  0.74505805969E-08  0.10566000000E+00  0.10566000000E+00 0. -1.
     999900   -1    0    0    0    0 -0.00000000000E+00 -0.00000000000E+00 -0.74505805969E-08  0.93827000000E+00  0.93827000000E+00 0.  1.
     999902    2    1    2    0    0 -0.87213779950E-02 -0.10196625185E-01 -0.16772777483E-02  0.10304079121E+01  0.10303191829E+01 0.  0.
     999903    2    3    3    0    0 -0.11138538288E+00 -0.71283073479E-01 -0.26238935471E-01  0.14199656199E+00  0.44570862649E-01 0.  0.
         14    1    1    2    0    0  0.87213779950E-02  0.10196625185E-01  0.16772777483E-02  0.13522087854E-01  0.00000000000E+00 0.  1.
     999901    1    3    3    0    0  0.10266400488E+00  0.61086448294E-01  0.24561657723E-01  0.88841135016E+00  0.88000000000E+00 0.  1.
        -11    1    4    4    0    0 -0.77884865713E-01 -0.45070852878E-01 -0.38271990240E-01  0.97787731563E-01  0.51100000000E-03 0. -1.
         11    1    4    4    0    0 -0.33500517166E-01 -0.26212220601E-01  0.12033054769E-01  0.44208830422E-01  0.51100000000E-03 0.  1.
</event>
<event>
 8    1  0.2959109E+004  0.1043930E+01  0.7957747E-01            NaN
         13   -1    0    0    0    0  0.00000000000E+00  0.00000000000E+00  0.74505805969E-08  0.10566000000E+00  0.10566000000E+00 0. -1.
     999900   -1    0    0    0    0 -0.00000000000E+00 -0.00000000000E+00 -0.74505805969E-08  0.93827000000E+00  0.93827000000E+00 0.  1.
     999902    2    1    2    0    0 -0.48404225743E-02 -0.14517171652E-02  0.12677889258E-01  0.10302820679E+01  0.10301916683E+01 0.  0.
     999903    2    3    3    0    0  0.42636366273E-01  0.32650987046E-01  0.12275292821E+00  0.14150000573E+00  0.45497511494E-01 0.  0.
         14    1    1    2    0    0  0.48404225743E-02  0.14517171652E-02 -0.12677889258E-01  0.13647932058E-01  0.00000000000E+00 0.  1.
     999901    1    3    3    0    0 -0.47476788848E-01 -0.34102704212E-01 -0.11007503895E+00  0.88878206221E+00  0.88000000000E+00 0. -1.
        -11    1    4    4    0    0  0.25325785311E-01  0.41909725100E-01  0.10066747911E+00  0.11194651817E+00  0.51100000000E-03 0. -1.
         11    1    4    4    0    0  0.17310580963E-01 -0.92587380538E-02  0.22085449099E-01  0.29553487553E-01  0.51100000000E-03 0.  1.
</event>
<event>
 8    1  0.2959109E+004  0.1043930E+01  0.7957747E-01            NaN
         13   -1    0    0    0    0  0.00000000000E+00  0.00000000000E+00  0.74505805969E-08  0.10566000000E+00  0.10566000000E+00 0. -1.
     999900   -1    0    0    0    0 -0.00000000000E+00 -0.00000000000E+00 -0.74505805969E-08  0.93827000000E+00  0.93827000000E+00 0.  1.
     999902    2    1    2    0    0 -0.20868465011E-02 -0.51736313153E-02  0.12389297179E-01  0.10303426502E+01  0.10302530567E+01 0.  0.
     999903    2    3    3    0    0  0.18116262787E-01  0.82185988449E-01  0.10450483998E+00  0.14100292773E+00  0.43333917127E-01 0.  0.
         14    1    1    2    0    0  0.20868465011E-02  0.51736313153E-02 -0.12389297179E-01  0.13587349775E-01  0.00000000000E+00 0.  1.
     999901    1    3    3    0    0 -0.20203109288E-01 -0.87359619764E-01 -0.92115542799E-01  0.88933972250E+00  0.88000000000E+00 0. -1.
        -11    1    4    4    0    0  0.15532742436E-01  0.22149741398E-01  0.96755975953E-02  0.28735960770E-01  0.51100000000E-03 0.  1.
         11    1    4    4    0    0  0.25835203513E-02  0.60036247052E-01  0.94829242383E-01  0.11226696696E+00  0.51100000000E-03 0. -1.
</event>
<event>
 8    1  0.2959109E+004  0.1043930E+01  0.7957747E-01            NaN
         13   -1    0    0    0    0  0.00000000000E+00  0.00000000000E+00  0.74505805969E-08  0.10566000000E+00  0.10566000000E+00 0. -1.
     999900   -1    0    0    0    0 -0.00000000000E+00 -0.00000000000E+00 -0.74505805969E-08  0.93827000000E+00  0.93827000000E+00 0.  1.
     999902    2    1    2    0    0  0.13906773857E-02  0.13007034758E-01 -0.13655820841E-02  0.10307777473E+01  0.10306938355E+01 0.  0.
     999903    2    3    3    0    0  0.43919159785E-01  0.12042187367E+00 -0.42502445038E-01  0.14227402703E+00  0.44778573873E-01 0.  0.
         14    1    1    2    0    0 -0.13906773857E-02 -0.13007034758E-01  0.13655820841E-02  0.13152252705E-01  0.00000000000E+00 0.  1.
     999901    1    3    3    0    0 -0.42528482399E-01 -0.10741483891E+00  0.41136862954E-01  0.88850372027E+00  0.88000000000E+00 0. -1.
        -11    1    4    4    0    0  0.26161959081E-01  0.24747378694E-01 -0.23838799952E-01  0.43190628142E-01  0.51100000000E-03 0. -1.
         11    1    4    4    0    0  0.17757200704E-01  0.95674494977E-01 -0.18663645086E-01  0.99083398886E-01  0.51100000000E-03 0.  1.
</event>
<event>
 8    1  0.2959109E+004  0.1043930E+01  0.7957747E-01            NaN
         13   -1    0    0    0    0  0.00000000000E+00  0.00000000000E+00  0.74505805969E-08  0.10566000000E+00  0.10566000000E+00 0.  1.
     999900   -1    0    0    0    0 -0.00000000000E+00 -0.00000000000E+00 -0.74505805969E-08  0.93827000000E+00  0.93827000000E+00 0.  1.
     999902    2    1    2    0    0 -0.13554250561E-01  0.42625685861E-02 -0.13456833772E-02  0.10296577170E+01  0.10295587968E+01 0.  0.
     999903    2    3    3    0    0 -0.27263381341E-02 -0.11197981413E+00 -0.69530017870E-01  0.13933269839E+00  0.45080658428E-01 0.  0.
         14    1    1    2    0    0  0.13554250561E-01 -0.42625685861E-02  0.13456833772E-02  0.14272283033E-01  0.00000000000E+00 0.  1.
     999901    1    3    3    0    0 -0.10827912427E-01  0.11624238272E+00  0.68184334493E-01  0.89032501857E+00  0.88000000000E+00 0.  1.
        -11    1    4    4    0    0 -0.20635786752E-01 -0.89247692829E-01 -0.49381166624E-01  0.10406607088E+00  0.51100000000E-03 0.  1.
         11    1    4    4    0    0  0.17909448618E-01 -0.22732121301E-01 -0.20148851246E-01  0.35266627514E-01  0.51100000000E-03 0. -1.
</event>
<event>
 8    1  0.2959109E+004  0.1043930E+01  0.7957747E-01            NaN
         13   -1    0    0    0    0  0.00000000000E+00  0.00000000000E+00  0.74505805969E-08  0.10566000000E+00  0.10566000000E+00 0.  1.
     999900   -1    0    0    0    0 -0.00000000000E+00 -0.00000000000E+00 -0.74505805969E-08  0.93827000000E+00  0.93827000000E+00 0.  1.
     999902    2    1    2    0    0 -0.30719651335E-02 -0.13488150124E-01 -0.80518690362E-03  0.10300730346E+01  0.10299798256E+01 0.  0.
     999903    2    3    3    0    0  0.65428388160E-01  0.11318654736E+00  0.82940647530E-02  0.13832106587E+00  0.44405599574E-01 0.  0.
         14    1    1    2    0    0  0.30719651335E-02  0.13488150124E-01  0.80518690362E-03  0.13856965379E-01  0.00000000000E+00 0.  1.
     999901    1    3    3    0    0 -0.68500353293E-01 -0.12667469749E+00 -0.90992516567E-02  0.89175196875E+00  0.88000000000E+00 0.  1.
        -11    1    4    4    0    0 -0.58157194797E-02  0.92898285349E-02  0.55897763062E-02  0.12313822616E-01  0.51100000000E-03 0. -1.
         11    1    4    4    0    0  0.71244107640E-01  0.10389671883E+00  0.27042884468E-02  0.12600724326E+00  0.51100000000E-03 0.  1.
</event>
<event>
 8    1  0.2959109E+004  0.1043930E+01  0.7957747E-01            NaN
         13   -1    0    0    0    0  0.00000000000E+00  0.00000000000E+00  0.74505805969E-08  0.10566000000E+00  0.10566000000E+00 0. -1.
     999900   -1    0    0    0    0 -0.00000000000E+00 -0.00000000000E+00 -0.74505805969E-08  0.93827000000E+00  0.93827000000E+00 0.  1.
     999902    2    1    2    0    0  0.15828826759E-01  0.92799454901E-02 -0.77511200339E-02  0.10240114406E+01  0.10238176994E+01 0.  0.
     999903    2    3    3    0    0 -0.42707127588E-01  0.51105290311E-01  0.10570280740E+00  0.13381617495E+00  0.47937832058E-01 0.  0.
         14    1    1    2    0    0 -0.15828826759E-01 -0.92799454901E-02  0.77511200339E-02  0.19918559351E-01  0.00000000000E+00 0.  1.
     999901    1    3    3    0    0  0.58535954347E-01 -0.41825344821E-01 -0.11345392743E+00  0.89019526570E+00  0.88000000000E+00 0.  1.
        -11    1    4    4    0    0 -0.22125737685E-01  0.56514309184E-01  0.75627944476E-01  0.96970420837E-01  0.51100000000E-03 0.  1.
         11    1    4    4    0    0 -0.20581389904E-01 -0.54090188732E-02  0.30074862920E-01  0.36845754114E-01  0.51100000000E-03 0. -1.
</event>
<event>
 8    1  0.2959109E+004  0.1043930E+01  0.7957747E-01            NaN
         13   -1    0    0    0    0  0.00000000000E+00  0.00000000000E+00  0.74505805969E-08  0.10566000000E+00  0.10566000000E+00 0.  1.
     999900   -1    0    0    0    0 -0.00000000000E+00 -0.00000000000E+00 -0.74505805969E-08  0.93827000000E+00  0.93827000000E+00 0.  1.
     999902    2    1    2    0    0  0.62540419020E-02  0.12109247549E-01 -0.33853894571E-02  0.10298869313E+01  0.10297911844E+01 0.  0.
     999903    2    3    3    0    0 -0.29112383393E-01 -0.12523599730E+00  0.23703742603E-01  0.13811996546E+00  0.44538427878E-01 0.  0.
         14    1    1    2    0    0 -0.62540419020E-02 -0.12109247549E-01  0.33853894571E-02  0.14043068685E-01  0.00000000000E+00 0.  1.
     999901    1    3    3    0    0  0.35366425295E-01  0.13734524485E+00 -0.27089132060E-01  0.89176696586E+00  0.88000000000E+00 0.  1.
        -11    1    4    4    0    0  0.71029937518E-02 -0.55525658909E-01 -0.28444024342E-03  0.55981187419E-01  0.51100000000E-03 0. -1.
         11    1    4    4    0    0 -0.36215377145E-01 -0.69710338390E-01  0.23988182847E-01  0.82138778038E-01  0.51100000000E-03 0.  1.
</event>
<event>
 8    1  0.2959109E+004  0.1043930E+01  0.7957747E-01            NaN
         13   -1    0    0    0    0  0.00000000000E+00  0.00000000000E+00  0.74505805969E-08  0.10566000000E+00  0.10566000000E+00 0. -1.
     999900   -1    0    0    0    0 -0.00000000000E+00 -0.00000000000E+00 -0.74505805969E-08  0.93827000000E+00  0.93827000000E+00 0.  1.
     999902    2    1    2    0    0  0.85315582532E-03  0.49676359363E-02 -0.12261147820E-01  0.10306732648E+01  0.10305880058E+01 0.  0.
     999903    2    3    3    0    0  0.12608131078E+00 -0.15597827165E-01 -0.21932394598E-01  0.14151716937E+00  0.58363431657E-01 0.  0.
         14    1    1    2    0    0 -0.85315582532E-03 -0.49676359363E-02  0.12261147820E-01  0.13256735175E-01  0.00000000000E+00 0. -1.
     999901    1    3    3    0    0 -0.12522815495E+00  0.20565463101E-01  0.96712467787E-02  0.88915609545E+00  0.88000000000E+00 0.  1.
        -11    1    4    4    0    0  0.40626909709E-01  0.22264776029E-01 -0.80048374173E-02  0.47017066978E-01  0.51100000000E-03 0.  1.
         11    1    4    4    0    0  0.85454401068E-01 -0.37862603194E-01 -0.13927557181E-01  0.94500102394E-01  0.51100000000E-03 0. -1.
</event>
<event>
 8    1  0.2959109E+004  0.1043930E+01  0.7957747E-01            NaN
         13   -1    0    0    0    0  0.00000000000E+00  0.00000000000E+00  0.74505805969E-08  0.10566000000E+00  0.10566000000E+00 0.  1.
     999900   -1    0    0    0    0 -0.00000000000E+00 -0.00000000000E+00 -0.74505805969E-08  0.93827000000E+00  0.93827000000E+00 0.  1.
     999902    2    1    2    0    0  0.87965414432E-02  0.10444702368E-01  0.55386341777E-02  0.10291940773E+01  0.10290885780E+01 0.  0.
     999903    2    3    3    0    0 -0.22689979183E-01 -0.12155279106E+00 -0.40000630687E-01  0.13762884476E+00  0.45296051531E-01 0.  0.
         14    1    1    2    0    0 -0.87965414432E-02 -0.10444702368E-01 -0.55386341777E-02  0.14735922688E-01  0.00000000000E+00 0.  1.
     999901    1    3    3    0    0  0.31486520626E-01  0.13199749343E+00  0.45539264865E-01  0.89156523255E+00  0.88000000000E+00 0. -1.
        -11    1    4    4    0    0  0.27740408979E-03 -0.27294573047E-01 -0.29260388397E-01  0.40018772108E-01  0.51100000000E-03 0.  1.
         11    1    4    4    0    0 -0.22967383273E-01 -0.94258218014E-01 -0.10740242290E-01  0.97610072651E-01  0.51100000000E-03 0. -1.
</event>
<event>
 8    1  0.2959109E+004  0.1043930E+01  0.7957747E-01            NaN
         13   -1    0    0    0    0  0.00000000000E+00  0.00000000000E+00  0.74505805969E-08  0.10566000000E+00  0.10566000000E+00 0. -1.
     999900   -1    0    0    0    0 -0.00000000000E+00 -0.00000000000E+00 -0.74505805969E-08  0.93827000000E+00  0.93827000000E+00 0.  1.
     999902    2    1    2    0    0  0.65438273880E-02 -0.10362831868E-02  0.13056938735E-01  0.10292883058E+01  0.10291841610E+01 0.  0.
     999903    2    3    3    0    0 -0.10152964313E+00  0.10797409539E-01  0.83989926971E-01  0.13976517506E+00  0.45333694312E-01 0.  0.
         14    1    1    2    0    0 -0.65438273880E-02  0.10362831868E-02 -0.13056938735E-01  0.14641694193E-01  0.00000000000E+00 0.  1.
     999901    1    3    3    0    0  0.10807347052E+00 -0.11833692726E-01 -0.70932988236E-01  0.88952313075E+00  0.88000000000E+00 0.  1.
        -11    1    4    4    0    0 -0.73611998535E-01 -0.12062468604E-01  0.47441519862E-01  0.88403554255E-01  0.51100000000E-03 0.  1.
         11    1    4    4    0    0 -0.27917644596E-01  0.22859878143E-01  0.36548407109E-01  0.51361620805E-01  0.51100000000E-03 0. -1.
</event>
<event>
 8    1  0.2959109E+004  0.1043930E+01  0.7957747E-01            NaN
         13   -1    0    0    0    0  0.00000000000E+00  0.00000000000E+00  0.74505805969E-08  0.10566000000E+00  0.10566000000E+00 0.  1.
     999900   -1    0    0    0    0 -0.00000000000E+00 -0.00000000000E+00 -0.74505805969E-08  0.93827000000E+00  0.93827000000E+00 0. -1.
     999902    2    1    2    0    0 -0.93014174335E-02 -0.87067623611E-02  0.44039370623E-02  0.10304496907E+01  0.10303615124E+01 0.  0.
     999903    2    3    3    0    0  0.10937804121E+00  0.92570561215E-02 -0.72435105755E-01  0.13898362226E+00  0.44948345081E-01 0.  0.
         14    1    1    2    0    0  0.93014174335E-02  0.87067623611E-02 -0.44039370623E-02  0.13480309297E-01  0.00000000000E+00 0. -1.
     999901    1    3    3    0    0 -0.11867945864E+00 -0.17963818483E-01  0.76839042817E-01  0.89146606844E+00  0.88000000000E+00 0.  1.
        -11    1    4    4    0    0  0.32817655663E-01 -0.13523295576E-01 -0.80822866341E-02  0.36406902157E-01  0.51100000000E-03 0. -1.
         11    1    4    4    0    0  0.76560385544E-01  0.22780351697E-01 -0.64352819121E-01  0.10257672011E+00  0.51100000000E-03 0.  1.
</event>
<event>
 8    1  0.2959109E+004  0.1043930E+01  0.7957747E-01            NaN
         13   -1    0    0    0    0  0.00000000000E+00  0.00000000000E+00  0.74505805969E-08  0.10566000000E+00  0.10566000000E+00 0. -1.
     999900   -1    0    0    0    0 -0.00000000000E+00 -0.00000000000E+00 -0.74505805969E-08  0.93827000000E+00  0.93827000000E+00 0. -1.
     999902    2    1    2    0    0 -0.39180687378E-02 -0.76373964734E-02  0.92202499430E-02  0.10313326155E+01  0.10312556762E+01 0.  0.
     999903    2    3    3    0    0  0.23166148226E-01 -0.13168720881E+00 -0.19507173411E-01  0.14175565108E+00  0.42847910246E-01 0.  0.
         14    1    1    2    0    0  0.39180687378E-02  0.76373964734E-02 -0.92202499430E-02  0.12597384512E-01  0.00000000000E+00 0.  1.
     999901    1    3    3    0    0 -0.27084216964E-01  0.12404981233E+00  0.28727423354E-01  0.88957696441E+00  0.88000000000E+00 0.  1.
        -11    1    4    4    0    0 -0.12694448548E-01 -0.39168657196E-01 -0.61290838590E-02  0.41631232512E-01  0.51100000000E-03 0.  1.
         11    1    4    4    0    0  0.35860596774E-01 -0.92518551611E-01 -0.13378089552E-01  0.10012441857E+00  0.51100000000E-03 0. -1.
</event>
<event>
 8    1  0.2959109E+004  0.1043930E+01  0.7957747E-01            NaN
         13   -1    0    0    0    0  0.00000000000E+00  0.00000000000E+00  0.74505805969E-08  0.10566000000E+00  0.10566000000E+00 0. -1.
     999900   -1    0    0    0    0 -0.00000000000E+00 -0.00000000000E+00 -0.74505805969E-08  0.93827000000E+00  0.93827000000E+00 0. -1.
     999902    2    1    2    0    0  0.70304173626E-02 -0.11879534035E-01  0.70955559325E-02  0.10284091427E+01  0.10282920148E+01 0.  0.
     999903    2    3    3    0    0 -0.88987510641E-01 -0.87440070171E-01  0.42756663508E-01  0.13925192842E+00  0.44703740036E-01 0.  0.
         14    1    1    2    0    0 -0.70304173626E-02  0.11879534035E-01 -0.70955559325E-02  0.15520857295E-01  0.00000000000E+00 0.  1.
     999901    1    3    3    0    0  0.96017928004E-01  0.75560536136E-01 -0.35661107575E-01  0.88915721428E+00  0.88000000000E+00 0.  1.
        -11    1    4    4    0    0 -0.40067410851E-01 -0.38052382407E-01  0.42535883774E-01  0.69734810164E-01  0.51100000000E-03 0.  1.
         11    1    4    4    0    0 -0.48920099790E-01 -0.49387687764E-01  0.22077973355E-03  0.69517118257E-01  0.51100000000E-03 0. -1.
</event>
<event>
 8    1  0.2959109E+004  0.1043930E+01  0.7957747E-01            NaN
         13   -1    0    0    0    0  0.00000000000E+00  0.00000000000E+00  0.74505805969E-08  0.10566000000E+00  0.10566000000E+00 0. -1.
     999900   -1    0    0    0    0 -0.00000000000E+00 -0.00000000000E+00 -0.74505805969E-08  0.93827000000E+00  0.93827000000E+00 0.  1.
     999902    2    1    2    0    0  0.77622396554E-02 -0.80408296609E-02  0.76469711680E-02  0.10303880845E+01  0.10302990931E+01 0.  0.
     999903    2    3    3    0    0  0.36589863409E-01  0.96807755737E-01 -0.81332000335E-01  0.13924190399E+00  0.45418651160E-01 0.  0.
         14    1    1    2    0    0 -0.77622396554E-02  0.80408296609E-02 -0.76469711680E-02  0.13541915453E-01  0.00000000000E+00 0.  1.
     999901    1    3    3    0    0 -0.28827623754E-01 -0.10484858540E+00  0.88978971503E-01  0.89114618056E+00  0.88000000000E+00 0. -1.
        -11    1    4    4    0    0  0.52727469258E-03  0.61609817159E-01 -0.35424702915E-01  0.71071923335E-01  0.51100000000E-03 0. -1.
         11    1    4    4    0    0  0.36062588717E-01  0.35197938578E-01 -0.45907297419E-01  0.68169980655E-01  0.51100000000E-03 0.  1.
</event>
<event>
 8    1  0.2959109E+004  0.1043930E+01  0.7957747E-01            NaN
         13   -1    0    0    0    0  0.00000000000E+00  0.00000000000E+00  0.74505805969E-08  0.10566000000E+00  0.10566000000E+00 0.  1.
     999900   -1    0    0    0    0 -0.00000000000E+00 -0.00000000000E+00 -0.74505805969E-08  0.93827000000E+00  0.93827000000E+00 0.  1.
     999902    2    1    2    0    0  0.89724101613E-02  0.31237060525E-02 -0.96107557977E-02  0.10304159958E+01  0.10303273732E+01 0.  0.
     999903    2    3    3    0    0 -0.68440695848E-01 -0.90074417851E-01  0.66882350437E-01  0.13882759600E+00  0.44747324080E-01 0.  0.
         14    1    1    2    0    0 -0.89724101613E-02 -0.31237060525E-02  0.96107557977E-02  0.13514004240E-01  0.00000000000E+00 0.  1.
     999901    1    3    3    0    0  0.77413106009E-01  0.93198123904E-01 -0.76493106235E-01  0.89158839976E+00  0.88000000000E+00 0.  1.
        -11    1    4    4    0    0 -0.50452551735E-01 -0.83380859717E-01  0.69144294398E-01  0.11949486312E+00  0.51100000000E-03 0.  1.
         11    1    4    4    0    0 -0.17988144113E-01 -0.66935581340E-02 -0.22619439607E-02  0.19332732880E-01  0.51100000000E-03 0. -1.
</event>
<event>
 8    1  0.2959109E+004  0.1043930E+01  0.7957747E-01            NaN
         13   -1    0    0    0    0  0.00000000000E+00  0.00000000000E+00  0.74505805969E-08  0.10566000000E+00  0.10566000000E+00 0. -1.
     999900   -1    0    0    0    0 -0.00000000000E+00 -0.00000000000E+00 -0.74505805969E-08  0.93827000000E+00  0.93827000000E+00 0.  1.
     999902    2    1    2    0    0  0.48064375905E-02  0.10877679748E-01  0.70347457051E-02  0.10301128582E+01  0.10300201878E+01 0.  0.
     999903    2    3    3    0    0  0.82247156051E-02  0.12912928688E+00  0.36798309026E-01  0.14169797943E+00  0.44521715487E-01 0.  0.
         14    1    1    2    0    0 -0.48064375905E-02 -0.10877679748E-01 -0.70347457051E-02  0.13817141750E-01  0.00000000000E+00 0.  1.
     999901    1    3    3    0    0 -0.34182780146E-02 -0.11825160713E+00 -0.29763563321E-01  0.88841487882E+00  0.88000000000E+00 0.  1.
        -11    1    4    4    0    0  0.20735159044E-01  0.65802316477E-01  0.35483359930E-02  0.69085045296E-01  0.51100000000E-03 0. -1.
         11    1    4    4    0    0 -0.12510443439E-01  0.63326970401E-01  0.33249973033E-01  0.72612934130E-01  0.51100000000E-03 0.  1.
</event>
<event>
 8    1  0.2959109E+004  0.1043930E+01  0.7957747E-01            NaN
         13   -1    0    0    0    0  0.00000000000E+00  0.00000000000E+00  0.74505805969E-08  0.10566000000E+00  0.10566000000E+00 0. -1.
     999900   -1    0    0    0    0 -0.00000000000E+00 -0.00000000000E+00 -0.74505805969E-08  0.93827000000E+00  0.93827000000E+00 0. -1.
     999902    2    1    2    0    0  0.89082193013E-02 -0.10171331437E-01  0.36914958502E-02  0.10299143125E+01  0.10298189412E+01 0.  0.
     999903    2    3    3    0    0  0.34590481976E-01  0.91061871116E-01  0.89276136164E-01  0.13961522199E+00  0.45093413142E-01 0.  0.
         14    1    1    2    0    0 -0.89082193013E-02  0.10171331437E-01 -0.36914958502E-02  0.14015687494E-01  0.00000000000E+00 0.  1.
     999901    1    3    3    0    0 -0.25682262674E-01 -0.10123320255E+00 -0.85584640313E-01  0.89029909052E+00  0.88000000000E+00 0.  1.
        -11    1    4    4    0    0  0.17553617924E-01  0.11565434151E-01  0.38184939998E-01  0.43591736981E-01  0.51100000000E-03 0.  1.
         11    1    4    4    0    0  0.17036864052E-01  0.79496436965E-01  0.51091196165E-01  0.96023485010E-01  0.51100000000E-03 0. -1.
</event>
<event>
 8    1  0.2959109E+004  0.1043930E+01  0.7957747E-01            NaN
         13   -1    0    0    0    0  0.00000000000E+00  0.00000000000E+00  0.74505805969E-08  0.10566000000E+00  0.10566000000E+00 0.  1.
     999900   -1    0    0    0    0 -0.00000000000E+00 -0.00000000000E+00 -0.74505805969E-08  0.93827000000E+00  0.93827000000E+00 0.  1.
     999902    2    1    2    0    0  0.13497415489E-01 -0.46444248345E-02  0.51773767498E-02  0.10287459249E+01  0.10286338619E+01 0.  0.
     999903    2    3    3    0    0 -0.15835099758E-01  0.11771372929E+00  0.54470956098E-01  0.13843037898E+00  0.45701338258E-01 0.  0.
         14    1    1    2    0    0 -0.13497415489E-01  0.46444248345E-02 -0.51773767498E-02  0.15184075109E-01  0.00000000000E+00 0.  1.
     999901    1    3    3    0    0  0.29332515247E-01 -0.12235815412E+00 -0.49293579348E-01  0.89031554591E+00  0.88000000000E+00 0.  1.
        -11    1    4    4    0    0 -0.30389243445E-01  0.69929101447E-01  0.24093568950E-01  0.79964658019E-01  0.51100000000E-03 0.  1.
         11    1    4    4    0    0  0.14554143686E-01  0.47784627840E-01  0.30377387148E-01  0.58465720958E-01  0.51100000000E-03 0. -1.
</event>
<event>
 8    1  0.2959109E+004  0.1043930E+01  0.7957747E-01            NaN
         13   -1    0    0    0    0  0.00000000000E+00  0.00000000000E+00  0.74505805969E-08  0.10566000000E+00  0.10566000000E+00 0. -1.
     999900   -1    0    0    0    0 -0.00000000000E+00 -0.00000000000E+00 -0.74505805969E-08  0.93827000000E+00  0.93827000000E+00 0. -1.
     999902    2    1    2    0    0  0.90985245999E-02  0.10402656890E-01  0.15252440780E-02  0.10300258715E+01  0.10299320226E+01 0.  0.
     999903    2    3    3    0    0  0.40597242545E-01 -0.77143040700E-01 -0.99071015266E-01  0.13942156777E+00  0.44990250759E-01 0.  0.
         14    1    1    2    0    0 -0.90985245999E-02 -0.10402656890E-01 -0.15252440780E-02  0.13904128515E-01  0.00000000000E+00 0. -1.
     999901    1    3    3    0    0 -0.31498717945E-01  0.87545697590E-01  0.10059625934E+00  0.89060430371E+00  0.88000000000E+00 0.  1.
        -11    1    4    4    0    0  0.39887442628E-01 -0.74344184653E-01 -0.68407595128E-01  0.10861825843E+00  0.51100000000E-03 0.  1.
         11    1    4    4    0    0  0.70979991686E-03 -0.27988560462E-02 -0.30663420139E-01  0.30803309346E-01  0.51100000000E-03 0. -1.
</event>
<event>
 8    1  0.2959109E+004  0.1043930E+01  0.7957747E-01            NaN
         13   -1    0    0    0    0  0.00000000000E+00  0.00000000000E+00  0.74505805969E-08  0.10566000000E+00  0.10566000000E+00 0. -1.
     999900   -1    0    0    0    0 -0.00000000000E+00 -0.00000000000E+00 -0.74505805969E-08  0.93827000000E+00  0.93827000000E+00 0. -1.
     999902    2    1    2    0    0  0.12960151958E-01 -0.59167170931E-02  0.36580518295E-02  0.10292210088E+01  0.10291158975E+01 0.  0.
     999903    2    3    3    0    0  0.11207312295E+00 -0.67201250209E-01  0.31161221980E-01  0.14111313278E+00  0.43191452514E-01 0.  0.
         14    1    1    2    0    0 -0.12960151958E-01  0.59167170931E-02 -0.36580518295E-02  0.14708991234E-01  0.00000000000E+00 0.  1.
     999901    1    3    3    0    0 -0.99112970994E-01  0.61284533116E-01 -0.27503170150E-01  0.88810787599E+00  0.88000000000E+00 0. -1.
        -11    1    4    4    0    0  0.40488928533E-01 -0.15835444825E-01 -0.88105796425E-02  0.44362169483E-01  0.51100000000E-03 0. -1.
         11    1    4    4    0    0  0.71584194418E-01 -0.51365805384E-01  0.39971801622E-01  0.96750963299E-01  0.51100000000E-03 0.  1.
</event>
<event>
 8    1  0.2959109E+004  0.1043930E+01  0.7957747E-01            NaN
         13   -1    0    0    0    0  0.00000000000E+00  0.00000000000E+00  0.74505805969E-08  0.10566000000E+00  0.10566000000E+00 0.  1.
     999900   -1    0    0    0    0 -0.00000000000E+00 -0.00000000000E+00 -0.74505805969E-08  0.93827000000E+00  0.93827000000E+00 0.  1.
     999902    2    1    2    0    0 -0.98349021795E-02  0.97998062639E-02  0.34196327968E-03  0.10300419316E+01  0.10299483009E+01 0.  0.
     999903    2    3    3    0    0 -0.35545490451E-02  0.80076443658E-01 -0.10818620974E+00  0.14057208228E+00  0.40390378681E-01 0.  0.
         14    1    1    2    0    0  0.98349021795E-02 -0.97998062639E-02 -0.34196327968E-03  0.13888068353E-01  0.00000000000E+00 0. -1.
     999901    1    3    3    0    0 -0.62803531344E-02 -0.70276637394E-01  0.10852817302E+00  0.88946984937E+00  0.88000000000E+00 0.  1.
        -11    1    4    4    0    0 -0.40101949281E-02  0.78403532725E-01 -0.79157222595E-01  0.11148687195E+00  0.51100000000E-03 0. -1.
         11    1    4    4    0    0  0.45564588301E-03  0.16729109337E-02 -0.29028987145E-01  0.29085210328E-01  0.51100000000E-03 0.  1.
</event>
<event>
 8    1  0.2959109E+004  0.1043930E+01  0.7957747E-01            NaN
         13   -1    0    0    0    0  0.00000000000E+00  0.00000000000E+00  0.74505805969E-08  0.10566000000E+00  0.10566000000E+00 0. -1.
     999900   -1    0    0    0    0 -0.00000000000E+00 -0.00000000000E+00 -0.74505805969E-08  0.93827000000E+00  0.93827000000E+00 0.  1.
     999902    2    1    2    0    0 -0.12242725536E-01  0.40659424135E-02  0.33648457638E-02  0.10305981433E+01  0.10305119090E+01 0.  0.
     999903    2    3    3    0    0  0.56165251927E-01  0.11816255554E+00  0.24476554384E-01  0.14034908109E+00  0.44517836792E-01 0.  0.
         14    1    1    2    0    0  0.12242725536E-01 -0.40659424135E-02 -0.33648457638E-02  0.13331856708E-01  0.00000000000E+00 0.  1.
     999901    1    3    3    0    0 -0.68407977463E-01 -0.11409661313E+00 -0.21111708620E-01  0.89024906220E+00  0.88000000000E+00 0. -1.
        -11    1    4    4    0    0  0.36740934545E-01  0.47303858282E-01 -0.72145960580E-02  0.60331275445E-01  0.51100000000E-03 0. -1.
         11    1    4    4    0    0  0.19424317382E-01  0.70858697260E-01  0.31691150442E-01  0.80017805647E-01  0.51100000000E-03 0.  1.
</event>
<event>
 8    1  0.2959109E+004  0.1043930E+01  0.7957747E-01            NaN
         13   -1    0    0    0    0  0.00000000000E+00  0.00000000000E+00  0.74505805969E-08  0.10566000000E+00  0.10566000000E+00 0.  1.
     999900   -1    0    0    0    0 -0.00000000000E+00 -0.00000000000E+00 -0.74505805969E-08  0.93827000000E+00  0.93827000000E+00 0.  1.
     999902    2    1    2    0    0 -0.10199660400E-01  0.99282494120E-02 -0.17224126600E-02  0.10295922905E+01  0.10294924549E+01 0.  0.
     999903    2    3    3    0    0  0.97732559855E-01 -0.19024543260E-01 -0.85187027683E-01  0.13860745878E+00  0.45184194607E-01 0.  0.
         14    1    1    2    0    0  0.10199660400E-01 -0.99282494120E-02  0.17224126600E-02  0.14337709511E-01  0.00000000000E+00 0.  1.
     999901    1    3    3    0    0 -0.10793222025E+00  0.28952792672E-01  0.83464615023E-01  0.89098483171E+00  0.88000000000E+00 0. -1.
        -11    1    4    4    0    0  0.40261163673E-01  0.13426593193E-01 -0.24857072488E-01  0.49187090570E-01  0.51100000000E-03 0. -1.
         11    1    4    4    0    0  0.57471396182E-01 -0.32451136453E-01 -0.60329955195E-01  0.89420368211E-01  0.51100000000E-03 0.  1.
</event>
<event>
 8    1  0.2959109E+004  0.1043930E+01  0.7957747E-01            NaN
         13   -1    0    0    0    0  0.00000000000E+00  0.00000000000E+00  0.74505805969E-08  0.10566000000E+00  0.10566000000E+00 0. -1.
     999900   -1    0    0    0    0 -0.00000000000E+00 -0.00000000000E+00 -0.74505805969E-08  0.93827000000E+00  0.93827000000E+00 0. -1.
     999902    2    1    2    0    0 -0.20450767089E-01  0.18140468872E-02  0.16083842974E-03  0.10233983048E+01  0.10231923278E+01 0.  0.
     999903    2    3    3    0    0  0.14390670833E-01 -0.10835338050E+00  0.62551411405E-01  0.13365487463E+00  0.44759356230E-01 0.  0.
         14    1    1    2    0    0  0.20450767089E-01 -0.18140468872E-02 -0.16083842974E-03  0.20531695245E-01  0.00000000000E+00 0. -1.
     999901    1    3    3    0    0 -0.34841437921E-01  0.11016742739E+00 -0.62390572975E-01  0.88974343012E+00  0.88000000000E+00 0. -1.
        -11    1    4    4    0    0  0.94355113283E-02 -0.14951302032E-01 -0.48796824347E-02  0.18347826251E-01  0.51100000000E-03 0. -1.
         11    1    4    4    0    0  0.49551595042E-02 -0.93402078471E-01  0.67431093840E-01  0.11530704838E+00  0.51100000000E-03 0.  1.
</event>
<event>
 8    1  0.2959109E+004  0.1043930E+01  0.7957747E-01            NaN
         13   -1    0    0    0    0  0.00000000000E+00  0.00000000000E+00  0.74505805969E-08  0.10566000000E+00  0.10566000000E+00 0. -1.
     999900   -1    0    0    0    0 -0.00000000000E+00 -0.00000000000E+00 -0.74505805969E-08  0.93827000000E+00  0.93827000000E+00 0.  1.
     999902    2    1    2    0    0 -0.21952150103E-02 -0.14438412716E-01 -0.12815521872E-04  0.10293256549E+01  0.10292220446E+01 0.  0.
     999903    2    3    3    0    0  0.70598972858E-01  0.20320026073E-01  0.10779511164E+00  0.13908428765E+00  0.48244528712E-01 0.  0.
         14    1    1    2    0    0  0.21952150103E-02  0.14438412716E-01  0.12815521872E-04  0.14604345070E-01  0.00000000000E+00 0. -1.
     999901    1    3    3    0    0 -0.72794187868E-01 -0.34758438789E-01 -0.10780792716E+00  0.89024136728E+00  0.88000000000E+00 0.  1.
        -11    1    4    4    0    0  0.53745546102E-01 -0.41944665570E-02  0.88482374099E-01  0.10361259056E+00  0.51100000000E-03 0.  1.
         11    1    4    4    0    0  0.16853426756E-01  0.24514492630E-01  0.19312737538E-01  0.35471697091E-01  0.51100000000E-03 0. -1.
</event>
<event>
 8    1  0.2959109E+004  0.1043930E+01  0.7957747E-01            NaN
         13   -1    0    0    0    0  0.00000000000E+00  0.00000000000E+00  0.74505805969E-08  0.10566000000E+00  0.10566000000E+00 0.  1.
     999900   -1    0    0    0    0 -0.00000000000E+00 -0.00000000000E+00 -0.74505805969E-08  0.93827000000E+00  0.93827000000E+00 0.  1.
     999902    2    1    2    0    0 -0.46846236765E-02  0.11898830030E-01  0.12379063089E-02  0.10310824217E+01  0.10310023764E+01 0.  0.
     999903    2    3    3    0    0  0.64122100430E-01 -0.10875827195E+00 -0.37255739434E-01  0.13935698064E+00  0.45742457864E-01 0.  0.
         14    1    1    2    0    0  0.46846236765E-02 -0.11898830030E-01 -0.12379063089E-02  0.12847578258E-01  0.00000000000E+00 0. -1.
     999901    1    3    3    0    0 -0.68806724106E-01  0.12065710198E+00  0.38493645743E-01  0.89172544110E+00  0.88000000000E+00 0. -1.
        -11    1    4    4    0    0  0.17817209239E-01 -0.73469947522E-01 -0.15300603972E-01  0.77134011544E-01  0.51100000000E-03 0.  1.
         11    1    4    4    0    0  0.46304891191E-01 -0.35288324431E-01 -0.21955135462E-01  0.62222969099E-01  0.51100000000E-03 0. -1.
</event>
<event>
 8    1  0.2959109E+004  0.1043930E+01  0.7957747E-01            NaN
         13   -1    0    0    0    0  0.00000000000E+00  0.00000000000E+00  0.74505805969E-08  0.10566000000E+00  0.10566000000E+00 0.  1.
     999900   -1    0    0    0    0 -0.00000000000E+00 -0.00000000000E+00 -0.74505805969E-08  0.93827000000E+00  0.93827000000E+00 0.  1.
     999902    2    1    2    0    0 -0.12120076574E-01 -0.64256106651E-02 -0.32316389560E-03  0.10302081501E+01  0.10301167621E+01 0.  0.
     999903    2    3    3    0    0  0.27546378404E-01  0.11497854361E+00  0.58349848121E-01  0.13905444922E+00  0.44187856015E-01 0.  0.
         14    1    1    2    0    0  0.12120076574E-01  0.64256106651E-02  0.32316389560E-03  0.13721849856E-01  0.00000000000E+00 0. -1.
     999901    1    3    3    0    0 -0.39666454978E-01 -0.12140415427E+00 -0.58673012017E-01  0.89115370092E+00  0.88000000000E+00 0.  1.
        -11    1    4    4    0    0  0.16429725676E-01  0.52181860958E-01  0.33046574148E-02  0.54809345740E-01  0.51100000000E-03 0.  1.
         11    1    4    4    0    0  0.11116652728E-01  0.62796682651E-01  0.55045190707E-01  0.84245103483E-01  0.51100000000E-03 0. -1.
</event>
<event>
 8    1  0.2959109E+004  0.1043930E+01  0.7957747E-01            NaN
         13   -1    0    0    0    0  0.00000000000E+00  0.00000000000E+00  0.74505805969E-08  0.10566000000E+00  0.10566000000E+00 0.  1.
     999900   -1    0    0    0    0 -0.00000000000E+00 -0.00000000000E+00 -0.74505805969E-08  0.93827000000E+00  0.93827000000E+00 0.  1.
     999902    2    1    2    0    0  0.10114143400E-01 -0.58024816861E-03  0.86507099893E-02  0.10306083121E+01  0.10305222102E+01 0.  0.
     999903    2    3    3    0    0  0.16957938671E-01  0.11313056164E+00  0.67235181373E-01  0.14133381789E+00  0.48668088147E-01 0.  0.
         14    1    1    2    0    0 -0.10114143400E-01  0.58024816861E-03 -0.86507099893E-02  0.13321687880E-01  0.00000000000E+00 0. -1.
     999901    1    3    3    0    0 -0.68437952707E-02 -0.11371080981E+00 -0.58584471384E-01  0.88927449423E+00  0.88000000000E+00 0.  1.
        -11    1    4    4    0    0  0.96300075788E-03  0.10706503937E+00  0.60166745225E-01  0.12281754100E+00  0.51100000000E-03 0. -1.
         11    1    4    4    0    0  0.15994937913E-01  0.60655222729E-02  0.70684361489E-02  0.18516276890E-01  0.51100000000E-03 0.  1.
</event>
<event>
 8    1  0.2959109E+004  0.1043930E+01  0.7957747E-01            NaN
         13   -1    0    0    0    0  0.00000000000E+00  0.00000000000E+00  0.74505805969E-08  0.10566000000E+00  0.10566000000E+00 0.  1.
     999900   -1    0    0    0    0 -0.00000000000E+00 -0.00000000000E+00 -0.74505805969E-08  0.93827000000E+00  0.93827000000E+00 0. -1.
     999902    2    1    2    0    0  0.69908770308E-02  0.98626177459E-02 -0.65833897099E-02  0.10301646591E+01  0.10300726869E+01 0.  0.
     999903    2    3    3    0    0  0.26759172509E-01  0.11287004873E+00 -0.68269028789E-01  0.14179174504E+00  0.44593020245E-01 0.  0.
         14    1    1    2    0    0 -0.69908770308E-02 -0.98626177459E-02  0.65833897099E-02  0.13765340916E-01  0.00000000000E+00 0.  1.
     999901    1    3    3    0    0 -0.19768295478E-01 -0.10300743099E+00  0.61685639079E-01  0.88837291405E+00  0.88000000000E+00 0. -1.
        -11    1    4    4    0    0  0.14639840755E-01  0.34826086234E-01 -0.46404970317E-01  0.59840317603E-01  0.51100000000E-03 0. -1.
         11    1    4    4    0    0  0.12119331754E-01  0.78043962498E-01 -0.21864058472E-01  0.81951427434E-01  0.51100000000E-03 0.  1.
</event>
<event>
 8    1  0.2959109E+004  0.1043930E+01  0.7957747E-01            NaN
         13   -1    0    0    0    0  0.00000000000E+00  0.00000000000E+00  0.74505805969E-08  0.10566000000E+00  0.10566000000E+00 0. -1.
     999900   -1    0    0    0    0 -0.00000000000E+00 -0.00000000000E+00 -0.74505805969E-08  0.93827000000E+00  0.93827000000E+00 0. -1.
     999902    2    1    2    0    0  0.10605426327E-02 -0.11889813651E-01 -0.61065750447E-02  0.10305216937E+01  0.10304344610E+01 0.  0.
     999903    2    3    3    0    0 -0.12071570895E+00  0.51347628337E-01  0.16455129489E-01  0.13960224726E+00  0.44823596810E-01 0.  0.
         14    1    1    2    0    0 -0.10605426327E-02  0.11889813651E-01  0.61065750447E-02  0.13408306310E-01  0.00000000000E+00 0. -1.
     999901    1    3    3    0    0  0.12177625158E+00 -0.63237441988E-01 -0.22561704534E-01  0.89091944643E+00  0.88000000000E+00 0. -1.
        -11    1    4    4    0    0 -0.60226536434E-01  0.44065179233E-01  0.23567927260E-01  0.78260360515E-01  0.51100000000E-03 0.  1.
         11    1    4    4    0    0 -0.60489172512E-01  0.72824491044E-02 -0.71127977709E-02  0.61341886744E-01  0.51100000000E-03 0. -1.
</event>
<event>
 8    1  0.2959109E+004  0.1043930E+01  0.7957747E-01            NaN
         13   -1    0    0    0    0  0.00000000000E+00  0.00000000000E+00  0.74505805969E-08  0.10566000000E+00  0.10566000000E+00 0.  1.
     999900   -1    0    0    0    0 -0.00000000000E+00 -0.00000000000E+00 -0.74505805969E-08  0.93827000000E+00  0.93827000000E+00 0.  1.
     999902    2    1    2    0    0  0.72861552561E-02  0.87041480598E-03  0.10515181447E-01  0.10311075696E+01  0.10310278393E+01 0.  0.
     999903    2    3    3    0    0  0.11046543390E-02 -0.78293153851E-01  0.10962691203E+00  0.14199103242E+00  0.44859282703E-01 0.  0.
         14    1    1    2    0    0 -0.72861552561E-02 -0.87041480598E-03 -0.10515181447E-01  0.12822430394E-01  0.00000000000E+00 0. -1.
     999901    1    3    3    0    0  0.61815009170E-02  0.79163568657E-01 -0.99111730587E-01  0.88911653719E+00  0.88000000000E+00 0.  1.
        -11    1    4    4    0    0 -0.13210736116E-01 -0.28173617014E-01  0.69693633864E-01  0.76326535140E-01  0.51100000000E-03 0.  1.
         11    1    4    4    0    0  0.14315390455E-01 -0.50119536837E-01  0.39933278170E-01  0.65664497281E-01  0.51100000000E-03 0. -1.
</event>
<event>
 8    1  0.2959109E+004  0.1043930E+01  0.7957747E-01            NaN
         13   -1    0    0    0    0  0.00000000000E+00  0.00000000000E+00  0.74505805969E-08  0.10566000000E+00  0.10566000000E+00 0.  1.
     999900   -1    0    0    0    0 -0.00000000000E+00 -0.00000000000E+00 -0.74505805969E-08  0.93827000000E+00  0.93827000000E+00 0.  1.
     999902    2    1    2    0    0 -0.44534893552E-02 -0.40742177584E-02  0.11286783369E-01  0.10311306134E+01  0.10310511712E+01 0.  0.
     999903    2    3    3    0    0  0.12948420313E-01  0.11033849593E+00  0.75542217862E-01  0.14123069974E+00  0.43557302478E-01 0.  0.
         14    1    1    2    0    0  0.44534893552E-02  0.40742177584E-02 -0.11286783369E-01  0.12799386571E-01  0.00000000000E+00 0. -1.
     999901    1    3    3    0    0 -0.17401909668E-01 -0.11441271368E+00 -0.64255434492E-01  0.88989991368E+00  0.88000000000E+00 0.  1.
        -11    1    4    4    0    0  0.12687145125E-01  0.52712583577E-01  0.12161511306E-01  0.55567468873E-01  0.51100000000E-03 0.  1.
         11    1    4    4    0    0  0.26127518792E-03  0.57625912349E-01  0.63380706556E-01  0.85663230871E-01  0.51100000000E-03 0. -1.
</event>
<event>
 8    1  0.2959109E+004  0.1043930E+01  0.7957747E-01            NaN
         13   -1    0    0    0    0  0.00000000000E+00  0.00000000000E+00  0.74505805969E-08  0.10566000000E+00  0.10566000000E+00 0.  1.
     999900   -1    0    0    0    0 -0.00000000000E+00 -0.00000000000E+00 -0.74505805969E-08  0.93827000000E+00  0.93827000000E+00 0.  1.
     999902    2    1    2    0    0  0.43508979964E-03  0.12506219921E-01 -0.64330123485E-02  0.10298595171E+01  0.10297633935E+01 0.  0.
     999903    2    3    3    0    0  0.61147570272E-01 -0.76179792842E-01 -0.89844114463E-01  0.13940534870E+00  0.42655599347E-01 0.  0.
         14    1    1    2    0    0 -0.43508979964E-03 -0.12506219921E-01  0.64330123485E-02  0.14070482853E-01  0.00000000000E+00 0.  1.
     999901    1    3    3    0    0 -0.60712480472E-01  0.88686012762E-01  0.83411102115E-01  0.89045416844E+00  0.88000000000E+00 0. -1.
        -11    1    4    4    0    0  0.20953248692E-01 -0.82311044064E-02 -0.40400484136E-01  0.46252026442E-01  0.51100000000E-03 0. -1.
         11    1    4    4    0    0  0.40194321579E-01 -0.67948688435E-01 -0.49443630327E-01  0.93153322261E-01  0.51100000000E-03 0.  1.
</event>
<event>
 8    1  0.2959109E+004  0.1043930E+01  0.7957747E-01            NaN
         13   -1    0    0    0    0  0.00000000000E+00  0.00000000000E+00  0.74505805969E-08  0.10566000000E+00  0.10566000000E+00 0.  1.
     999900   -1    0    0    0    0 -0.00000000000E+00 -0.00000000000E+00 -0.74505805969E-08  0.93827000000E+00  0.93827000000E+00 0.  1.
     999902    2    1    2    0    0 -0.10348058460E-01 -0.41905948764E-02  0.83279012326E-02  0.10300017073E+01  0.10299075297E+01 0.  0.
     999903    2    3    3    0    0  0.70790853397E-01  0.33123601579E-01  0.10741921619E+00  0.13994836001E+00  0.44024283719E-01 0.  0.
         14    1    1    2    0    0  0.10348058460E-01  0.41905948764E-02 -0.83279012326E-02  0.13928292726E-01  0.00000000000E+00 0. -1.
     999901    1    3    3    0    0 -0.81138911857E-01 -0.37314196456E-01 -0.99091314957E-01  0.89005334726E+00  0.88000000000E+00 0.  1.
        -11    1    4    4    0    0  0.11565380261E-01  0.27942254772E-01  0.35613317256E-01  0.46723624745E-01  0.51100000000E-03 0.  1.
         11    1    4    4    0    0  0.59225473135E-01  0.51813468070E-02  0.71805898933E-01  0.93224735266E-01  0.51100000000E-03 0. -1.
</event>
<event>
 8    1  0.2959109E+004  0.1043930E+01  0.7957747E-01            NaN
         13   -1    0    0    0    0  0.00000000000E+00  0.00000000000E+00  0.74505805969E-08  0.10566000000E+00  0.10566000000E+00 0. -1.
     999900   -1    0    0    0    0 -0.00000000000E+00 -0.00000000000E+00 -0.74505805969E-08  0.93827000000E+00  0.93827000000E+00 0. -1.
     999902    2    1    2    0    0 -0.20060165538E-02  0.62572396428E-03  0.11149603888E-01  0.10325841065E+01  0.10325217710E+01 0.  0.
     999903    2    3    3    0    0  0.18013958981E-01  0.77850471062E-01 -0.10711489553E+00  0.14109605114E+00  0.45269153314E-01 0.  0.
         14    1    1    2    0    0  0.20060165538E-02 -0.62572396428E-03 -0.11149603888E-01  0.11345893519E-01  0.00000000000E+00 0.  1.
     999901    1    3    3    0    0 -0.20019975535E-01 -0.77224747098E-01  0.11826449942E+00  0.89148805534E+00  0.88000000000E+00 0.  1.
        -11    1    4    4    0    0  0.21148914473E-01  0.71668268602E-01 -0.66937887103E-01  0.10032227648E+00  0.51100000000E-03 0.  1.
         11    1    4    4    0    0 -0.31349554915E-02  0.61822024601E-02 -0.40177008425E-01  0.40773774662E-01  0.51100000000E-03 0. -1.
</event>
<event>
 8    1  0.2959109E+004  0.1043930E+01  0.7957747E-01            NaN
         13   -1    0    0    0    0  0.00000000000E+00  0.00000000000E+00  0.74505805969E-08  0.10566000000E+00  0.10566000000E+00 0. -1.
     999900   -1    0    0    0    0 -0.00000000000E+00 -0.00000000000E+00 -0.74505805969E-08  0.93827000000E+00  0.93827000000E+00 0.  1.
     999902    2    1    2    0    0 -0.18844155524E-01 -0.82850012262E-02 -0.50868352748E-02  0.10227257708E+01  0.10225059330E+01 0.  0.
     999903    2    3    3    0    0  0.65175578242E-01 -0.14394544271E-01  0.10454258103E+00  0.13193104075E+00  0.44962088039E-01 0.  0.
         14    1    1    2    0    0  0.18844155524E-01  0.82850012262E-02  0.50868352748E-02  0.21204229197E-01  0.00000000000E+00 0.  1.
     999901    1    3    3    0    0 -0.84019733765E-01  0.61095430444E-02 -0.10962941630E+00  0.89079473006E+00  0.88000000000E+00 0.  1.
        -11    1    4    4    0    0  0.24179194684E-01  0.58145239022E-02  0.71010489143E-01  0.75240898673E-01  0.51100000000E-03 0. -1.
         11    1    4    4    0    0  0.40996383558E-01 -0.20209068173E-01  0.33532091884E-01  0.56690142074E-01  0.51100000000E-03 0.  1.
</event>
<event>
 8    1  0.2959109E+004  0.1043930E+01  0.7957747E-01            NaN
         13   -1    0    0    0    0  0.00000000000E+00  0.00000000000E+00  0.74505805969E-08  0.10566000000E+00  0.10566000000E+00 0. -1.
     999900   -1    0    0    0    0 -0.00000000000E+00 -0.00000000000E+00 -0.74505805969E-08  0.93827000000E+00  0.93827000000E+00 0. -1.
     999902    2    1    2    0    0 -0.79023228111E-02 -0.85193547112E-02 -0.84161749132E-02  0.10295822437E+01  0.10294822672E+01 0.  0.
     999903    2    3    3    0    0 -0.46729042366E-01 -0.88122414797E-01  0.85519083085E-01  0.14016221131E+00  0.48813609971E-01 0.  0.
         14    1    1    2    0    0  0.79023228111E-02  0.85193547112E-02  0.84161749132E-02  0.14347756294E-01  0.00000000000E+00 0. -1.
     999901    1    3    3    0    0  0.38826719555E-01  0.79603060086E-01 -0.93935257998E-01  0.88942003239E+00  0.88000000000E+00 0. -1.
        -11    1    4    4    0    0 -0.47756338518E-01 -0.55984442671E-01  0.38097512086E-01  0.82864994044E-01  0.51100000000E-03 0. -1.
         11    1    4    4    0    0  0.10272961518E-02 -0.32137972126E-01  0.47421570999E-01  0.57297217269E-01  0.51100000000E-03 0.  1.
</event>
<event>
 8    1  0.2959109E+004  0.1043930E+01  0.7957747E-01            NaN
         13   -1    0    0    0    0  0.00000000000E+00  0.00000000000E+00  0.74505805969E-08  0.10566000000E+00  0.10566000000E+00 0.  1.
     999900   -1    0    0    0    0 -0.00000000000E+00 -0.00000000000E+00 -0.74505805969E-08  0.93827000000E+00  0.93827000000E+00 0.  1.
     999902    2    1    2    0    0 -0.13301778743E-01  0.64616931287E-04 -0.42023142406E-02  0.10299800560E+01  0.10298855833E+01 0.  0.
     999903    2    3    3    0    0 -0.70151130417E-02 -0.12027495128E+00 -0.55652639758E-01  0.14027883094E+00  0.45449514658E-01 0.  0.
         14    1    1    2    0    0  0.13301778743E-01 -0.64616931287E-04  0.42023142406E-02  0.13949944016E-01  0.00000000000E+00 0.  1.
     999901    1    3    3    0    0 -0.62866657012E-02  0.12033956821E+00  0.51450325518E-01  0.88970122504E+00  0.88000000000E+00 0. -1.
        -11    1    4    4    0    0  0.14395083779E-01 -0.52778564549E-01 -0.89086156195E-02  0.55429413366E-01  0.51100000000E-03 0.  1.
         11    1    4    4    0    0 -0.21410196821E-01 -0.67496386730E-01 -0.46744024139E-01  0.84849417578E-01  0.51100000000E-03 0. -1.
</event>
<event>
 8    1  0.2959109E+004  0.1043930E+01  0.7957747E-01            NaN
         13   -1    0    0    0    0  0.00000000000E+00  0.00000000000E+00  0.74505805969E-08  0.10566000000E+00  0.10566000000E+00 0. -1.
     999900   -1    0    0    0    0 -0.00000000000E+00 -0.00000000000E+00 -0.74505805969E-08  0.93827000000E+00  0.93827000000E+00 0.  1.
     999902    2    1    2    0    0  0.23012895288E-02 -0.89158408614E-02  0.10066453942E-01  0.10302873592E+01  0.10301970302E+01 0.  0.
     999903    2    3    3    0    0 -0.95964987041E-01 -0.55804837741E-01  0.74821924943E-01  0.14121587159E+00  0.44946004088E-01 0.  0.
         14    1    1    2    0    0 -0.23012895288E-02  0.89158408614E-02 -0.10066453942E-01  0.13642640753E-01  0.00000000000E+00 0. -1.
     999901    1    3    3    0    0  0.98266276570E-01  0.46888996880E-01 -0.64755471002E-01  0.88907148766E+00  0.88000000000E+00 0.  1.
        -11    1    4    4    0    0 -0.78848667750E-01 -0.55250618307E-01  0.43796101157E-01  0.10577382865E+00  0.51100000000E-03 0.  1.
         11    1    4    4    0    0 -0.17116319291E-01 -0.55421943403E-03  0.31025823787E-01  0.35442042942E-01  0.51100000000E-03 0. -1.
</event>
<event>
 8    1  0.2959109E+004  0.1043930E+01  0.7957747E-01            NaN
         13   -1    0    0    0    0  0.00000000000E+00  0.00000000000E+00  0.74505805969E-08  0.10566000000E+00  0.10566000000E+00 0. -1.
     999900   -1    0    0    0    0 -0.00000000000E+00 -0.00000000000E+00 -0.74505805969E-08  0.93827000000E+00  0.93827000000E+00 0.  1.
     999902    2    1    2    0    0  0.20089730332E-02  0.12792693968E-01 -0.68508566004E-02  0.10292799752E+01  0.10291757110E+01 0.  0.
     999903    2    3    3    0    0 -0.12630828855E+00  0.38572445605E-01 -0.72964998781E-02  0.13960019355E+00  0.44647035873E-01 0.  0.
         14    1    1    2    0    0 -0.20089730332E-02 -0.12792693968E-01  0.68508566004E-02  0.14650024839E-01  0.00000000000E+00 0. -1.
     999901    1    3    3    0    0  0.12831726158E+00 -0.25779751637E-01  0.44564327764E-03  0.88967978161E+00  0.88000000000E+00 0. -1.
        -11    1    4    4    0    0 -0.92181469249E-01  0.94853996587E-02  0.58937769448E-02  0.92856845775E-01  0.51100000000E-03 0.  1.
         11    1    4    4    0    0 -0.34126819298E-01  0.29087045946E-01 -0.13190276823E-01  0.46743347772E-01  0.51100000000E-03 0. -1.
</event>
<event>
 8    1  0.2959109E+004  0.1043930E+01  0.7957747E-01            NaN
         13   -1    0    0    0    0  0.00000000000E+00  0.00000000000E+00  0.74505805969E-08  0.10566000000E+00  0.10566000000E+00 0. -1.
     999900   -1    0    0    0    0 -0.00000000000E+00 -0.00000000000E+00 -0.74505805969E-08  0.93827000000E+00  0.93827000000E+00 0.  1.
     999902    2    1    2    0    0 -0.63465997144E-02 -0.47972531559E-02  0.11804347841E-01  0.10296949870E+01  0.10295965864E+01 0.  0.
     999903    2    3    3    0    0 -0.78575675002E-02 -0.11805581384E+00  0.61828100085E-01  0.14102622965E+00  0.45461708504E-01 0.  0.
         14    1    1    2    0    0  0.63465997144E-02  0.47972531559E-02 -0.11804347841E-01  0.14235012952E-01  0.00000000000E+00 0.  1.
     999901    1    3    3    0    0  0.15109677858E-02  0.11325856068E+00 -0.50023752244E-01  0.88866875740E+00  0.88000000000E+00 0.  1.
        -11    1    4    4    0    0 -0.22338112048E-01 -0.10443051598E+00  0.50432924079E-01  0.11810361921E+00  0.51100000000E-03 0.  1.
         11    1    4    4    0    0  0.14480544547E-01 -0.13625297857E-01  0.11395176006E-01  0.22922610438E-01  0.51100000000E-03 0. -1.
</event>
<event>
 8    1  0.2959109E+004  0.1043930E+01  0.7957747E-01            NaN
         13   -1    0    0    0    0  0.00000000000E+00  0.00000000000E+00  0.74505805969E-08  0.10566000000E+00  0.10566000000E+00 0. -1.
     999900   -1    0    0    0    0 -0.00000000000E+00 -0.00000000000E+00 -0.74505805969E-08  0.93827000000E+00  0.93827000000E+00 0. -1.
     999902    2    1    2    0    0  0.93158653176E-02 -0.89939441154E-02  0.76384651223E-02  0.10288959544E+01  0.10287861111E+01 0.  0.
     999903    2    3    3    0    0 -0.11002502075E+00  0.35924408926E-01  0.61001527936E-01  0.13810556268E+00  0.44225464223E-01 0.  0.
         14    1    1    2    0    0 -0.93158653176E-02  0.89939441154E-02 -0.76384651223E-02  0.15034045590E-01  0.00000000000E+00 0.  1.
     999901    1    3    3    0    0  0.11934088606E+00 -0.44918353042E-01 -0.53363062814E-01  0.89079039173E+00  0.88000000000E+00 0. -1.
        -11    1    4    4    0    0 -0.46058380544E-01 -0.68880558826E-02  0.28111640575E-01  0.54399863869E-01  0.51100000000E-03 0. -1.
         11    1    4    4    0    0 -0.63966640202E-01  0.42812464809E-01  0.32889887361E-01  0.83705698811E-01  0.51100000000E-03 0.  1.
</event>
<event>
 8    1  0.2959109E+004  0.1043930E+01  0.7957747E-01            NaN
         13   -1    0    0    0    0  0.00000000000E+00  0.00000000000E+00  0.74505805969E-08  0.10566000000E+00  0.10566000000E+00 0. -1.
     999900   -1    0    0    0    0 -0.00000000000E+00 -0.00000000000E+00 -0.74505805969E-08  0.93827000000E+00  0.93827000000E+00 0. -1.
     999902    2    1    2    0    0  0.67728608469E-02  0.92366248382E-02  0.86760338314E-02  0.10295612685E+01  0.10294609974E+01 0.  0.
     999903    2    3    3    0    0  0.55825103611E-01 -0.74264944408E-01 -0.92392411096E-01  0.13849815896E+00  0.44873803563E-01 0.  0.
         14    1    1    2    0    0 -0.67728608469E-02 -0.92366248382E-02 -0.86760338314E-02  0.14368731520E-01  0.00000000000E+00 0.  1.
     999901    1    3    3    0    0 -0.49052242764E-01  0.83501569246E-01  0.10106844493E+00  0.89106310952E+00  0.88000000000E+00 0.  1.
        -11    1    4    4    0    0  0.34422634740E-01 -0.10993350975E-01 -0.37028614006E-01  0.51741191756E-01  0.51100000000E-03 0.  1.
         11    1    4    4    0    0  0.21402468871E-01 -0.63271593433E-01 -0.55363797090E-01  0.86756967204E-01  0.51100000000E-03 0. -1.
</event>
<event>
 8    1  0.2959109E+004  0.1043930E+01  0.7957747E-01            NaN
         13   -1    0    0    0    0  0.00000000000E+00  0.00000000000E+00  0.74505805969E-08  0.10566000000E+00  0.10566000000E+00 0.  1.
     999900   -1    0    0    0    0 -0.00000000000E+00 -0.00000000000E+00 -0.74505805969E-08  0.93827000000E+00  0.93827000000E+00 0.  1.
     999902    2    1    2    0    0 -0.47574461235E-02 -0.11114736559E-01 -0.41966189421E-02  0.10311322552E+01  0.10310528334E+01 0.  0.
     999903    2    3    3    0    0 -0.10329740801E+00 -0.44606692447E-01 -0.74323547032E-01  0.14222864889E+00  0.45220431327E-01 0.  0.
         14    1    1    2    0    0  0.47574461235E-02  0.11114736559E-01  0.41966189421E-02  0.12797744838E-01  0.00000000000E+00 0. -1.
     999901    1    3    3    0    0  0.98539961887E-01  0.33491955888E-01  0.70126928090E-01  0.88890360627E+00  0.88000000000E+00 0. -1.
        -11    1    4    4    0    0 -0.39874343231E-01  0.27534085911E-02 -0.37939030994E-01  0.55110577031E-01  0.51100000000E-03 0. -1.
         11    1    4    4    0    0 -0.63423064779E-01 -0.47360101038E-01 -0.36384516038E-01  0.87118071860E-01  0.51100000000E-03 0.  1.
</event>
<event>
 8    1  0.2959109E+004  0.1043930E+01  0.7957747E-01            NaN
         13   -1    0    0    0    0  0.00000000000E+00  0.00000000000E+00  0.74505805969E-08  0.10566000000E+00  0.10566000000E+00 0. -1.
     999900   -1    0    0    0    0 -0.00000000000E+00 -0.00000000000E+00 -0.74505805969E-08  0.93827000000E+00  0.93827000000E+00 0. -1.
     999902    2    1    2    0    0  0.12950360694E-01 -0.26314110427E-02 -0.35616461953E-02  0.10302434559E+01  0.10301525406E+01 0.  0.
     999903    2    3    3    0    0  0.11151879144E+00  0.73025463799E-01  0.11280542258E-01  0.14139026845E+00  0.45768965166E-01 0.  0.
         14    1    1    2    0    0 -0.12950360694E-01  0.26314110427E-02  0.35616461953E-02  0.13686544114E-01  0.00000000000E+00 0.  1.
     999901    1    3    3    0    0 -0.98568430747E-01 -0.75656874841E-01 -0.14842188454E-01  0.88885318743E+00  0.88000000000E+00 0. -1.
        -11    1    4    4    0    0 -0.20224410369E-02  0.66150270881E-02 -0.54116268353E-02  0.87974812946E-02  0.51100000000E-03 0. -1.
         11    1    4    4    0    0  0.11354123248E+00  0.66410436710E-01  0.16692169094E-01  0.13259278716E+00  0.51100000000E-03 0.  1.
</event>
<event>
 8    1  0.2959109E+004  0.1043930E+01  0.7957747E-01            NaN
         13   -1    0    0    0    0  0.00000000000E+00  0.00000000000E+00  0.74505805969E-08  0.10566000000E+00  0.10566000000E+00 0.  1.
     999900   -1    0    0    0    0 -0.00000000000E+00 -0.00000000000E+00 -0.74505805969E-08  0.93827000000E+00  0.93827000000E+00 0. -1.
     999902    2    1    2    0    0  0.12354431341E-01 -0.20605698334E-02 -0.43352720687E-02  0.10306758495E+01  0.10305906240E+01 0.  0.
     999903    2    3    3    0    0  0.29148943136E-01 -0.12525282200E+00  0.40043319140E-01  0.14082875815E+00  0.41125921376E-01 0.  0.
         14    1    1    2    0    0 -0.12354431341E-01  0.20605698334E-02  0.43352720687E-02  0.13254150509E-01  0.00000000000E+00 0.  1.
     999901    1    3    3    0    0 -0.16794511794E-01  0.12319225216E+00 -0.44378591209E-01  0.88984709135E+00  0.88000000000E+00 0. -1.
        -11    1    4    4    0    0  0.39215899173E-01 -0.10404771310E+00  0.29182689155E-01  0.11495957470E+00  0.51100000000E-03 0. -1.
         11    1    4    4    0    0 -0.10066956037E-01 -0.21205108900E-01  0.10860629985E-01  0.25869183442E-01  0.51100000000E-03 0.  1.
</event>
<event>
 8    1  0.2959109E+004  0.1043930E+01  0.7957747E-01            NaN
         13   -1    0    0    0    0  0.00000000000E+00  0.00000000000E+00  0.74505805969E-08  0.10566000000E+00  0.10566000000E+00 0. -1.
     999900   -1    0    0    0    0 -0.00000000000E+00 -0.00000000000E+00 -0.74505805969E-08  0.93827000000E+00  0.93827000000E+00 0.  1.
     999902    2    1    2    0    0  0.13046591887E-01  0.11718488325E-02 -0.22579286219E-02  0.10306377078E+01  0.10305519879E+01 0.  0.
     999903    2    3    3    0    0  0.13067134138E+00  0.32610218883E-01 -0.14591800373E-01  0.14216931942E+00  0.43136630740E-01 0.  0.
         14    1    1    2    0    0 -0.13046591887E-01 -0.11718488325E-02  0.22579286219E-02  0.13292292173E-01  0.00000000000E+00 0. -1.
     999901    1    3    3    0    0 -0.11762474950E+00 -0.31438370050E-01  0.12333871751E-01  0.88846838841E+00  0.88000000000E+00 0. -1.
        -11    1    4    4    0    0  0.88513158902E-01  0.20816680661E-01  0.10784446987E-01  0.91566800263E-01  0.51100000000E-03 0. -1.
         11    1    4    4    0    0  0.42158182482E-01  0.11793538222E-01 -0.25376247360E-01  0.50602519157E-01  0.51100000000E-03 0.  1.
</event>
<event>
 8    1  0.2959109E+004  0.1043930E+01  0.7957747E-01            NaN
         13   -1    0    0    0    0  0.00000000000E+00  0.00000000000E+00  0.74505805969E-08  0.10566000000E+00  0.10566000000E+00 0. -1.
     999900   -1    0    0    0    0 -0.00000000000E+00 -0.00000000000E+00 -0.74505805969E-08  0.93827000000E+00  0.93827000000E+00 0. -1.
     999902    2    1    2    0    0 -0.58636319827E-02 -0.44771632626E-02  0.12787014103E-01  0.10291673816E+01  0.10290614970E+01 0.  0.
     999903    2    3    3    0    0  0.11352933245E+00  0.31855486720E-01  0.59172625417E-01  0.13915256922E+00  0.44253322586E-01 0.  0.
         14    1    1    2    0    0  0.58636319827E-02  0.44771632626E-02 -0.12787014103E-01  0.14762618351E-01  0.00000000000E+00 0.  1.
     999901    1    3    3    0    0 -0.11939296443E+00 -0.36332649982E-01 -0.46385611314E-01  0.89001481243E+00  0.88000000000E+00 0. -1.
        -11    1    4    4    0    0  0.47070427047E-01 -0.40639672196E-02  0.80369787625E-02  0.47926976544E-01  0.51100000000E-03 0. -1.
         11    1    4    4    0    0  0.66458905405E-01  0.35919453939E-01  0.51135646654E-01  0.91225592674E-01  0.51100000000E-03 0.  1.
</event>
<event>
 8    1  0.2959109E+004  0.1043930E+01  0.7957747E-01            NaN
         13   -1    0    0    0    0  0.00000000000E+00  0.00000000000E+00  0.74505805969E-08  0.10566000000E+00  0.10566000000E+00 0. -1.
     999900   -1    0    0    0    0 -0.00000000000E+00 -0.00000000000E+00 -0.74505805969E-08  0.93827000000E+00  0.93827000000E+00 0. -1.
     999902    2    1    2    0    0  0.45652737408E-02 -0.52731138954E-02  0.11842502135E-01  0.10301861901E+01  0.10300945073E+01 0.  0.
     999903    2    3    3    0    0  0.33762731650E-01 -0.39398732818E-01 -0.12110029367E+00  0.13906844456E+00  0.44526047984E-01 0.  0.
         14    1    1    2    0    0 -0.45652737408E-02  0.52731138954E-02 -0.11842502135E-01  0.13743809927E-01  0.00000000000E+00 0.  1.
     999901    1    3    3    0    0 -0.29197457910E-01  0.34125618923E-01  0.13294279580E+00  0.89111774551E+00  0.88000000000E+00 0.  1.
        -11    1    4    4    0    0  0.15308646841E-01 -0.19595938061E-01 -0.10425830191E+00  0.10718400111E+00  0.51100000000E-03 0.  1.
         11    1    4    4    0    0  0.18454084810E-01 -0.19802794757E-01 -0.16841991758E-01  0.31884443444E-01  0.51100000000E-03 0. -1.
</event>
<event>
 8    1  0.2959109E+004  0.1043930E+01  0.7957747E-01            NaN
         13   -1    0    0    0    0  0.00000000000E+00  0.00000000000E+00  0.74505805969E-08  0.10566000000E+00  0.10566000000E+00 0. -1.
     999900   -1    0    0    0    0 -0.00000000000E+00 -0.00000000000E+00 -0.74505805969E-08  0.93827000000E+00  0.93827000000E+00 0.  1.
     999902    2    1    2    0    0 -0.11140810100E-01  0.66122123170E-03  0.78557610862E-02  0.10302820021E+01  0.10301916016E+01 0.  0.
     999903    2    3    3    0    0  0.37593502693E-01  0.77091824440E-01 -0.10120585570E+00  0.13892847710E+00  0.41256219930E-01 0.  0.
         14    1    1    2    0    0  0.11140810100E-01 -0.66122123170E-03 -0.78557610862E-02  0.13647997854E-01  0.00000000000E+00 0.  1.
     999901    1    3    3    0    0 -0.48734312792E-01 -0.76430603208E-01  0.10906161678E+00  0.89135352504E+00  0.88000000000E+00 0. -1.
        -11    1    4    4    0    0  0.26436156210E-01  0.20579609822E-01 -0.18907888033E-01  0.38472848171E-01  0.51100000000E-03 0.  1.
         11    1    4    4    0    0  0.11157346483E-01  0.56512214617E-01 -0.82297967664E-01  0.10045562893E+00  0.51100000000E-03 0. -1.
</event>
<event>
 7    1  0.2959109E+004  0.1043930E+01  0.7957747E-01            NaN
         13   -1    0    0    0    0  0.00000000000E+00  0.00000000000E+00  0.74505805969E-08  0.10566000000E+00  0.10566000000E+00 0.  1.
     999900   -1    0    0    0    0 -0.00000000000E+00 -0.00000000000E+00 -0.74505805969E-08  0.93827000000E+00  0.93827000000E+00 0. -1.
     999903    2    1    2    0    0  0.15097619512E-01 -0.35397250470E-01 -0.11145452882E+00  0.12617939640E+00  0.44924654992E-01 0.  0.
         14    1    1    2    0    0 -0.26892751648E-01 -0.84178206750E-02 -0.59319820656E-02  0.28797017334E-01  0.00000000000E+00 0. -1.
     999901    1    1    2    0    0  0.11795132136E-01  0.43815071145E-01  0.11738651088E+00  0.88895358627E+00  0.88000000000E+00 0.  1.
        -11    1    3    3    0    0 -0.12883583030E-01 -0.20333565379E-01 -0.69454792412E-01  0.73509658567E-01  0.51100000000E-03 0.  1.
         11    1    3    3    0    0  0.27981202542E-01 -0.15063685091E-01 -0.41999736403E-01  0.52669737831E-01  0.51100000000E-03 0. -1.
</event>
<event>
 8    1  0.2959109E+004  0.1043930E+01  0.7957747E-01            NaN
         13   -1    0    0    0    0  0.00000000000E+00  0.00000000000E+00  0.74505805969E-08  0.10566000000E+00  0.10566000000E+00 0. -1.
     999900   -1    0    0    0    0 -0.00000000000E+00 -0.00000000000E+00 -0.74505805969E-08  0.93827000000E+00  0.93827000000E+00 0.  1.
     999902    2    1    2    0    0  0.16260988843E-02  0.38471285574E-02 -0.13174945719E-01  0.10301088644E+01  0.10300161400E+01 0.  0.
     999903    2    3    3    0    0  0.40481711577E-01 -0.23475797647E-02 -0.12827433736E+00  0.14174182141E+00  0.44633599526E-01 0.  0.
         14    1    1    2    0    0 -0.16260988843E-02 -0.38471285574E-02  0.13174945719E-01  0.13821135641E-01  0.00000000000E+00 0. -1.
     999901    1    3    3    0    0 -0.38855612693E-01  0.61947083221E-02  0.11509939164E+00  0.88836704295E+00  0.88000000000E+00 0. -1.
        -11    1    4    4    0    0  0.34486189273E-01  0.18104174352E-01 -0.85074053622E-01  0.93567697953E-01  0.51100000000E-03 0. -1.
         11    1    4    4    0    0  0.59955223034E-02 -0.20451754117E-01 -0.43200283740E-01  0.48174123452E-01  0.51100000000E-03 0.  1.
</event>
<event>
 8    1  0.2959109E+004  0.1043930E+01  0.7957747E-01            NaN
         13   -1    0    0    0    0  0.00000000000E+00  0.00000000000E+00  0.74505805969E-08  0.10566000000E+00  0.10566000000E+00 0.  1.
     999900   -1    0    0    0    0 -0.00000000000E+00 -0.00000000000E+00 -0.74505805969E-08  0.93827000000E+00  0.93827000000E+00 0.  1.
     999902    2    1    2    0    0 -0.10480079107E-02  0.44645141123E-02 -0.12966521047E-01  0.10301764232E+01  0.10300846092E+01 0.  0.
     999903    2    3    3    0    0  0.12852499891E+00  0.50977660002E-02 -0.33709379406E-01  0.14044622180E+00  0.45212347806E-01 0.  0.
         14    1    1    2    0    0  0.10480079107E-02 -0.44645141123E-02  0.12966521047E-01  0.13753576804E-01  0.00000000000E+00 0.  1.
     999901    1    3    3    0    0 -0.12957300682E+00 -0.63325188787E-03  0.20742858359E-01  0.88973020140E+00  0.88000000000E+00 0. -1.
        -11    1    4    4    0    0  0.82073699135E-01  0.23377522492E-01 -0.29716379842E-01  0.90365507798E-01  0.51100000000E-03 0.  1.
         11    1    4    4    0    0  0.46451299777E-01 -0.18279756492E-01 -0.39929995644E-02  0.50080714001E-01  0.51100000000E-03 0. -1.
</event>
<event>
 8    1  0.2959109E+004  0.1043930E+01  0.7957747E-01            NaN
         13   -1    0    0    0    0  0.00000000000E+00  0.00000000000E+00  0.74505805969E-08  0.10566000000E+00  0.10566000000E+00 0. -1.
     999900   -1    0    0    0    0 -0.00000000000E+00 -0.00000000000E+00 -0.74505805969E-08  0.93827000000E+00  0.93827000000E+00 0.  1.
     999902    2    1    2    0    0 -0.33416960869E-02 -0.48141040565E-02  0.12775495362E-01  0.10298745451E+01  0.10297786281E+01 0.  0.
     999903    2    3    3    0    0  0.10004063042E+00 -0.56286548270E-01  0.67732089174E-01  0.14062905304E+00  0.44861914855E-01 0.  0.
         14    1    1    2    0    0  0.33416960869E-02  0.48141040565E-02 -0.12775495362E-01  0.14055454897E-01  0.00000000000E+00 0.  1.
     999901    1    3    3    0    0 -0.10338232651E+00  0.51472444214E-01 -0.54956593811E-01  0.88924549206E+00  0.88000000000E+00 0.  1.
        -11    1    4    4    0    0  0.61114809647E-01 -0.57711908848E-01  0.42251729268E-01  0.94080572533E-01  0.51100000000E-03 0.  1.
         11    1    4    4    0    0  0.38925820775E-01  0.14253605784E-02  0.25480359906E-01  0.46548480509E-01  0.51100000000E-03 0. -1.
</event>
<event>
 8    1  0.2959109E+004  0.1043930E+01  0.7957747E-01            NaN
         13   -1    0    0    0    0  0.00000000000E+00  0.00000000000E+00  0.74505805969E-08  0.10566000000E+00  0.10566000000E+00 0.  1.
     999900   -1    0    0    0    0 -0.00000000000E+00 -0.00000000000E+00 -0.74505805969E-08  0.93827000000E+00  0.93827000000E+00 0.  1.
     999902    2    1    2    0    0 -0.11194744137E-01 -0.67707716298E-02 -0.44450026979E-02  0.10301124860E+01  0.10300198105E+01 0.  0.
     999903    2    3    3    0    0 -0.11137334960E+00  0.73193918435E-01  0.12365282311E-01  0.14066732728E+00  0.43278447983E-01 0.  0.
         14    1    1    2    0    0  0.11194744137E-01  0.67707716298E-02  0.44450026979E-02  0.13817514021E-01  0.00000000000E+00 0.  1.
     999901    1    3    3    0    0  0.10017860547E+00 -0.79964690065E-01 -0.16810285009E-01  0.88944515870E+00  0.88000000000E+00 0.  1.
        -11    1    4    4    0    0 -0.10794321836E+00  0.55284709904E-01  0.15125626734E-01  0.12221776975E+00  0.51100000000E-03 0. -1.
         11    1    4    4    0    0 -0.34301312452E-02  0.17909208531E-01 -0.27603444224E-02  0.18449557526E-01  0.51100000000E-03 0.  1.
</event>
<event>
 8    1  0.2959109E+004  0.1043930E+01  0.7957747E-01            NaN
         13   -1    0    0    0    0  0.00000000000E+00  0.00000000000E+00  0.74505805969E-08  0.10566000000E+00  0.10566000000E+00 0. -1.
     999900   -1    0    0    0    0 -0.00000000000E+00 -0.00000000000E+00 -0.74505805969E-08  0.93827000000E+00  0.93827000000E+00 0.  1.
     999902    2    1    2    0    0 -0.97036435352E-02  0.72481078360E-02  0.64668807052E-02  0.10301998758E+01  0.10301083767E+01 0.  0.
     999903    2    3    3    0    0 -0.72901289191E-01  0.99404921140E-01  0.53510818737E-01  0.14188689447E+00  0.45525232435E-01 0.  0.
         14    1    1    2    0    0  0.97036435352E-02 -0.72481078360E-02 -0.64668807052E-02  0.13730124221E-01  0.00000000000E+00 0. -1.
     999901    1    3    3    0    0  0.63197645656E-01 -0.92156813304E-01 -0.47043938032E-01  0.88831298131E+00  0.88000000000E+00 0.  1.
        -11    1    4    4    0    0 -0.76888309385E-01  0.78397490408E-01  0.41756226930E-01  0.11748115692E+00  0.51100000000E-03 0. -1.
         11    1    4    4    0    0  0.39870201936E-02  0.21007430732E-01  0.11754591807E-01  0.24405737554E-01  0.51100000000E-03 0.  1.
</event>
<event>
 8    1  0.2959109E+004  0.1043930E+01  0.7957747E-01            NaN
         13   -1    0    0    0    0  0.00000000000E+00  0.00000000000E+00  0.74505805969E-08  0.10566000000E+00  0.10566000000E+00 0. -1.
     999900   -1    0    0    0    0 -0.00000000000E+00 -0.00000000000E+00 -0.74505805969E-08  0.93827000000E+00  0.93827000000E+00 0. -1.
     999902    2    1    2    0    0 -0.61981557765E-02 -0.11660498898E-01  0.60755219899E-03  0.10307105640E+01  0.10306257872E+01 0.  0.
     999903    2    3    3    0    0  0.68819685829E-01  0.10115402325E+00  0.48449440706E-01  0.13905836761E+00  0.44962158745E-01 0.  0.
         14    1    1    2    0    0  0.61981557765E-02  0.11660498898E-01 -0.60755219899E-03  0.13219436041E-01  0.00000000000E+00 0. -1.
     999901    1    3    3    0    0 -0.75017841606E-01 -0.11281452215E+00 -0.47841888507E-01  0.89165219635E+00  0.88000000000E+00 0.  1.
        -11    1    4    4    0    0  0.22164519837E-01  0.54342357876E-01  0.42968008066E-01  0.72738357400E-01  0.51100000000E-03 0. -1.
         11    1    4    4    0    0  0.46655165992E-01  0.46811665375E-01  0.54814326402E-02  0.66320010205E-01  0.51100000000E-03 0.  1.
</event>
<event>
 8    1  0.2959109E+004  0.1043930E+01  0.7957747E-01            NaN
         13   -1    0    0    0    0  0.00000000000E+00  0.00000000000E+00  0.74505805969E-08  0.10566000000E+00  0.10566000000E+00 0.  1.
     999900   -1    0    0    0    0 -0.00000000000E+00 -0.00000000000E+00 -0.74505805969E-08  0.93827000000E+00  0.93827000000E+00 0.  1.
     999902    2    1    2    0    0  0.61816550978E-03 -0.11414172501E-01  0.52545360478E-02  0.10313492364E+01  0.10312725013E+01 0.  0.
     999903    2    3    3    0    0  0.36062318724E-01 -0.14562026231E-01  0.12873427656E+00  0.14201609117E+00  0.45645511801E-01 0.  0.
         14    1    1    2    0    0 -0.61816550978E-03  0.11414172501E-01 -0.52545360478E-02  0.12580763552E-01  0.00000000000E+00 0. -1.
     999901    1    3    3    0    0 -0.35444153214E-01  0.31478537307E-02 -0.12347974052E+00  0.88933314528E+00  0.88000000000E+00 0.  1.
        -11    1    4    4    0    0 -0.72849181557E-03 -0.14268083628E-01  0.78251994426E-01  0.79547122282E-01  0.51100000000E-03 0.  1.
         11    1    4    4    0    0  0.36790810540E-01 -0.29394260312E-03  0.50482282139E-01  0.62468968883E-01  0.51100000000E-03 0. -1.
</event>
<event>
 8    1  0.2959109E+004  0.1043930E+01  0.7957747E-01            NaN
         13   -1    0    0    0    0  0.00000000000E+00  0.00000000000E+00  0.74505805969E-08  0.10566000000E+00  0.10566000000E+00 0. -1.
     999900   -1    0    0    0    0 -0.00000000000E+00 -0.00000000000E+00 -0.74505805969E-08  0.93827000000E+00  0.93827000000E+00 0.  1.
     999902    2    1    2    0    0 -0.84319579289E-03  0.13077980848E-01 -0.50331459589E-02  0.10298915841E+01  0.10297959011E+01 0.  0.
     999903    2    3    3    0    0  0.10015548877E+00  0.88025700620E-01 -0.83910388406E-02  0.14094323330E+00  0.44888078370E-01 0.  0.
         14    1    1    2    0    0  0.84319579289E-03 -0.13077980848E-01  0.50331459589E-02  0.14038415881E-01  0.00000000000E+00 0. -1.
     999901    1    3    3    0    0 -0.10099868456E+00 -0.74947719771E-01  0.33578928818E-02  0.88894835082E+00  0.88000000000E+00 0.  1.
        -11    1    4    4    0    0  0.75237155753E-02  0.30646878651E-01  0.98340271637E-03  0.31576346669E-01  0.51100000000E-03 0. -1.
         11    1    4    4    0    0  0.92631773193E-01  0.57378821969E-01 -0.93744415570E-02  0.10936688663E+00  0.51100000000E-03 0.  1.
</event>
<event>
 8    1  0.2959109E+004  0.1043930E+01  0.7957747E-01            NaN
         13   -1    0    0    0    0  0.00000000000E+00  0.00000000000E+00  0.74505805969E-08  0.10566000000E+00  0.10566000000E+00 0.  1.
     999900   -1    0    0    0    0 -0.00000000000E+00 -0.00000000000E+00 -0.74505805969E-08  0.93827000000E+00  0.93827000000E+00 0.  1.
     999902    2    1    2    0    0 -0.12396099811E-01  0.59665178755E-02  0.97071669612E-03  0.10301385201E+01  0.10300461959E+01 0.  0.
     999903    2    3    3    0    0 -0.63000743750E-02  0.12516686555E+00  0.45993393765E-01  0.14094060860E+00  0.45193226420E-01 0.  0.
         14    1    1    2    0    0  0.12396099811E-01 -0.59665178755E-02 -0.97071669612E-03  0.13791479869E-01  0.00000000000E+00 0.  1.
     999901    1    3    3    0    0 -0.60960254357E-02 -0.11920034768E+00 -0.45022677069E-01  0.88919791153E+00  0.88000000000E+00 0. -1.
        -11    1    4    4    0    0 -0.79724322602E-02  0.76092822530E-01  0.44850466698E-02  0.76642377842E-01  0.51100000000E-03 0.  1.
         11    1    4    4    0    0  0.16723578852E-02  0.49074043023E-01  0.41508347096E-01  0.64298230762E-01  0.51100000000E-03 0. -1.
</event>
<event>
 8    1  0.2959109E+004  0.1043930E+01  0.7957747E-01            NaN
         13   -1    0    0    0    0  0.00000000000E+00  0.00000000000E+00  0.74505805969E-08  0.10566000000E+00  0.10566000000E+00 0.  1.
     999900   -1    0    0    0    0 -0.00000000000E+00 -0.00000000000E+00 -0.74505805969E-08  0.93827000000E+00  0.93827000000E+00 0.  1.
     999902    2    1    2    0    0  0.37627695058E-02 -0.12010467356E-01 -0.73761092918E-02  0.10293417599E+01  0.10292383796E+01 0.  0.
     999903    2    3    3    0    0  0.29249279808E-01 -0.12441180566E+00  0.37879430414E-01  0.14067326889E+00  0.44947742711E-01 0.  0.
         14    1    1    2    0    0 -0.37627695058E-02  0.12010467356E-01  0.73761092918E-02  0.14588240084E-01  0.00000000000E+00 0.  1.
     999901    1    3    3    0    0 -0.25486510302E-01  0.11240133831E+00 -0.45255539705E-01  0.88866849102E+00  0.88000000000E+00 0.  1.
        -11    1    4    4    0    0  0.37075542606E-02 -0.42635486737E-01 -0.79198777176E-02  0.43526041308E-01  0.51100000000E-03 0. -1.
         11    1    4    4    0    0  0.25541725547E-01 -0.81776318928E-01  0.45799308131E-01  0.97147227586E-01  0.51100000000E-03 0.  1.
</event>
<event>
 8    1  0.2959109E+004  0.1043930E+01  0.7957747E-01            NaN
         13   -1    0    0    0    0  0.00000000000E+00  0.00000000000E+00  0.74505805969E-08  0.10566000000E+00  0.10566000000E+00 0.  1.
     999900   -1    0    0    0    0 -0.00000000000E+00 -0.00000000000E+00 -0.74505805969E-08  0.93827000000E+00  0.93827000000E+00 0. -1.
     999902    2    1    2    0    0  0.34912720020E-04 -0.85321445822E-02 -0.85268125538E-02  0.10318674446E+01  0.10317969364E+01 0.  0.
     999903    2    3    3    0    0 -0.12586145302E+00 -0.37131813652E-01  0.27083880010E-01  0.14173489415E+00  0.46210028377E-01 0.  0.
         14    1    1    2    0    0 -0.34912720020E-04  0.85321445822E-02  0.85268125538E-02  0.12062555384E-01  0.00000000000E+00 0.  1.
     999901    1    3    3    0    0  0.12589636574E+00  0.28599669069E-01 -0.35610692564E-01  0.89013255047E+00  0.88000000000E+00 0. -1.
        -11    1    4    4    0    0 -0.23809516318E-01 -0.22946815167E-01  0.19568062866E-01  0.38426808337E-01  0.51100000000E-03 0. -1.
         11    1    4    4    0    0 -0.10205193670E+00 -0.14184998485E-01  0.75158171436E-02  0.10330808581E+00  0.51100000000E-03 0.  1.
</event>
<event>
 7    1  0.2959109E+004  0.1043930E+01  0.7957747E-01            NaN
         13   -1    0    0    0    0  0.00000000000E+00  0.00000000000E+00  0.74505805969E-08  0.10566000000E+00  0.10566000000E+00 0.  1.
     999900   -1    0    0    0    0 -0.00000000000E+00 -0.00000000000E+00 -0.74505805969E-08  0.93827000000E+00  0.93827000000E+00 0.  1.
     999903    2    1    2    0    0 -0.71616254652E-01  0.75441283286E-01  0.19186963102E-01  0.11507435172E+00  0.45317675548E-01 0.  0.
         14    1    1    2    0    0 -0.39992888278E-02 -0.26452597857E-01  0.33280938029E-01  0.42700762061E-01  0.00000000000E+00 0.  1.
     999901    1    1    2    0    0  0.75615543480E-01 -0.48988685430E-01 -0.52467901131E-01  0.88615488622E+00  0.88000000000E+00 0.  1.
        -11    1    3    3    0    0 -0.31227754373E-01  0.11825453464E-01  0.21439049402E-01  0.39685109967E-01  0.51100000000E-03 0. -1.
         11    1    3    3    0    0 -0.40388500279E-01  0.63615829823E-01 -0.22520863006E-02  0.75389241756E-01  0.51100000000E-03 0.  1.
</event>
<event>
 8    1  0.2959109E+004  0.1043930E+01  0.7957747E-01            NaN
         13   -1    0    0    0    0  0.00000000000E+00  0.00000000000E+00  0.74505805969E-08  0.10566000000E+00  0.10566000000E+00 0.  1.
     999900   -1    0    0    0    0 -0.00000000000E+00 -0.00000000000E+00 -0.74505805969E-08  0.93827000000E+00  0.93827000000E+00 0.  1.
     999902    2    1    2    0    0  0.77984157260E-02 -0.88297747785E-02 -0.58412575827E-02  0.10307808365E+01  0.10306969644E+01 0.  0.
     999903    2    3    3    0    0  0.37095271176E-01  0.65345579774E-01 -0.11478155047E+00  0.14048410149E+00  0.30246892465E-01 0.  0.
         14    1    1    2    0    0 -0.77984157260E-02  0.88297747785E-02  0.58412575827E-02  0.13149163495E-01  0.00000000000E+00 0.  1.
     999901    1    3    3    0    0 -0.29296855450E-01 -0.74175354552E-01  0.10894029289E+00  0.89029673501E+00  0.88000000000E+00 0. -1.
        -11    1    4    4    0    0  0.25945539970E-02  0.28446110664E-01 -0.56811751481E-01  0.63590480024E-01  0.51100000000E-03 0. -1.
         11    1    4    4    0    0  0.34500717179E-01  0.36899469110E-01 -0.57969798989E-01  0.76893621467E-01  0.51100000000E-03 0.  1.
</event>
<event>
 7    1  0.2959109E+004  0.1043930E+01  0.7957747E-01            NaN
         13   -1    0    0    0    0  0.00000000000E+00  0.00000000000E+00  0.74505805969E-08  0.10566000000E+00  0.10566000000E+00 0.  1.
     999900   -1    0    0    0    0 -0.00000000000E+00 -0.00000000000E+00 -0.74505805969E-08  0.93827000000E+00  0.93827000000E+00 0. -1.
     999903    2    1    2    0    0  0.93190017396E-01 -0.25067344668E-01  0.52198029617E-01  0.11854317233E+00  0.44889846292E-01 0.  0.
         14    1    1    2    0    0 -0.13126903045E-01  0.32785502105E-01  0.16643326286E-01  0.39041068655E-01  0.00000000000E+00 0.  1.
     999901    1    1    2    0    0 -0.80063114351E-01 -0.77181574375E-02 -0.68841355904E-01  0.88634575901E+00  0.88000000000E+00 0. -1.
        -11    1    3    3    0    0  0.32088893395E-01  0.12008128601E-01  0.23369950199E-01  0.41476594908E-01  0.51100000000E-03 0. -1.
         11    1    3    3    0    0  0.61101124001E-01 -0.37075473269E-01  0.28828079418E-01  0.77066577426E-01  0.51100000000E-03 0.  1.
</event>
<event>
 8    1  0.2959109E+004  0.1043930E+01  0.7957747E-01            NaN
         13   -1    0    0    0    0  0.00000000000E+00  0.00000000000E+00  0.74505805969E-08  0.10566000000E+00  0.10566000000E+00 0.  1.
     999900   -1    0    0    0    0 -0.00000000000E+00 -0.00000000000E+00 -0.74505805969E-08  0.93827000000E+00  0.93827000000E+00 0.  1.
     999902    2    1    2    0    0  0.10044745410E-01 -0.12784185930E-01  0.17466450287E-01  0.10200677033E+01  0.10197885614E+01 0.  0.
     999903    2    3    3    0    0  0.94760610964E-01 -0.45412637194E-01 -0.65169812005E-01  0.13154637793E+00  0.44893921006E-01 0.  0.
         14    1    1    2    0    0 -0.10044745410E-01  0.12784185930E-01 -0.17466450287E-01  0.23862296744E-01  0.00000000000E+00 0. -1.
     999901    1    3    3    0    0 -0.84715865554E-01  0.32628451264E-01  0.82636262293E-01  0.88852132532E+00  0.88000000000E+00 0. -1.
        -11    1    4    4    0    0 -0.11337243113E-03  0.32891151809E-02 -0.11860766473E-01  0.12319498136E-01  0.51100000000E-03 0. -1.
         11    1    4    4    0    0  0.94873983395E-01 -0.48701752375E-01 -0.53309045532E-01  0.11922687980E+00  0.51100000000E-03 0.  1.
</event>
<event>
 8    1  0.2959109E+004  0.1043930E+01  0.7957747E-01            NaN
         13   -1    0    0    0    0  0.00000000000E+00  0.00000000000E+00  0.74505805969E-08  0.10566000000E+00  0.10566000000E+00 0.  1.
     999900   -1    0    0    0    0 -0.00000000000E+00 -0.00000000000E+00 -0.74505805969E-08  0.93827000000E+00  0.93827000000E+00 0.  1.
     999902    2    1    2    0    0 -0.73154991066E-02 -0.31714413596E-02  0.76491250306E-02  0.10328808516E+01  0.10328217512E+01 0.  0.
     999903    2    3    3    0    0  0.33399413700E-02  0.74595233875E-01 -0.11216205206E+00  0.14130028182E+00  0.42542209573E-01 0.  0.
         14    1    1    2    0    0  0.73154991066E-02  0.31714413596E-02 -0.76491250306E-02  0.11049148438E-01  0.00000000000E+00 0. -1.
     999901    1    3    3    0    0 -0.10655440477E-01 -0.77766675235E-01  0.11981117709E+00  0.89158056974E+00  0.88000000000E+00 0. -1.
        -11    1    4    4    0    0  0.47154376358E-02  0.48373424991E-01 -0.35289401381E-01  0.60065185992E-01  0.51100000000E-03 0.  1.
         11    1    4    4    0    0 -0.13754962657E-02  0.26221808884E-01 -0.76872650675E-01  0.81235095826E-01  0.51100000000E-03 0. -1.
</event>
<event>
 8    1  0.2959109E+004  0.1043930E+01  0.7957747E-01            NaN
         13   -1    0    0    0    0  0.00000000000E+00  0.00000000000E+00  0.74505805969E-08  0.10566000000E+00  0.10566000000E+00 0. -1.
     999900   -1    0    0    0    0 -0.00000000000E+00 -0.00000000000E+00 -0.74505805969E-08  0.93827000000E+00  0.93827000000E+00 0.  1.
     999902    2    1    2    0    0  0.34883785117E-03 -0.13465402529E-01 -0.66884558524E-03  0.10304434842E+01  0.10303552242E+01 0.  0.
     999903    2    3    3    0    0 -0.87534329121E-02 -0.43237842025E-01 -0.12623243865E+00  0.14098552267E+00  0.44678355663E-01 0.  0.
         14    1    1    2    0    0 -0.34883785117E-03  0.13465402529E-01  0.66884558524E-03  0.13486515767E-01  0.00000000000E+00 0. -1.
     999901    1    3    3    0    0  0.91022707632E-02  0.29772439495E-01  0.12556359306E+00  0.88945796156E+00  0.88000000000E+00 0.  1.
        -11    1    4    4    0    0  0.12054839091E-01 -0.33713773539E-01 -0.50765518847E-01  0.62123559915E-01  0.51100000000E-03 0.  1.
         11    1    4    4    0    0 -0.20808272003E-01 -0.95240684859E-02 -0.75466919800E-01  0.78861962754E-01  0.51100000000E-03 0. -1.
</event>
<event>
 8    1  0.2959109E+004  0.1043930E+01  0.7957747E-01            NaN
         13   -1    0    0    0    0  0.00000000000E+00  0.00000000000E+00  0.74505805969E-08  0.10566000000E+00  0.10566000000E+00 0.  1.
     999900   -1    0    0    0    0 -0.00000000000E+00 -0.00000000000E+00 -0.74505805969E-08  0.93827000000E+00  0.93827000000E+00 0.  1.
     999902    2    1    2    0    0 -0.36795431336E-02 -0.13595895229E-01 -0.12034881008E-02  0.10297936713E+01  0.10296966397E+01 0.  0.
     999903    2    3    3    0    0 -0.12759283455E+00  0.17539920930E-01  0.31907390663E-01  0.13995083513E+00  0.44503645011E-01 0.  0.
         14    1    1    2    0    0  0.36795431336E-02  0.13595895229E-01  0.12034881008E-02  0.14136328673E-01  0.00000000000E+00 0.  1.
     999901    1    3    3    0    0  0.12391329142E+00 -0.31135816159E-01 -0.33110878764E-01  0.88984283620E+00  0.88000000000E+00 0. -1.
        -11    1    4    4    0    0 -0.62982035284E-01  0.20184280923E-01 -0.34872960365E-02  0.66231143124E-01  0.51100000000E-03 0. -1.
         11    1    4    4    0    0 -0.64610799269E-01 -0.26443599925E-02  0.35394686700E-01  0.73719692006E-01  0.51100000000E-03 0.  1.
</event>
<event>
 8    1  0.2959109E+004  0.1043930E+01  0.7957747E-01            NaN
         13   -1    0    0    0    0  0.00000000000E+00  0.00000000000E+00  0.74505805969E-08  0.10566000000E+00  0.10566000000E+00 0.  1.
     999900   -1    0    0    0    0 -0.00000000000E+00 -0.00000000000E+00 -0.74505805969E-08  0.93827000000E+00  0.93827000000E+00 0.  1.
     999902    2    1    2    0    0 -0.59050589416E-02  0.85566605621E-02  0.71782539342E-02  0.10312961767E+01  0.10312187889E+01 0.  0.
     999903    2    3    3    0    0  0.12838338478E+00  0.37529074687E-01  0.13750136455E-02  0.14061864557E+00  0.43370357225E-01 0.  0.
         14    1    1    2    0    0  0.59050589416E-02 -0.85566605621E-02 -0.71782539342E-02  0.12633823278E-01  0.00000000000E+00 0. -1.
     999901    1    3    3    0    0 -0.13428844372E+00 -0.28972414125E-01  0.58032402887E-02  0.89067753115E+00  0.88000000000E+00 0.  1.
        -11    1    4    4    0    0  0.22521337469E-01 -0.21216875701E-02 -0.13886033728E-01  0.26547980210E-01  0.51100000000E-03 0. -1.
         11    1    4    4    0    0  0.10586204731E+00  0.39650762257E-01  0.15261047373E-01  0.11407066536E+00  0.51100000000E-03 0.  1.
</event>
<event>
 8    1  0.2959109E+004  0.1043930E+01  0.7957747E-01            NaN
         13   -1    0    0    0    0  0.00000000000E+00  0.00000000000E+00  0.74505805969E-08  0.10566000000E+00  0.10566000000E+00 0.  1.
     999900   -1    0    0    0    0 -0.00000000000E+00 -0.00000000000E+00 -0.74505805969E-08  0.93827000000E+00  0.93827000000E+00 0.  1.
     999902    2    1    2    0    0 -0.96549386624E-02 -0.54677050535E-02 -0.92083946650E-02  0.10295109788E+01  0.10294099996E+01 0.  0.
     999903    2    3    3    0    0 -0.19568633847E-01 -0.89830035447E-01  0.94554537236E-01  0.13935254901E+00  0.45013394734E-01 0.  0.
         14    1    1    2    0    0  0.96549386624E-02  0.54677050535E-02  0.92083946650E-02  0.14419021168E-01  0.00000000000E+00 0. -1.
     999901    1    3    3    0    0  0.99136951848E-02  0.84362330394E-01 -0.10376293190E+00  0.89015842982E+00  0.88000000000E+00 0.  1.
        -11    1    4    4    0    0 -0.33419472538E-01 -0.71280238854E-01  0.67153199159E-01  0.10347727709E+00  0.51100000000E-03 0.  1.
         11    1    4    4    0    0  0.13850838691E-01 -0.18549796593E-01  0.27401338076E-01  0.35875271922E-01  0.51100000000E-03 0. -1.
</event>
<event>
 8    1  0.2959109E+004  0.1043930E+01  0.7957747E-01            NaN
         13   -1    0    0    0    0  0.00000000000E+00  0.00000000000E+00  0.74505805969E-08  0.10566000000E+00  0.10566000000E+00 0. -1.
     999900   -1    0    0    0    0 -0.00000000000E+00 -0.00000000000E+00 -0.74505805969E-08  0.93827000000E+00  0.93827000000E+00 0.  1.
     999902    2    1    2    0    0  0.26716440182E-03  0.10017868130E-01 -0.88170126402E-02  0.10305820125E+01  0.10304955680E+01 0.  0.
     999903    2    3    3    0    0  0.97276750876E-02 -0.11910843506E+00  0.54112530163E-01  0.13888518576E+00  0.45601337035E-01 0.  0.
         14    1    1    2    0    0 -0.26716440182E-03 -0.10017868130E-01  0.88170126402E-02  0.13347987511E-01  0.00000000000E+00 0. -1.
     999901    1    3    3    0    0 -0.94605106858E-02  0.12912630319E+00 -0.62929542803E-01  0.89169682673E+00  0.88000000000E+00 0.  1.
        -11    1    4    4    0    0 -0.65504817436E-02 -0.74398968698E-01  0.12610362863E-01  0.75745611932E-01  0.51100000000E-03 0. -1.
         11    1    4    4    0    0  0.16278156831E-01 -0.44709466358E-01  0.41502167300E-01  0.63139573831E-01  0.51100000000E-03 0.  1.
</event>
<event>
 8    1  0.2959109E+004  0.1043930E+01  0.7957747E-01            NaN
         13   -1    0    0    0    0  0.00000000000E+00  0.00000000000E+00  0.74505805969E-08  0.10566000000E+00  0.10566000000E+00 0.  1.
     999900   -1    0    0    0    0 -0.00000000000E+00 -0.00000000000E+00 -0.74505805969E-08  0.93827000000E+00  0.93827000000E+00 0.  1.
     999902    2    1    2    0    0  0.86678436348E-02 -0.20310139909E-01 -0.53440073986E-02  0.10212101472E+01  0.10209573806E+01 0.  0.
     999903    2    3    3    0    0 -0.99254807634E-01 -0.75982926865E-01  0.17183478987E-02  0.13284274869E+00  0.44936857327E-01 0.  0.
         14    1    1    2    0    0 -0.86678436348E-02  0.20310139909E-01  0.53440073986E-02  0.22719852805E-01  0.00000000000E+00 0.  1.
     999901    1    3    3    0    0  0.10792265127E+00  0.55672786956E-01 -0.70623552973E-02  0.88836739851E+00  0.88000000000E+00 0.  1.
        -11    1    4    4    0    0 -0.14091096294E-01 -0.21480206133E-01 -0.15886737356E-01  0.30209399118E-01  0.51100000000E-03 0.  1.
         11    1    4    4    0    0 -0.85163711340E-01 -0.54502720732E-01  0.17605085254E-01  0.10263334957E+00  0.51100000000E-03 0. -1.
</event>
<event>
 8    1  0.2959109E+004  0.1043930E+01  0.7957747E-01            NaN
         13   -1    0    0    0    0  0.00000000000E+00  0.00000000000E+00  0.74505805969E-08  0.10566000000E+00  0.10566000000E+00 0. -1.
     999900   -1    0    0    0    0 -0.00000000000E+00 -0.00000000000E+00 -0.74505805969E-08  0.93827000000E+00  0.93827000000E+00 0.  1.
     999902    2    1    2    0    0  0.63894106731E-03  0.13223071599E-01  0.77850483703E-02  0.10285721080E+01  0.10284574452E+01 0.  0.
     999903    2    3    3    0    0  0.94786009230E-01 -0.82313573967E-01  0.35538091954E-01  0.13797615444E+00  0.44883752177E-01 0.  0.
         14    1    1    2    0    0 -0.63894106731E-03 -0.13223071599E-01 -0.77850483703E-02  0.15357891988E-01  0.00000000000E+00 0.  1.
     999901    1    3    3    0    0 -0.94147068163E-01  0.95536645565E-01 -0.27753043583E-01  0.89059595357E+00  0.88000000000E+00 0. -1.
        -11    1    4    4    0    0  0.64344787053E-01 -0.29578608382E-01  0.84207835172E-02  0.71318415650E-01  0.51100000000E-03 0. -1.
         11    1    4    4    0    0  0.30441222177E-01 -0.52734965585E-01  0.27117308436E-01  0.66657738791E-01  0.51100000000E-03 0.  1.
</event>
<event>
 8    1  0.2959109E+004  0.1043930E+01  0.7957747E-01            NaN
         13   -1    0    0    0    0  0.00000000000E+00  0.00000000000E+00  0.74505805969E-08  0.10566000000E+00  0.10566000000E+00 0.  1.
     999900   -1    0    0    0    0 -0.00000000000E+00 -0.00000000000E+00 -0.74505805969E-08  0.93827000000E+00  0.93827000000E+00 0.  1.
     999902    2    1    2    0    0  0.20487029470E-03  0.11567003690E-01 -0.10662204422E-01  0.10281972269E+01  0.10280768538E+01 0.  0.
     999903    2    3    3    0    0 -0.10649410290E-02 -0.69023804219E-01 -0.11119925430E+00  0.13881306405E+00  0.46242544757E-01 0.  0.
         14    1    1    2    0    0 -0.20487029470E-03 -0.11567003690E-01  0.10662204422E-01  0.15732773098E-01  0.00000000000E+00 0.  1.
     999901    1    3    3    0    0  0.12698113237E-02  0.80590807909E-01  0.10053704987E+00  0.88938416286E+00  0.88000000000E+00 0. -1.
        -11    1    4    4    0    0  0.11082559352E-01 -0.45386648374E-01 -0.99193672614E-01  0.10964678190E+00  0.51100000000E-03 0. -1.
         11    1    4    4    0    0 -0.12147500382E-01 -0.23637155845E-01 -0.12005581683E-01  0.29166282151E-01  0.51100000000E-03 0.  1.
</event>
<event>
 8    1  0.2959109E+004  0.1043930E+01  0.7957747E-01            NaN
         13   -1    0    0    0    0  0.00000000000E+00  0.00000000000E+00  0.74505805969E-08  0.10566000000E+00  0.10566000000E+00 0.  1.
     999900   -1    0    0    0    0 -0.00000000000E+00 -0.00000000000E+00 -0.74505805969E-08  0.93827000000E+00  0.93827000000E+00 0. -1.
     999902    2    1    2    0    0  0.78364837438E-02 -0.13341271554E-01  0.88411960193E-02  0.10261095973E+01  0.10259548426E+01 0.  0.
     999903    2    3    3    0    0 -0.55596527750E-01 -0.34323808363E-01  0.11248799747E+00  0.13751144673E+00  0.44572981618E-01 0.  0.
         14    1    1    2    0    0 -0.78364837438E-02  0.13341271554E-01 -0.88411960193E-02  0.17820402666E-01  0.00000000000E+00 0. -1.
     999901    1    3    3    0    0  0.63433011494E-01  0.20982536809E-01 -0.10364680145E+00  0.88859815060E+00  0.88000000000E+00 0. -1.
        -11    1    4    4    0    0 -0.41214100441E-01 -0.31687581234E-01  0.45955743217E-01  0.69389454064E-01  0.51100000000E-03 0.  1.
         11    1    4    4    0    0 -0.14382427309E-01 -0.26362271291E-02  0.66532254250E-01  0.68121992670E-01  0.51100000000E-03 0. -1.
</event>
<event>
 8    1  0.2959109E+004  0.1043930E+01  0.7957747E-01            NaN
         13   -1    0    0    0    0  0.00000000000E+00  0.00000000000E+00  0.74505805969E-08  0.10566000000E+00  0.10566000000E+00 0. -1.
     999900   -1    0    0    0    0 -0.00000000000E+00 -0.00000000000E+00 -0.74505805969E-08  0.93827000000E+00  0.93827000000E+00 0.  1.
     999902    2    1    2    0    0  0.94004115090E-02 -0.42362301218E-02 -0.94338814688E-02  0.10299546109E+01  0.10298597909E+01 0.  0.
     999903    2    3    3    0    0  0.12687372124E+00  0.29976812578E-01  0.27161968685E-01  0.14073598361E+00  0.45533439446E-01 0.  0.
         14    1    1    2    0    0 -0.94004115090E-02  0.42362301218E-02  0.94338814688E-02  0.13975389145E-01  0.00000000000E+00 0. -1.
     999901    1    3    3    0    0 -0.11747330973E+00 -0.34213042700E-01 -0.36595850154E-01  0.88921862724E+00  0.88000000000E+00 0.  1.
        -11    1    4    4    0    0  0.44294308322E-01  0.27621145324E-02  0.30283021195E-01  0.53730229109E-01  0.51100000000E-03 0. -1.
         11    1    4    4    0    0  0.82579412913E-01  0.27214698046E-01 -0.31210525097E-02  0.87005754502E-01  0.51100000000E-03 0.  1.
</event>
<event>
 8    1  0.2959109E+004  0.1043930E+01  0.7957747E-01            NaN
         13   -1    0    0    0    0  0.00000000000E+00  0.00000000000E+00  0.74505805969E-08  0.10566000000E+00  0.10566000000E+00 0. -1.
     999900   -1    0    0    0    0 -0.00000000000E+00 -0.00000000000E+00 -0.74505805969E-08  0.93827000000E+00  0.93827000000E+00 0. -1.
     999902    2    1    2    0    0 -0.43186755631E-02 -0.19027078932E-02 -0.13299186695E-01  0.10298183161E+01  0.10297216248E+01 0.  0.
     999903    2    3    3    0    0  0.18069864111E-01 -0.12584829447E+00  0.33474937909E-01  0.13962082459E+00  0.47000957231E-01 0.  0.
         14    1    1    2    0    0  0.43186755631E-02  0.19027078932E-02  0.13299186695E-01  0.14111683907E-01  0.00000000000E+00 0. -1.
     999901    1    3    3    0    0 -0.22388539674E-01  0.12394558658E+00 -0.46774124603E-01  0.89019749150E+00  0.88000000000E+00 0. -1.
        -11    1    4    4    0    0  0.18930273224E-01 -0.62391287587E-01 -0.50181711618E-02  0.65394733534E-01  0.51100000000E-03 0.  1.
         11    1    4    4    0    0 -0.86040911237E-03 -0.63457006888E-01  0.38493109071E-01  0.74226091059E-01  0.51100000000E-03 0. -1.
</event>
<event>
 8    1  0.2959109E+004  0.1043930E+01  0.7957747E-01            NaN
         13   -1    0    0    0    0  0.00000000000E+00  0.00000000000E+00  0.74505805969E-08  0.10566000000E+00  0.10566000000E+00 0. -1.
     999900   -1    0    0    0    0 -0.00000000000E+00 -0.00000000000E+00 -0.74505805969E-08  0.93827000000E+00  0.93827000000E+00 0. -1.
     999902    2    1    2    0    0  0.11362018458E-01  0.68715783724E-02  0.46617320212E-02  0.10298571254E+01  0.10297609689E+01 0.  0.
     999903    2    3    3    0    0  0.81931285221E-01 -0.62137624615E-01  0.84439148940E-01  0.14075267278E+00  0.45907789415E-01 0.  0.
         14    1    1    2    0    0 -0.11362018458E-01 -0.68715783724E-02 -0.46617320212E-02  0.14072874554E-01  0.00000000000E+00 0.  1.
     999901    1    3    3    0    0 -0.70569266762E-01  0.69009202987E-01 -0.79777416919E-01  0.88910445267E+00  0.88000000000E+00 0. -1.
        -11    1    4    4    0    0  0.35528019506E-01 -0.38027616843E-02  0.14587958496E-01  0.38597549411E-01  0.51100000000E-03 0.  1.
         11    1    4    4    0    0  0.46403265715E-01 -0.58334862931E-01  0.69851190444E-01  0.10215512336E+00  0.51100000000E-03 0. -1.
</event>
<event>
 8    1  0.2959109E+004  0.1043930E+01  0.7957747E-01            NaN
         13   -1    0    0    0    0  0.00000000000E+00  0.00000000000E+00  0.74505805969E-08  0.10566000000E+00  0.10566000000E+00 0. -1.
     999900   -1    0    0    0    0 -0.00000000000E+00 -0.00000000000E+00 -0.74505805969E-08  0.93827000000E+00  0.93827000000E+00 0.  1.
     999902    2    1    2    0    0  0.75226909561E-02  0.80224099499E-02  0.72430634019E-02  0.10307614045E+01  0.10306772827E+01 0.  0.
     999903    2    3    3    0    0 -0.58800833134E-01 -0.10350710117E+00  0.58193006108E-01  0.13978803879E+00  0.44531021311E-01 0.  0.
         14    1    1    2    0    0 -0.75226909561E-02 -0.80224099499E-02 -0.72430634019E-02  0.13168595524E-01  0.00000000000E+00 0. -1.
     999901    1    3    3    0    0  0.66323524090E-01  0.11152951112E+00 -0.50949942706E-01  0.89097336569E+00  0.88000000000E+00 0.  1.
        -11    1    4    4    0    0 -0.62277590150E-01 -0.71645848657E-01  0.40905275680E-01  0.10336889554E+00  0.51100000000E-03 0.  1.
         11    1    4    4    0    0  0.34767570165E-02 -0.31861252514E-01  0.17287730428E-01  0.36419143256E-01  0.51100000000E-03 0. -1.
</event>
<event>
 8    1  0.2959109E+004  0.1043930E+01  0.7957747E-01            NaN
         13   -1    0    0    0    0  0.00000000000E+00  0.00000000000E+00  0.74505805969E-08  0.10566000000E+00  0.10566000000E+00 0.  1.
     999900   -1    0    0    0    0 -0.00000000000E+00 -0.00000000000E+00 -0.74505805969E-08  0.93827000000E+00  0.93827000000E+00 0.  1.
     999902    2    1    2    0    0  0.23541938863E-02 -0.12549961548E-01  0.85626978051E-02  0.10285558803E+01  0.10284409732E+01 0.  0.
     999903    2    3    3    0    0 -0.12141130953E-01 -0.13102625831E+00  0.19869811856E-01  0.14042604845E+00  0.44826088755E-01 0.  0.
         14    1    1    2    0    0 -0.23541938863E-02  0.12549961548E-01 -0.85626978051E-02  0.15374119728E-01  0.00000000000E+00 0. -1.
     999901    1    3    3    0    0  0.14495324839E-01  0.11847629677E+00 -0.11307114051E-01  0.88812983182E+00  0.88000000000E+00 0.  1.
        -11    1    4    4    0    0 -0.35813452924E-02 -0.79690300664E-01 -0.10032170832E-01  0.80400719068E-01  0.51100000000E-03 0.  1.
         11    1    4    4    0    0 -0.85597856603E-02 -0.51335957648E-01  0.29901982688E-01  0.60025329386E-01  0.51100000000E-03 0. -1.
</event>
<event>
 8    1  0.2959109E+004  0.1043930E+01  0.7957747E-01            NaN
         13   -1    0    0    0    0  0.00000000000E+00  0.00000000000E+00  0.74505805969E-08  0.10566000000E+00  0.10566000000E+00 0. -1.
     999900   -1    0    0    0    0 -0.00000000000E+00 -0.00000000000E+00 -0.74505805969E-08  0.93827000000E+00  0.93827000000E+00 0. -1.
     999902    2    1    2    0    0  0.14215098618E-01 -0.48051310236E-02  0.10614333190E-02  0.10288872292E+01  0.10287772574E+01 0.  0.
     999903    2    3    3    0    0  0.42322067658E-01 -0.71706414131E-01  0.10603149001E+00  0.13968281164E+00  0.36546460229E-01 0.  0.
         14    1    1    2    0    0 -0.14215098618E-01  0.48051310236E-02 -0.10614333190E-02  0.15042770808E-01  0.00000000000E+00 0. -1.
     999901    1    3    3    0    0 -0.28106969040E-01  0.66901283108E-01 -0.10497005669E+00  0.88920441755E+00  0.88000000000E+00 0. -1.
        -11    1    4    4    0    0  0.79577239329E-02 -0.49039782443E-01  0.60860811741E-01  0.78565419614E-01  0.51100000000E-03 0. -1.
         11    1    4    4    0    0  0.34364343725E-01 -0.22666631688E-01  0.45170678271E-01  0.61117392027E-01  0.51100000000E-03 0.  1.
</event>
<event>
 8    1  0.2959109E+004  0.1043930E+01  0.7957747E-01            NaN
         13   -1    0    0    0    0  0.00000000000E+00  0.00000000000E+00  0.74505805969E-08  0.10566000000E+00  0.10566000000E+00 0.  1.
     999900   -1    0    0    0    0 -0.00000000000E+00 -0.00000000000E+00 -0.74505805969E-08  0.93827000000E+00  0.93827000000E+00 0.  1.
     999902    2    1    2    0    0 -0.55502402114E-02 -0.15326669742E-02  0.12565814638E-01  0.10301077740E+01  0.10300150349E+01 0.  0.
     999903    2    3    3    0    0  0.68269350222E-03  0.80990992576E-01  0.10690465905E+00  0.14120461761E+00  0.44160287136E-01 0.  0.
         14    1    1    2    0    0  0.55502402114E-02  0.15326669742E-02 -0.12565814638E-01  0.13822226013E-01  0.00000000000E+00 0. -1.
     999901    1    3    3    0    0 -0.62329337136E-02 -0.82523659550E-01 -0.94338844410E-01  0.88890315637E+00  0.88000000000E+00 0.  1.
        -11    1    4    4    0    0 -0.11150907207E-01  0.51533889102E-01  0.92205594126E-01  0.10621778178E+00  0.51100000000E-03 0.  1.
         11    1    4    4    0    0  0.11833600709E-01  0.29457103473E-01  0.14699064922E-01  0.34986835830E-01  0.51100000000E-03 0. -1.
</event>
<event>
 8    1  0.2959109E+004  0.1043930E+01  0.7957747E-01            NaN
         13   -1    0    0    0    0  0.00000000000E+00  0.00000000000E+00  0.74505805969E-08  0.10566000000E+00  0.10566000000E+00 0. -1.
     999900   -1    0    0    0    0 -0.00000000000E+00 -0.00000000000E+00 -0.74505805969E-08  0.93827000000E+00  0.93827000000E+00 0. -1.
     999902    2    1    2    0    0 -0.14558547315E-02  0.48504463942E-02  0.12267223683E-01  0.10306585600E+01  0.10305731105E+01 0.  0.
     999903    2    3    3    0    0  0.84249331402E-01  0.10190777038E+00  0.11262536867E-01  0.14118314578E+00  0.48194319283E-01 0.  0.
         14    1    1    2    0    0  0.14558547315E-02 -0.48504463942E-02 -0.12267223683E-01  0.13271440016E-01  0.00000000000E+00 0.  1.
     999901    1    3    3    0    0 -0.85705186133E-01 -0.97057323987E-01  0.10046868154E-02  0.88947541420E+00  0.88000000000E+00 0.  1.
        -11    1    4    4    0    0  0.64431890511E-01  0.46708998266E-01 -0.66440097686E-02  0.79859896197E-01  0.51100000000E-03 0. -1.
         11    1    4    4    0    0  0.19817440891E-01  0.55198772116E-01  0.17906546636E-01  0.61323249587E-01  0.51100000000E-03 0.  1.
</event>
<event>
 8    1  0.2959109E+004  0.1043930E+01  0.7957747E-01            NaN
         13   -1    0    0    0    0  0.00000000000E+00  0.00000000000E+00  0.74505805969E-08  0.10566000000E+00  0.10566000000E+00 0. -1.
     999900   -1    0    0    0    0 -0.00000000000E+00 -0.00000000000E+00 -0.74505805969E-08  0.93827000000E+00  0.93827000000E+00 0. -1.
     999902    2    1    2    0    0  0.90621430671E-02  0.84702197118E-02  0.23499292689E-02  0.10313050554E+01  0.10312277770E+01 0.  0.
     999903    2    3    3    0    0 -0.19101870131E-01  0.83473565281E-01  0.10290676702E+00  0.14196238178E+00  0.47231320082E-01 0.  0.
         14    1    1    2    0    0 -0.90621430671E-02 -0.84702197118E-02 -0.23499292689E-02  0.12624944614E-01  0.00000000000E+00 0.  1.
     999901    1    3    3    0    0  0.28164013198E-01 -0.75003345569E-01 -0.10055683776E+00  0.88934267361E+00  0.88000000000E+00 0.  1.
        -11    1    4    4    0    0  0.13586819202E-01  0.38449587860E-01  0.32046992345E-01  0.51867555388E-01  0.51100000000E-03 0. -1.
         11    1    4    4    0    0 -0.32688689332E-01  0.45023977421E-01  0.70859774680E-01  0.90094826387E-01  0.51100000000E-03 0.  1.
</event>
<event>
 8    1  0.2959109E+004  0.1043930E+01  0.7957747E-01            NaN
         13   -1    0    0    0    0  0.00000000000E+00  0.00000000000E+00  0.74505805969E-08  0.10566000000E+00  0.10566000000E+00 0.  1.
     999900   -1    0    0    0    0 -0.00000000000E+00 -0.00000000000E+00 -0.74505805969E-08  0.93827000000E+00  0.93827000000E+00 0. -1.
     999902    2    1    2    0    0 -0.16152730648E-01 -0.11739048562E-01  0.36433286547E-02  0.10236324678E+01  0.10234312089E+01 0.  0.
     999903    2    3    3    0    0  0.61987404055E-01 -0.13656178009E-01  0.10900639565E+00  0.13390726760E+00  0.44942547382E-01 0.  0.
         14    1    1    2    0    0  0.16152730648E-01  0.11739048562E-01 -0.36433286547E-02  0.20297532170E-01  0.00000000000E+00 0. -1.
     999901    1    3    3    0    0 -0.78140134703E-01  0.19171294476E-02 -0.10536306699E+00  0.88972520023E+00  0.88000000000E+00 0. -1.
        -11    1    4    4    0    0  0.12581109788E-01 -0.23797136606E-01  0.31551445043E-01  0.41477015797E-01  0.51100000000E-03 0. -1.
         11    1    4    4    0    0  0.49406294266E-01  0.10140958597E-01  0.77454950604E-01  0.92430251803E-01  0.51100000000E-03 0.  1.
</event>
<event>
 8    1  0.2959109E+004  0.1043930E+01  0.7957747E-01            NaN
         13   -1    0    0    0    0  0.00000000000E+00  0.00000000000E+00  0.74505805969E-08  0.10566000000E+00  0.10566000000E+00 0. -1.
     999900   -1    0    0    0    0 -0.00000000000E+00 -0.00000000000E+00 -0.74505805969E-08  0.93827000000E+00  0.93827000000E+00 0.  1.
     999902    2    1    2    0    0 -0.22562324002E-03  0.82866706799E-02  0.88523173693E-02  0.10318022080E+01  0.10317309305E+01 0.  0.
     999903    2    3    3    0    0  0.12839503362E+00 -0.36559303913E-01  0.12780938657E-01  0.14131365168E+00  0.44545801109E-01 0.  0.
         14    1    1    2    0    0  0.22562324002E-03 -0.82866706799E-02 -0.88523173693E-02  0.12127792034E-01  0.00000000000E+00 0.  1.
     999901    1    3    3    0    0 -0.12862065686E+00  0.44845974593E-01 -0.39286212877E-02  0.89048855629E+00  0.88000000000E+00 0. -1.
        -11    1    4    4    0    0  0.45705242353E-01 -0.19629132634E-01 -0.15809159472E-01  0.52196385609E-01  0.51100000000E-03 0. -1.
         11    1    4    4    0    0  0.82689791272E-01 -0.16930171280E-01  0.28590098129E-01  0.89117266072E-01  0.51100000000E-03 0.  1.
</event>
<event>
 8    1  0.2959109E+004  0.1043930E+01  0.7957747E-01            NaN
         13   -1    0    0    0    0  0.00000000000E+00  0.00000000000E+00  0.74505805969E-08  0.10566000000E+00  0.10566000000E+00 0.  1.
     999900   -1    0    0    0    0 -0.00000000000E+00 -0.00000000000E+00 -0.74505805969E-08  0.93827000000E+00  0.93827000000E+00 0.  1.
     999902    2    1    2    0    0  0.73062505564E-02 -0.97341637017E-03  0.11688602550E-01  0.10301114521E+01  0.10300187627E+01 0.  0.
     999903    2    3    3    0    0 -0.10271093079E+00 -0.80344335084E-01  0.22942937012E-01  0.13964517931E+00  0.44380741999E-01 0.  0.
         14    1    1    2    0    0 -0.73062505564E-02  0.97341637017E-03 -0.11688602550E-01  0.13818547905E-01  0.00000000000E+00 0. -1.
     999901    1    3    3    0    0  0.11001718135E+00  0.79370918714E-01 -0.11254334462E-01  0.89046627279E+00  0.88000000000E+00 0.  1.
        -11    1    4    4    0    0 -0.41266957839E-01 -0.66765833220E-02  0.77727796781E-02  0.42523120759E-01  0.51100000000E-03 0.  1.
         11    1    4    4    0    0 -0.61443972954E-01 -0.73667751762E-01  0.15170157334E-01  0.97122058548E-01  0.51100000000E-03 0. -1.
</event>
<event>
 8    1  0.2959109E+004  0.1043930E+01  0.7957747E-01            NaN
         13   -1    0    0    0    0  0.00000000000E+00  0.00000000000E+00  0.74505805969E-08  0.10566000000E+00  0.10566000000E+00 0. -1.
     999900   -1    0    0    0    0 -0.00000000000E+00 -0.00000000000E+00 -0.74505805969E-08  0.93827000000E+00  0.93827000000E+00 0. -1.
     999902    2    1    2    0    0  0.11940543074E-01  0.49291809030E-02 -0.50768608838E-02  0.10300502338E+01  0.10299567157E+01 0.  0.
     999903    2    3    3    0    0 -0.10329120422E+00  0.70578678170E-01 -0.40273960821E-01  0.13941728588E+00  0.46527035166E-01 0.  0.
         14    1    1    2    0    0 -0.11940543074E-01 -0.49291809030E-02  0.50768608838E-02  0.13879766198E-01  0.00000000000E+00 0.  1.
     999901    1    3    3    0    0  0.11523174729E+00 -0.65649497267E-01  0.35197099937E-01  0.89063294792E+00  0.88000000000E+00 0.  1.
        -11    1    4    4    0    0 -0.43739138073E-01  0.46853855370E-02 -0.68704126595E-02  0.44525596325E-01  0.51100000000E-03 0. -1.
         11    1    4    4    0    0 -0.59552066147E-01  0.65893292633E-01 -0.33403548161E-01  0.94891689558E-01  0.51100000000E-03 0.  1.
</event>
<event>
 8    1  0.2959109E+004  0.1043930E+01  0.7957747E-01            NaN
         13   -1    0    0    0    0  0.00000000000E+00  0.00000000000E+00  0.74505805969E-08  0.10566000000E+00  0.10566000000E+00 0. -1.
     999900   -1    0    0    0    0 -0.00000000000E+00 -0.00000000000E+00 -0.74505805969E-08  0.93827000000E+00  0.93827000000E+00 0.  1.
     999902    2    1    2    0    0 -0.12744897288E-01  0.36542977480E-02  0.51588292667E-03  0.10306615248E+01  0.10305761138E+01 0.  0.
     999903    2    3    3    0    0  0.38127252574E-01  0.52162136225E-01  0.11592901338E+00  0.14034631281E+00  0.45639626760E-01 0.  0.
         14    1    1    2    0    0  0.12744897288E-01 -0.36542977480E-02 -0.51588292667E-03  0.13268475199E-01  0.00000000000E+00 0. -1.
     999901    1    3    3    0    0 -0.50872149862E-01 -0.48507838477E-01 -0.11541313045E+00  0.89031521199E+00  0.88000000000E+00 0.  1.
        -11    1    4    4    0    0 -0.98933259179E-02  0.99116368666E-02  0.31039503162E-01  0.34056281662E-01  0.51100000000E-03 0.  1.
         11    1    4    4    0    0  0.48020578492E-01  0.42250499358E-01  0.84889510219E-01  0.10629003115E+00  0.51100000000E-03 0. -1.
</event>
<event>
 8    1  0.2959109E+004  0.1043930E+01  0.7957747E-01            NaN
         13   -1    0    0    0    0  0.00000000000E+00  0.00000000000E+00  0.74505805969E-08  0.10566000000E+00  0.10566000000E+00 0.  1.
     999900   -1    0    0    0    0 -0.00000000000E+00 -0.00000000000E+00 -0.74505805969E-08  0.93827000000E+00  0.93827000000E+00 0. -1.
     999902    2    1    2    0    0  0.53266964869E-02  0.12878840086E-01  0.23072705638E-02  0.10298033686E+01  0.10297064709E+01 0.  0.
     999903    2    3    3    0    0 -0.30333628906E-01 -0.10804552377E+00 -0.66776286082E-01  0.13813812963E+00  0.45045601623E-01 0.  0.
         14    1    1    2    0    0 -0.53266964869E-02 -0.12878840086E-01 -0.23072705638E-02  0.14126631406E-01  0.00000000000E+00 0.  1.
     999901    1    3    3    0    0  0.35660325393E-01  0.12092436385E+00  0.69083556646E-01  0.89166523897E+00  0.88000000000E+00 0.  1.
        -11    1    4    4    0    0 -0.24811614715E-01 -0.17977842055E-01 -0.15333097648E-01  0.34266368850E-01  0.51100000000E-03 0.  1.
         11    1    4    4    0    0 -0.55220141909E-02 -0.90067681713E-01 -0.51443188434E-01  0.10387176078E+00  0.51100000000E-03 0. -1.
</event>
<event>
 8    1  0.2959109E+004  0.1043930E+01  0.7957747E-01            NaN
         13   -1    0    0    0    0  0.00000000000E+00  0.00000000000E+00  0.74505805969E-08  0.10566000000E+00  0.10566000000E+00 0. -1.
     999900   -1    0    0    0    0 -0.00000000000E+00 -0.00000000000E+00 -0.74505805969E-08  0.93827000000E+00  0.93827000000E+00 0. -1.
     999902    2    1    2    0    0  0.97284712262E-02 -0.54349415844E-02 -0.78935179520E-02  0.10302738890E+01  0.10301833803E+01 0.  0.
     999903    2    3    3    0    0  0.52602295372E-01 -0.11476648522E+00  0.43524670223E-01  0.14098463272E+00  0.45209757088E-01 0.  0.
         14    1    1    2    0    0 -0.97284712262E-02  0.54349415844E-02  0.78935179520E-02  0.13656111016E-01  0.00000000000E+00 0. -1.
     999901    1    3    3    0    0 -0.42873824146E-01  0.10933154364E+00 -0.51418188175E-01  0.88928925626E+00  0.88000000000E+00 0. -1.
        -11    1    4    4    0    0  0.34077290194E-01 -0.32468627064E-01  0.29270841775E-01  0.55430287295E-01  0.51100000000E-03 0.  1.
         11    1    4    4    0    0  0.18525005178E-01 -0.82297858160E-01  0.14253828448E-01  0.85554345425E-01  0.51100000000E-03 0. -1.
</event>
<event>
 8    1  0.2959109E+004  0.1043930E+01  0.7957747E-01            NaN
         13   -1    0    0    0    0  0.00000000000E+00  0.00000000000E+00  0.74505805969E-08  0.10566000000E+00  0.10566000000E+00 0. -1.
     999900   -1    0    0    0    0 -0.00000000000E+00 -0.00000000000E+00 -0.74505805969E-08  0.93827000000E+00  0.93827000000E+00 0. -1.
     999902    2    1    2    0    0  0.98368030063E-02 -0.41958349707E-02 -0.94447832048E-02  0.10296621461E+01  0.10295632878E+01 0.  0.
     999903    2    3    3    0    0  0.12874705172E+00  0.64487681350E-02  0.33236475007E-01  0.14057573602E+00  0.45160650468E-01 0.  0.
         14    1    1    2    0    0 -0.98368030063E-02  0.41958349707E-02  0.94447832048E-02  0.14267853878E-01  0.00000000000E+00 0. -1.
     999901    1    3    3    0    0 -0.11891024871E+00 -0.10644603106E-01 -0.42681258212E-01  0.88908641010E+00  0.88000000000E+00 0. -1.
        -11    1    4    4    0    0  0.84194014381E-01 -0.59184977724E-02  0.13629791355E-02  0.84414332353E-01  0.51100000000E-03 0.  1.
         11    1    4    4    0    0  0.44553037336E-01  0.12367265907E-01  0.31873495872E-01  0.56161403668E-01  0.51100000000E-03 0. -1.
</event>
<event>
 8    1  0.2959109E+004  0.1043930E+01  0.7957747E-01            NaN
         13   -1    0    0    0    0  0.00000000000E+00  0.00000000000E+00  0.74505805969E-08  0.10566000000E+00  0.10566000000E+00 0. -1.
     999900   -1    0    0    0    0 -0.00000000000E+00 -0.00000000000E+00 -0.74505805969E-08  0.93827000000E+00  0.93827000000E+00 0. -1.
     999902    2    1    2    0    0 -0.66421059513E-02  0.32007574164E-02 -0.11717277249E-01  0.10300859758E+01  0.10299929420E+01 0.  0.
     999903    2    3    3    0    0  0.30892439560E-01 -0.63341769095E-01  0.11039751965E+00  0.13837482664E+00  0.44648155278E-01 0.  0.
         14    1    1    2    0    0  0.66421059513E-02 -0.32007574164E-02  0.11717277249E-01  0.13844024185E-01  0.00000000000E+00 0. -1.
     999901    1    3    3    0    0 -0.37534545511E-01  0.66542526511E-01 -0.12211479690E+00  0.89171114917E+00  0.88000000000E+00 0. -1.
        -11    1    4    4    0    0  0.37337925974E-01 -0.51343186621E-01  0.64526407665E-01  0.90521610324E-01  0.51100000000E-03 0. -1.
         11    1    4    4    0    0 -0.64454864135E-02 -0.11998582474E-01  0.45871111981E-01  0.47853216316E-01  0.51100000000E-03 0.  1.
</event>
<event>
 8    1  0.2959109E+004  0.1043930E+01  0.7957747E-01            NaN
         13   -1    0    0    0    0  0.00000000000E+00  0.00000000000E+00  0.74505805969E-08  0.10566000000E+00  0.10566000000E+00 0.  1.
     999900   -1    0    0    0    0 -0.00000000000E+00 -0.00000000000E+00 -0.74505805969E-08  0.93827000000E+00  0.93827000000E+00 0. -1.
     999902    2    1    2    0    0 -0.11308105043E-01  0.89656013244E-02  0.10384044080E-02  0.10294616369E+01  0.10293599605E+01 0.  0.
     999903    2    3    3    0    0 -0.66474186226E-02 -0.91699268348E-01 -0.93596317335E-01  0.13866936677E+00  0.44899651131E-01 0.  0.
         14    1    1    2    0    0  0.11308105043E-01 -0.89656013244E-02 -0.10384044080E-02  0.14468363089E-01  0.00000000000E+00 0.  1.
     999901    1    3    3    0    0 -0.46606864204E-02  0.10066486967E+00  0.94634721743E-01  0.89079227014E+00  0.88000000000E+00 0. -1.
        -11    1    4    4    0    0  0.86258626973E-02 -0.75469135304E-02 -0.29907538041E-01  0.32032536019E-01  0.51100000000E-03 0.  1.
         11    1    4    4    0    0 -0.15273281320E-01 -0.84152354818E-01 -0.63688779293E-01  0.10663683075E+00  0.51100000000E-03 0. -1.
</event>
<event>
 8    1  0.2959109E+004  0.1043930E+01  0.7957747E-01            NaN
         13   -1    0    0    0    0  0.00000000000E+00  0.00000000000E+00  0.74505805969E-08  0.10566000000E+00  0.10566000000E+00 0. -1.
     999900   -1    0    0    0    0 -0.00000000000E+00 -0.00000000000E+00 -0.74505805969E-08  0.93827000000E+00  0.93827000000E+00 0.  1.
     999902    2    1    2    0    0 -0.62233049500E-02  0.10066802837E-03 -0.11931743448E-01  0.10304724311E+01  0.10303845521E+01 0.  0.
     999903    2    3    3    0    0  0.33108307156E-01 -0.92137833248E-01 -0.91154939895E-01  0.14124173457E+00  0.45326197702E-01 0.  0.
         14    1    1    2    0    0  0.62233049500E-02 -0.10066802837E-03  0.11931743448E-01  0.13457568884E-01  0.00000000000E+00 0. -1.
     999901    1    3    3    0    0 -0.39331612106E-01  0.92238501276E-01  0.79223196447E-01  0.88923069655E+00  0.88000000000E+00 0. -1.
        -11    1    4    4    0    0  0.41163743550E-01 -0.63716872962E-01 -0.51080936919E-01  0.91453905989E-01  0.51100000000E-03 0.  1.
         11    1    4    4    0    0 -0.80554363944E-02 -0.28420960286E-01 -0.40074002976E-01  0.49787828579E-01  0.51100000000E-03 0. -1.
</event>
<event>
 8    1  0.2959109E+004  0.1043930E+01  0.7957747E-01            NaN
         13   -1    0    0    0    0  0.00000000000E+00  0.00000000000E+00  0.74505805969E-08  0.10566000000E+00  0.10566000000E+00 0.  1.
     999900   -1    0    0    0    0 -0.00000000000E+00 -0.00000000000E+00 -0.74505805969E-08  0.93827000000E+00  0.93827000000E+00 0. -1.
     999902    2    1    2    0    0 -0.79187805347E-03  0.14608694638E-01 -0.34565668999E-02  0.10288970733E+01  0.10287872465E+01 0.  0.
     999903    2    3    3    0    0 -0.10445790221E+00 -0.31398957847E-02  0.79515954905E-01  0.13875882765E+00  0.44832052010E-01 0.  0.
         14    1    1    2    0    0  0.79187805347E-03 -0.14608694638E-01  0.34565668999E-02  0.15032926681E-01  0.00000000000E+00 0. -1.
     999901    1    3    3    0    0  0.10366602415E+00  0.17748590422E-01 -0.82972521805E-01  0.89013824567E+00  0.88000000000E+00 0. -1.
        -11    1    4    4    0    0 -0.51507123837E-01  0.16582438979E-01  0.22869118702E-01  0.58747074818E-01  0.51100000000E-03 0.  1.
         11    1    4    4    0    0 -0.52950778371E-01 -0.19722334764E-01  0.56646836203E-01  0.80011752833E-01  0.51100000000E-03 0. -1.
</event>
<event>
 8    1  0.2959109E+004  0.1043930E+01  0.7957747E-01            NaN
         13   -1    0    0    0    0  0.00000000000E+00  0.00000000000E+00  0.74505805969E-08  0.10566000000E+00  0.10566000000E+00 0. -1.
     999900   -1    0    0    0    0 -0.00000000000E+00 -0.00000000000E+00 -0.74505805969E-08  0.93827000000E+00  0.93827000000E+00 0.  1.
     999902    2    1    2    0    0 -0.10622311702E-01 -0.33666308620E-02 -0.74046282471E-02  0.10305510528E+01  0.10304642042E+01 0.  0.
     999903    2    3    3    0    0 -0.38891966097E-01 -0.10759761010E+00 -0.73884677402E-01  0.14146001845E+00  0.38238207834E-01 0.  0.
         14    1    1    2    0    0  0.10622311702E-01  0.33666308620E-02  0.74046282471E-02  0.13378947220E-01  0.00000000000E+00 0. -1.
     999901    1    3    3    0    0  0.28269654396E-01  0.10423097924E+00  0.66480049155E-01  0.88909103433E+00  0.88000000000E+00 0. -1.
        -11    1    4    4    0    0 -0.25600671573E-01 -0.46028420306E-01 -0.53933550305E-01  0.75386330527E-01  0.51100000000E-03 0.  1.
         11    1    4    4    0    0 -0.13291294525E-01 -0.61569189795E-01 -0.19951127098E-01  0.66073687922E-01  0.51100000000E-03 0. -1.
</event>
<event>
 8    1  0.2959109E+004  0.1043930E+01  0.7957747E-01            NaN
         13   -1    0    0    0    0  0.00000000000E+00  0.00000000000E+00  0.74505805969E-08  0.10566000000E+00  0.10566000000E+00 0.  1.
     999900   -1    0    0    0    0 -0.00000000000E+00 -0.00000000000E+00 -0.74505805969E-08  0.93827000000E+00  0.93827000000E+00 0.  1.
     999902    2    1    2    0    0  0.74394844146E-02  0.20077874598E-02  0.11730583293E-01  0.10298949110E+01  0.10297992736E+01 0.  0.
     999903    2    3    3    0    0 -0.39508699858E-01  0.93264528111E-01 -0.83632658080E-01  0.13881350477E+00  0.44894966772E-01 0.  0.
         14    1    1    2    0    0 -0.74394844146E-02 -0.20077874598E-02 -0.11730583293E-01  0.14035088999E-01  0.00000000000E+00 0. -1.
     999901    1    3    3    0    0  0.46948184273E-01 -0.91256740651E-01  0.95363241372E-01  0.89108140623E+00  0.88000000000E+00 0. -1.
        -11    1    4    4    0    0 -0.96069080903E-03  0.40290910930E-01 -0.52742261432E-01  0.66379874151E-01  0.51100000000E-03 0. -1.
         11    1    4    4    0    0 -0.38548009049E-01  0.52973617181E-01 -0.30890396648E-01  0.72433630621E-01  0.51100000000E-03 0.  1.
</event>
<event>
 8    1  0.2959109E+004  0.1043930E+01  0.7957747E-01            NaN
         13   -1    0    0    0    0  0.00000000000E+00  0.00000000000E+00  0.74505805969E-08  0.10566000000E+00  0.10566000000E+00 0. -1.
     999900   -1    0    0    0    0 -0.00000000000E+00 -0.00000000000E+00 -0.74505805969E-08  0.93827000000E+00  0.93827000000E+00 0. -1.
     999902    2    1    2    0    0  0.10348167213E-01 -0.90934298163E-02  0.23334710394E-02  0.10299578807E+01  0.10298631054E+01 0.  0.
     999903    2    3    3    0    0  0.67329581362E-01 -0.77021131655E-01  0.86667052557E-01  0.14149110743E+00  0.45199869867E-01 0.  0.
         14    1    1    2    0    0 -0.10348167213E-01  0.90934298163E-02 -0.23334710394E-02  0.13972119295E-01  0.00000000000E+00 0. -1.
     999901    1    3    3    0    0 -0.56981414149E-01  0.67927701839E-01 -0.84333581518E-01  0.88846677327E+00  0.88000000000E+00 0. -1.
        -11    1    4    4    0    0  0.51878467497E-01 -0.26429143169E-01  0.37402606092E-01  0.69203259042E-01  0.51100000000E-03 0.  1.
         11    1    4    4    0    0  0.15451113865E-01 -0.50591988486E-01  0.49264446465E-01  0.72287848392E-01  0.51100000000E-03 0. -1.
</event>
<event>
 8    1  0.2959109E+004  0.1043930E+01  0.7957747E-01            NaN
         13   -1    0    0    0    0  0.00000000000E+00  0.00000000000E+00  0.74505805969E-08  0.10566000000E+00  0.10566000000E+00 0. -1.
     999900   -1    0    0    0    0 -0.00000000000E+00 -0.00000000000E+00 -0.74505805969E-08  0.93827000000E+00  0.93827000000E+00 0. -1.
     999902    2    1    2    0    0  0.13088424509E-01 -0.30875692660E-02  0.10352238331E-02  0.10304425381E+01  0.10303542656E+01 0.  0.
     999903    2    3    3    0    0  0.43056827328E-01 -0.87184155575E-01 -0.90446751382E-01  0.14120730894E+00  0.47999186440E-01 0.  0.
         14    1    1    2    0    0 -0.13088424509E-01  0.30875692660E-02 -0.10352238331E-02  0.13487461899E-01  0.00000000000E+00 0.  1.
     999901    1    3    3    0    0 -0.29968402819E-01  0.84096586309E-01  0.91481975215E-01  0.88923522916E+00  0.88000000000E+00 0.  1.
        -11    1    4    4    0    0  0.46907874691E-01 -0.87093552859E-01 -0.71989266504E-01  0.12234521352E+00  0.51100000000E-03 0.  1.
         11    1    4    4    0    0 -0.38510473629E-02 -0.90602715720E-04 -0.18457484878E-01  0.18862095421E-01  0.51100000000E-03 0. -1.
</event>
<event>
 8    1  0.2959109E+004  0.1043930E+01  0.7957747E-01            NaN
         13   -1    0    0    0    0  0.00000000000E+00  0.00000000000E+00  0.74505805969E-08  0.10566000000E+00  0.10566000000E+00 0.  1.
     999900   -1    0    0    0    0 -0.00000000000E+00 -0.00000000000E+00 -0.74505805969E-08  0.93827000000E+00  0.93827000000E+00 0.  1.
     999902    2    1    2    0    0  0.59974466315E-02  0.12261588186E-02 -0.12212063825E-01  0.10302695705E+01  0.10301790041E+01 0.  0.
     999903    2    3    3    0    0  0.56952543141E-01 -0.12657964151E-01  0.11795930298E+00  0.13912773247E+00  0.45147674973E-01 0.  0.
         14    1    1    2    0    0 -0.59974466315E-02 -0.12261588186E-02  0.12212063825E-01  0.13660429511E-01  0.00000000000E+00 0.  1.
     999901    1    3    3    0    0 -0.50955096509E-01  0.13884122969E-01 -0.13017136681E+00  0.89114183802E+00  0.88000000000E+00 0.  1.
        -11    1    4    4    0    0  0.19316111050E-01 -0.13374953063E-01  0.87798795401E-01  0.90889444439E-01  0.51100000000E-03 0. -1.
         11    1    4    4    0    0  0.37636432090E-01  0.71698891269E-03  0.30160507582E-01  0.48238288032E-01  0.51100000000E-03 0.  1.
</event>
<event>
 8    1  0.2959109E+004  0.1043930E+01  0.7957747E-01            NaN
         13   -1    0    0    0    0  0.00000000000E+00  0.00000000000E+00  0.74505805969E-08  0.10566000000E+00  0.10566000000E+00 0.  1.
     999900   -1    0    0    0    0 -0.00000000000E+00 -0.00000000000E+00 -0.74505805969E-08  0.93827000000E+00  0.93827000000E+00 0.  1.
     999902    2    1    2    0    0 -0.40690100981E-02 -0.92450203196E-02 -0.10146900878E-01  0.10296126385E+01  0.10295130880E+01 0.  0.
     999903    2    3    3    0    0  0.12160190287E+00 -0.22876829757E-01  0.42627220497E-01  0.13901502311E+00  0.46879895489E-01 0.  0.
         14    1    1    2    0    0  0.40690100981E-02  0.92450203196E-02  0.10146900878E-01  0.14317361535E-01  0.00000000000E+00 0.  1.
     999901    1    3    3    0    0 -0.12567091297E+00  0.13631809437E-01 -0.52774121375E-01  0.89059761536E+00  0.88000000000E+00 0.  1.
        -11    1    4    4    0    0  0.12212892927E-01  0.89356239370E-02  0.15987609894E-01  0.22019648496E-01  0.51100000000E-03 0.  1.
         11    1    4    4    0    0  0.10938900994E+00 -0.31812453694E-01  0.26639610603E-01  0.11699537461E+00  0.51100000000E-03 0. -1.
</event>
<event>
 8    1  0.2959109E+004  0.1043930E+01  0.7957747E-01            NaN
         13   -1    0    0    0    0  0.00000000000E+00  0.00000000000E+00  0.74505805969E-08  0.10566000000E+00  0.10566000000E+00 0.  1.
     999900   -1    0    0    0    0 -0.00000000000E+00 -0.00000000000E+00 -0.74505805969E-08  0.93827000000E+00  0.93827000000E+00 0.  1.
     999902    2    1    2    0    0  0.42172736074E-02  0.85921824587E-02  0.97561725490E-02  0.10302627435E+01  0.10301720860E+01 0.  0.
     999903    2    3    3    0    0  0.78585455048E-04  0.49679805606E-01 -0.12229204869E+00  0.13945296910E+00  0.44985510551E-01 0.  0.
         14    1    1    2    0    0 -0.42172736074E-02 -0.85921824587E-02 -0.97561725490E-02  0.13667256451E-01  0.00000000000E+00 0. -1.
     999901    1    3    3    0    0  0.41386881523E-02 -0.41087623147E-01  0.13204822123E+00  0.89080977444E+00  0.88000000000E+00 0. -1.
        -11    1    4    4    0    0 -0.18760456278E-01  0.25459230408E-01 -0.87599953902E-01  0.93135064167E-01  0.51100000000E-03 0. -1.
         11    1    4    4    0    0  0.18839041733E-01  0.24220575198E-01 -0.34692094784E-01  0.46317904938E-01  0.51100000000E-03 0.  1.
</event>
<event>
 8    1  0.2959109E+004  0.1043930E+01  0.7957747E-01            NaN
         13   -1    0    0    0    0  0.00000000000E+00  0.00000000000E+00  0.74505805969E-08  0.10566000000E+00  0.10566000000E+00 0.  1.
     999900   -1    0    0    0    0 -0.00000000000E+00 -0.00000000000E+00 -0.74505805969E-08  0.93827000000E+00  0.93827000000E+00 0.  1.
     999902    2    1    2    0    0  0.21712627487E-03 -0.13479475751E-01  0.81184900473E-02  0.10281929961E+01  0.10280725577E+01 0.  0.
     999903    2    3    3    0    0 -0.10292735627E+00 -0.81317186142E-01 -0.20923968268E-01  0.13910121030E+00  0.41289330682E-01 0.  0.
         14    1    1    2    0    0 -0.21712627487E-03  0.13479475751E-01 -0.81184900473E-02  0.15737003876E-01  0.00000000000E+00 0. -1.
     999901    1    3    3    0    0  0.10314448255E+00  0.67837710390E-01  0.29042458316E-01  0.88909178582E+00  0.88000000000E+00 0.  1.
        -11    1    4    4    0    0 -0.60761718707E-01 -0.32572379168E-01  0.60974514891E-02  0.69212617206E-01  0.51100000000E-03 0. -1.
         11    1    4    4    0    0 -0.42165637566E-01 -0.48744806974E-01 -0.27021419757E-01  0.69888593096E-01  0.51100000000E-03 0.  1.
</event>
<event>
 8    1  0.2959109E+004  0.1043930E+01  0.7957747E-01            NaN
         13   -1    0    0    0    0  0.00000000000E+00  0.00000000000E+00  0.74505805969E-08  0.10566000000E+00  0.10566000000E+00 0.  1.
     999900   -1    0    0    0    0 -0.00000000000E+00 -0.00000000000E+00 -0.74505805969E-08  0.93827000000E+00  0.93827000000E+00 0. -1.
     999902    2    1    2    0    0  0.77421344358E-02  0.73307037253E-02  0.90354572799E-02  0.10299543300E+01  0.10298595062E+01 0.  0.
     999903    2    3    3    0    0 -0.69496776842E-01  0.61117337008E-01  0.96134704092E-01  0.14065959254E+00  0.44475934718E-01 0.  0.
         14    1    1    2    0    0 -0.77421344358E-02 -0.73307037253E-02 -0.90354572799E-02  0.13975669966E-01  0.00000000000E+00 0. -1.
     999901    1    3    3    0    0  0.77238911278E-01 -0.53786633282E-01 -0.87099246812E-01  0.88929473749E+00  0.88000000000E+00 0. -1.
        -11    1    4    4    0    0 -0.73135813995E-01  0.64611817336E-01  0.90777751674E-01  0.13328314052E+00  0.51100000000E-03 0.  1.
         11    1    4    4    0    0  0.36390371531E-02 -0.34944803280E-02  0.53569524183E-02  0.73764520182E-02  0.51100000000E-03 0. -1.
</event>
<event>
 8    1  0.2959109E+004  0.1043930E+01  0.7957747E-01            NaN
         13   -1    0    0    0    0  0.00000000000E+00  0.00000000000E+00  0.74505805969E-08  0.10566000000E+00  0.10566000000E+00 0. -1.
     999900   -1    0    0    0    0 -0.00000000000E+00 -0.00000000000E+00 -0.74505805969E-08  0.93827000000E+00  0.93827000000E+00 0.  1.
     999902    2    1    2    0    0 -0.31370814755E-02  0.38870614398E-03 -0.12766731377E-01  0.10307777453E+01  0.10306938335E+01 0.  0.
     999903    2    3    3    0    0  0.79481615276E-01  0.83566971789E-01 -0.67284258235E-01  0.14133036991E+00  0.46328566895E-01 0.  0.
         14    1    1    2    0    0  0.31370814755E-02 -0.38870614398E-03  0.12766731377E-01  0.13152254663E-01  0.00000000000E+00 0. -1.
     999901    1    3    3    0    0 -0.82618696751E-01 -0.83178265645E-01  0.54517526857E-01  0.88944737543E+00  0.88000000000E+00 0.  1.
        -11    1    4    4    0    0  0.19591523260E-01  0.36366890806E-01 -0.46690227327E-01  0.62342737984E-01  0.51100000000E-03 0. -1.
         11    1    4    4    0    0  0.59890092016E-01  0.47200080983E-01 -0.20594030908E-01  0.78987631921E-01  0.51100000000E-03 0.  1.
</event>
<event>
 8    1  0.2959109E+004  0.1043930E+01  0.7957747E-01            NaN
         13   -1    0    0    0    0  0.00000000000E+00  0.00000000000E+00  0.74505805969E-08  0.10566000000E+00  0.10566000000E+00 0. -1.
     999900   -1    0    0    0    0 -0.00000000000E+00 -0.00000000000E+00 -0.74505805969E-08  0.93827000000E+00  0.93827000000E+00 0. -1.
     999902    2    1    2    0    0  0.66511442857E-02  0.10700253006E-01 -0.25198522617E-02  0.10310815452E+01  0.10310014889E+01 0.  0.
     999903    2    3    3    0    0 -0.68480566729E-01 -0.23136640147E-01 -0.11186299992E+00  0.14049430454E+00  0.44726130173E-01 0.  0.
         14    1    1    2    0    0 -0.66511442857E-02 -0.10700253006E-01  0.25198522617E-02  0.12848454776E-01  0.00000000000E+00 0.  1.
     999901    1    3    3    0    0  0.75131711014E-01  0.33836893153E-01  0.10934314765E+00  0.89058724069E+00  0.88000000000E+00 0.  1.
        -11    1    4    4    0    0 -0.38836461835E-02 -0.19760739157E-01 -0.30458279422E-01  0.36517631715E-01  0.51100000000E-03 0.  1.
         11    1    4    4    0    0 -0.64596920545E-01 -0.33759009907E-02 -0.81404720493E-01  0.10397667282E+00  0.51100000000E-03 0. -1.
</event>
<event>
 8    1  0.2959109E+004  0.1043930E+01  0.7957747E-01            NaN
         13   -1    0    0    0    0  0.00000000000E+00  0.00000000000E+00  0.74505805969E-08  0.10566000000E+00  0.10566000000E+00 0. -1.
     999900   -1    0    0    0    0 -0.00000000000E+00 -0.00000000000E+00 -0.74505805969E-08  0.93827000000E+00  0.93827000000E+00 0. -1.
     999902    2    1    2    0    0 -0.18358267734E-02  0.40927707056E-02 -0.12539019970E-01  0.10306127911E+01  0.10305267474E+01 0.  0.
     999903    2    3    3    0    0  0.44005192026E-02 -0.12857998888E+00 -0.33527765181E-01  0.14039850193E+00  0.45115963877E-01 0.  0.
         14    1    1    2    0    0  0.18358267734E-02 -0.40927707056E-02  0.12539019970E-01  0.13317208935E-01  0.00000000000E+00 0. -1.
     999901    1    3    3    0    0 -0.62363459760E-02  0.13267275959E+00  0.20988745211E-01  0.89021428913E+00  0.88000000000E+00 0.  1.
        -11    1    4    4    0    0 -0.11666363767E-01 -0.11322403710E+00 -0.24666537864E-01  0.11646667263E+00  0.51100000000E-03 0.  1.
         11    1    4    4    0    0  0.16066882970E-01 -0.15355951782E-01 -0.88612273172E-02  0.23931829309E-01  0.51100000000E-03 0. -1.
</event>
<event>
 8    1  0.2959109E+004  0.1043930E+01  0.7957747E-01            NaN
         13   -1    0    0    0    0  0.00000000000E+00  0.00000000000E+00  0.74505805969E-08  0.10566000000E+00  0.10566000000E+00 0.  1.
     999900   -1    0    0    0    0 -0.00000000000E+00 -0.00000000000E+00 -0.74505805969E-08  0.93827000000E+00  0.93827000000E+00 0. -1.
     999902    2    1    2    0    0  0.13594815410E-01  0.34428365786E-02  0.22876144611E-02  0.10297206612E+01  0.10296226176E+01 0.  0.
     999903    2    3    3    0    0  0.62018947433E-01  0.25753024401E-01 -0.11478087781E+00  0.14036827156E+00  0.44933658254E-01 0.  0.
         14    1    1    2    0    0 -0.13594815410E-01 -0.34428365786E-02 -0.22876144611E-02  0.14209338819E-01  0.00000000000E+00 0. -1.
     999901    1    3    3    0    0 -0.48424132023E-01 -0.22310187822E-01  0.11706849227E+00  0.88935238962E+00  0.88000000000E+00 0.  1.
        -11    1    4    4    0    0  0.54793851743E-02  0.23398294414E-01 -0.30126379291E-01  0.38540416364E-01  0.51100000000E-03 0. -1.
         11    1    4    4    0    0  0.56539562259E-01  0.23547299870E-02 -0.84654498516E-01  0.10182785520E+00  0.51100000000E-03 0.  1.
</event>
<event>
 8    1  0.2959109E+004  0.1043930E+01  0.7957747E-01            NaN
         13   -1    0    0    0    0  0.00000000000E+00  0.00000000000E+00  0.74505805969E-08  0.10566000000E+00  0.10566000000E+00 0.  1.
     999900   -1    0    0    0    0 -0.00000000000E+00 -0.00000000000E+00 -0.74505805969E-08  0.93827000000E+00  0.93827000000E+00 0.  1.
     999902    2    1    2    0    0  0.71923917567E-04  0.13413257588E-01  0.19970632769E-02  0.10303686979E+01  0.10302794498E+01 0.  0.
     999903    2    3    3    0    0  0.65596175000E-01  0.36369675196E-01 -0.11002472061E+00  0.14055450122E+00  0.44994635474E-01 0.  0.
         14    1    1    2    0    0 -0.71923917567E-04 -0.13413257588E-01 -0.19970632769E-02  0.13561302072E-01  0.00000000000E+00 0. -1.
     999901    1    3    3    0    0 -0.65524251082E-01 -0.22956417608E-01  0.11202178388E+00  0.88981419670E+00  0.88000000000E+00 0. -1.
        -11    1    4    4    0    0  0.32875316590E-01 -0.47572818048E-02 -0.56474682778E-01  0.65521516214E-01  0.51100000000E-03 0. -1.
         11    1    4    4    0    0  0.32720858409E-01  0.41126957001E-01 -0.53550037829E-01  0.75032985011E-01  0.51100000000E-03 0.  1.
</event>
<event>
 8    1  0.2959109E+004  0.1043930E+01  0.7957747E-01            NaN
         13   -1    0    0    0    0  0.00000000000E+00  0.00000000000E+00  0.74505805969E-08  0.10566000000E+00  0.10566000000E+00 0.  1.
     999900   -1    0    0    0    0 -0.00000000000E+00 -0.00000000000E+00 -0.74505805969E-08  0.93827000000E+00  0.93827000000E+00 0.  1.
     999902    2    1    2    0    0 -0.78585430927E-02  0.35572464001E-02 -0.10599398369E-01  0.10302640589E+01  0.10301734189E+01 0.  0.
     999903    2    3    3    0    0 -0.12453609312E+00  0.40761409312E-01 -0.29102385847E-01  0.14159080003E+00  0.45058570901E-01 0.  0.
         14    1    1    2    0    0  0.78585430927E-02 -0.35572464001E-02  0.10599398369E-01  0.13665941141E-01  0.00000000000E+00 0. -1.
     999901    1    3    3    0    0  0.11667755003E+00 -0.37204162912E-01  0.18502987478E-01  0.88867325883E+00  0.88000000000E+00 0.  1.
        -11    1    4    4    0    0 -0.84360422100E-01  0.35994994013E-01  0.52686282905E-04  0.91720141233E-01  0.51100000000E-03 0.  1.
         11    1    4    4    0    0 -0.40175671019E-01  0.47664152999E-02 -0.29155072130E-01  0.49870658794E-01  0.51100000000E-03 0. -1.
</event>
<event>
 8    1  0.2959109E+004  0.1043930E+01  0.7957747E-01            NaN
         13   -1    0    0    0    0  0.00000000000E+00  0.00000000000E+00  0.74505805969E-08  0.10566000000E+00  0.10566000000E+00 0. -1.
     999900   -1    0    0    0    0 -0.00000000000E+00 -0.00000000000E+00 -0.74505805969E-08  0.93827000000E+00  0.93827000000E+00 0. -1.
     999902    2    1    2    0    0  0.76226139492E-03 -0.10017937328E-01  0.92739792271E-02  0.10302571509E+01  0.10301664187E+01 0.  0.
     999903    2    3    3    0    0 -0.21120077751E-01  0.12521688337E+00  0.35303007500E-01  0.13927746329E+00  0.45017595168E-01 0.  0.
         14    1    1    2    0    0 -0.76226139492E-03  0.10017937328E-01 -0.92739792271E-02  0.13672849061E-01  0.00000000000E+00 0.  1.
     999901    1    3    3    0    0  0.21882339145E-01 -0.13523482070E+00 -0.26029028273E-01  0.89097968765E+00  0.88000000000E+00 0.  1.
        -11    1    4    4    0    0 -0.88173384788E-02  0.10868171356E+00  0.14518249662E-01  0.11000227731E+00  0.51100000000E-03 0.  1.
         11    1    4    4    0    0 -0.12302739272E-01  0.16535169818E-01  0.20784757838E-01  0.29275185975E-01  0.51100000000E-03 0. -1.
</event>
<event>
 8    1  0.2959109E+004  0.1043930E+01  0.7957747E-01            NaN
         13   -1    0    0    0    0  0.00000000000E+00  0.00000000000E+00  0.74505805969E-08  0.10566000000E+00  0.10566000000E+00 0. -1.
     999900   -1    0    0    0    0 -0.00000000000E+00 -0.00000000000E+00 -0.74505805969E-08  0.93827000000E+00  0.93827000000E+00 0. -1.
     999902    2    1    2    0    0  0.55597332967E-02 -0.48220516914E-02 -0.12251598693E-01  0.10296378872E+01  0.10295386901E+01 0.  0.
     999903    2    3    3    0    0 -0.28692133293E-01 -0.59666214751E-01 -0.11668054893E+00  0.14110737102E+00  0.43745216443E-01 0.  0.
         14    1    1    2    0    0 -0.55597332967E-02  0.48220516914E-02  0.12251598693E-01  0.14292112768E-01  0.00000000000E+00 0. -1.
     999901    1    3    3    0    0  0.34251866589E-01  0.54844163060E-01  0.10442895024E+00  0.88853051621E+00  0.88000000000E+00 0.  1.
        -11    1    4    4    0    0 -0.37955745926E-01 -0.30902850600E-01 -0.76726912991E-01  0.91010467102E-01  0.51100000000E-03 0. -1.
         11    1    4    4    0    0  0.92636126333E-02 -0.28763364152E-01 -0.39953635944E-01  0.50096903921E-01  0.51100000000E-03 0.  1.
</event>
<event>
 8    1  0.2959109E+004  0.1043930E+01  0.7957747E-01            NaN
         13   -1    0    0    0    0  0.00000000000E+00  0.00000000000E+00  0.74505805969E-08  0.10566000000E+00  0.10566000000E+00 0.  1.
     999900   -1    0    0    0    0 -0.00000000000E+00 -0.00000000000E+00 -0.74505805969E-08  0.93827000000E+00  0.93827000000E+00 0.  1.
     999902    2    1    2    0    0 -0.70932414434E-02  0.11401741769E-02  0.87578010325E-02  0.10326024605E+01  0.10325403277E+01 0.  0.
     999903    2    3    3    0    0 -0.31667778230E-01 -0.39488795767E-01  0.12649627237E+00  0.14349224876E+00  0.45016723126E-01 0.  0.
         14    1    1    2    0    0  0.70932414434E-02 -0.11401741769E-02 -0.87578010325E-02  0.11327539462E-01  0.00000000000E+00 0. -1.
     999901    1    3    3    0    0  0.24574536787E-01  0.40628969944E-01 -0.11773847134E+00  0.88911021178E+00  0.88000000000E+00 0.  1.
        -11    1    4    4    0    0 -0.11374581287E-01 -0.21011189174E-01  0.10746554356E+00  0.11009066874E+00  0.51100000000E-03 0. -1.
         11    1    4    4    0    0 -0.20293196943E-01 -0.18477606593E-01  0.19030728806E-01  0.33401580015E-01  0.51100000000E-03 0.  1.
</event>
<event>
 8    1  0.2959109E+004  0.1043930E+01  0.7957747E-01            NaN
         13   -1    0    0    0    0  0.00000000000E+00  0.00000000000E+00  0.74505805969E-08  0.10566000000E+00  0.10566000000E+00 0.  1.
     999900   -1    0    0    0    0 -0.00000000000E+00 -0.00000000000E+00 -0.74505805969E-08  0.93827000000E+00  0.93827000000E+00 0. -1.
     999902    2    1    2    0    0 -0.88355052340E-03  0.89521101809E-02  0.89235739427E-02  0.10312591235E+01  0.10311812783E+01 0.  0.
     999903    2    3    3    0    0  0.81343957659E-02 -0.12512117976E+00  0.45419547505E-01  0.14031079366E+00  0.43620012644E-01 0.  0.
         14    1    1    2    0    0  0.88355052340E-03 -0.89521101809E-02 -0.89235739427E-02  0.12670876455E-01  0.00000000000E+00 0. -1.
     999901    1    3    3    0    0 -0.90179462893E-02  0.13407328994E+00 -0.36495973562E-01  0.89094832988E+00  0.88000000000E+00 0.  1.
        -11    1    4    4    0    0 -0.82913734811E-03 -0.12042690910E+00  0.34197585208E-01  0.12519210782E+00  0.51100000000E-03 0. -1.
         11    1    4    4    0    0  0.89635331140E-02 -0.46942706613E-02  0.11221962297E-01  0.15118685846E-01  0.51100000000E-03 0.  1.
</event>
<event>
 8    1  0.2959109E+004  0.1043930E+01  0.7957747E-01            NaN
         13   -1    0    0    0    0  0.00000000000E+00  0.00000000000E+00  0.74505805969E-08  0.10566000000E+00  0.10566000000E+00 0. -1.
     999900   -1    0    0    0    0 -0.00000000000E+00 -0.00000000000E+00 -0.74505805969E-08  0.93827000000E+00  0.93827000000E+00 0.  1.
     999902    2    1    2    0    0  0.11852013246E-01  0.59675960462E-03  0.66137575594E-02  0.10303444147E+01  0.10302548445E+01 0.  0.
     999903    2    3    3    0    0  0.64255032127E-01 -0.19188072248E-01 -0.11483444239E+00  0.14023926288E+00  0.44533250762E-01 0.  0.
         14    1    1    2    0    0 -0.11852013246E-01 -0.59675960462E-03 -0.66137575594E-02  0.13585585341E-01  0.00000000000E+00 0.  1.
     999901    1    3    3    0    0 -0.52403018881E-01  0.19784831853E-01  0.12144819995E+00  0.89010515178E+00  0.88000000000E+00 0. -1.
        -11    1    4    4    0    0  0.14508138628E-01 -0.26485283396E-01 -0.41818442934E-01  0.51584877760E-01  0.51100000000E-03 0. -1.
         11    1    4    4    0    0  0.49746893499E-01  0.72972111478E-02 -0.73015999453E-01  0.88654385117E-01  0.51100000000E-03 0.  1.
</event>
<event>
 8    1  0.2959109E+004  0.1043930E+01  0.7957747E-01            NaN
         13   -1    0    0    0    0  0.00000000000E+00  0.00000000000E+00  0.74505805969E-08  0.10566000000E+00  0.10566000000E+00 0.  1.
     999900   -1    0    0    0    0 -0.00000000000E+00 -0.00000000000E+00 -0.74505805969E-08  0.93827000000E+00  0.93827000000E+00 0. -1.
     999902    2    1    2    0    0 -0.10427108328E-01  0.13995282944E-01 -0.21807527051E-01  0.10159986418E+01  0.10156146314E+01 0.  0.
     999903    2    3    3    0    0 -0.84326595113E-01 -0.79640145974E-01 -0.29143925552E-01  0.12792063263E+00  0.45395950937E-01 0.  0.
         14    1    1    2    0    0  0.10427108328E-01 -0.13995282944E-01  0.21807527051E-01  0.27931358163E-01  0.00000000000E+00 0.  1.
     999901    1    3    3    0    0  0.73899486786E-01  0.93635428918E-01  0.73363985007E-02  0.88807800921E+00  0.88000000000E+00 0.  1.
        -11    1    4    4    0    0 -0.55540610671E-01 -0.27851523240E-01 -0.56976938821E-03  0.62137368295E-01  0.51100000000E-03 0.  1.
         11    1    4    4    0    0 -0.28785984443E-01 -0.51788622734E-01 -0.28574156163E-01  0.65783264334E-01  0.51100000000E-03 0. -1.
</event>
<event>
 8    1  0.2959109E+004  0.1043930E+01  0.7957747E-01            NaN
         13   -1    0    0    0    0  0.00000000000E+00  0.00000000000E+00  0.74505805969E-08  0.10566000000E+00  0.10566000000E+00 0.  1.
     999900   -1    0    0    0    0 -0.00000000000E+00 -0.00000000000E+00 -0.74505805969E-08  0.93827000000E+00  0.93827000000E+00 0. -1.
     999902    2    1    2    0    0 -0.51564023319E-02 -0.12472774579E-01 -0.10890494815E-02  0.10303895192E+01  0.10303005468E+01 0.  0.
     999903    2    3    3    0    0  0.58384154406E-01 -0.11272222829E+00  0.42536818963E-01  0.14135039089E+00  0.45338083348E-01 0.  0.
         14    1    1    2    0    0  0.51564023319E-02  0.12472774579E-01  0.10890494815E-02  0.13540480770E-01  0.00000000000E+00 0. -1.
     999901    1    3    3    0    0 -0.63540556738E-01  0.10024945371E+00 -0.43625868444E-01  0.88903912834E+00  0.88000000000E+00 0. -1.
        -11    1    4    4    0    0  0.19835416386E-01 -0.18528063127E-01  0.27188387189E-01  0.38421379275E-01  0.51100000000E-03 0.  1.
         11    1    4    4    0    0  0.38548738020E-01 -0.94194165161E-01  0.15348431773E-01  0.10292901162E+00  0.51100000000E-03 0. -1.
</event>
<event>
 8    1  0.2959109E+004  0.1043930E+01  0.7957747E-01            NaN
         13   -1    0    0    0    0  0.00000000000E+00  0.00000000000E+00  0.74505805969E-08  0.10566000000E+00  0.10566000000E+00 0. -1.
     999900   -1    0    0    0    0 -0.00000000000E+00 -0.00000000000E+00 -0.74505805969E-08  0.93827000000E+00  0.93827000000E+00 0.  1.
     999902    2    1    2    0    0  0.10807289073E-01 -0.27324355404E-02 -0.70735954171E-02  0.10307277482E+01  0.10306431931E+01 0.  0.
     999903    2    3    3    0    0 -0.82158220490E-01 -0.84537648992E-01  0.60940907865E-01  0.13945862408E+00  0.42875707422E-01 0.  0.
         14    1    1    2    0    0 -0.10807289073E-01  0.27324355404E-02  0.70735954171E-02  0.13202251824E-01  0.00000000000E+00 0.  1.
     999901    1    3    3    0    0  0.92965509563E-01  0.81805213452E-01 -0.68014503282E-01  0.89126912410E+00  0.88000000000E+00 0.  1.
        -11    1    4    4    0    0 -0.64012192588E-02 -0.31057536667E-01  0.23407869555E-01  0.39417453874E-01  0.51100000000E-03 0.  1.
         11    1    4    4    0    0 -0.75757001231E-01 -0.53480112325E-01  0.37533038310E-01  0.10004117020E+00  0.51100000000E-03 0. -1.
</event>
<event>
 8    1  0.2959109E+004  0.1043930E+01  0.7957747E-01            NaN
         13   -1    0    0    0    0  0.00000000000E+00  0.00000000000E+00  0.74505805969E-08  0.10566000000E+00  0.10566000000E+00 0. -1.
     999900   -1    0    0    0    0 -0.00000000000E+00 -0.00000000000E+00 -0.74505805969E-08  0.93827000000E+00  0.93827000000E+00 0.  1.
     999902    2    1    2    0    0 -0.10976148176E-01  0.61588414554E-02  0.94618212473E-03  0.10313084939E+01  0.10312312578E+01 0.  0.
     999903    2    3    3    0    0 -0.71043377604E-01  0.11511692410E+00 -0.69932055763E-02  0.14252113475E+00  0.44320437847E-01 0.  0.
         14    1    1    2    0    0  0.10976148176E-01 -0.61588414554E-02 -0.94618212473E-03  0.12621506149E-01  0.00000000000E+00 0. -1.
     999901    1    3    3    0    0  0.60067229428E-01 -0.10895808264E+00  0.79393877010E-02  0.88878735910E+00  0.88000000000E+00 0.  1.
        -11    1    4    4    0    0 -0.36284406591E-01  0.29939356579E-01  0.12070995984E-01  0.48568439331E-01  0.51100000000E-03 0.  1.
         11    1    4    4    0    0 -0.34758971013E-01  0.85177567517E-01 -0.19064201560E-01  0.93952695417E-01  0.51100000000E-03 0. -1.
</event>
<event>
 8    1  0.2959109E+004  0.1043930E+01  0.7957747E-01            NaN
         13   -1    0    0    0    0  0.00000000000E+00  0.00000000000E+00  0.74505805969E-08  0.10566000000E+00  0.10566000000E+00 0.  1.
     999900   -1    0    0    0    0 -0.00000000000E+00 -0.00000000000E+00 -0.74505805969E-08  0.93827000000E+00  0.93827000000E+00 0.  1.
     999902    2    1    2    0    0 -0.55653207841E-02  0.12984621314E-01 -0.33613859337E-02  0.10294085641E+01  0.10293061351E+01 0.  0.
     999903    2    3    3    0    0 -0.28387067278E-01 -0.12723072558E+00  0.20910210689E-02  0.13799905977E+00  0.45231460384E-01 0.  0.
         14    1    1    2    0    0  0.55653207841E-02 -0.12984621314E-01  0.33613859337E-02  0.14521435931E-01  0.00000000000E+00 0.  1.
     999901    1    3    3    0    0  0.22821746494E-01  0.14021534689E+00 -0.54524070026E-02  0.89140950430E+00  0.88000000000E+00 0.  1.
        -11    1    4    4    0    0 -0.37329339152E-01 -0.11784253451E+00 -0.39684484921E-02  0.12367842256E+00  0.51100000000E-03 0. -1.
         11    1    4    4    0    0  0.89422718747E-02 -0.93881910609E-02  0.60594695610E-02  0.14320637208E-01  0.51100000000E-03 0.  1.
</event>
<event>
 8    1  0.2959109E+004  0.1043930E+01  0.7957747E-01            NaN
         13   -1    0    0    0    0  0.00000000000E+00  0.00000000000E+00  0.74505805969E-08  0.10566000000E+00  0.10566000000E+00 0.  1.
     999900   -1    0    0    0    0 -0.00000000000E+00 -0.00000000000E+00 -0.74505805969E-08  0.93827000000E+00  0.93827000000E+00 0. -1.
     999902    2    1    2    0    0  0.82723060545E-02  0.72392021761E-02 -0.87284540786E-02  0.10298935116E+01  0.10297978550E+01 0.  0.
     999903    2    3    3    0    0 -0.88771779048E-02  0.12761660899E+00 -0.37729042288E-01  0.14105952318E+00  0.45929350861E-01 0.  0.
         14    1    1    2    0    0 -0.82723060545E-02 -0.72392021761E-02  0.87284540786E-02  0.14036488386E-01  0.00000000000E+00 0.  1.
     999901    1    3    3    0    0  0.17149483959E-01 -0.12037740682E+00  0.29000588210E-01  0.88883398843E+00  0.88000000000E+00 0.  1.
        -11    1    4    4    0    0 -0.19773886750E-01  0.11011298405E+00 -0.19558445874E-01  0.11357231080E+00  0.51100000000E-03 0. -1.
         11    1    4    4    0    0  0.10896708845E-01  0.17503624944E-01 -0.18170596415E-01  0.27487212389E-01  0.51100000000E-03 0.  1.
</event>
<event>
 8    1  0.2959109E+004  0.1043930E+01  0.7957747E-01            NaN
         13   -1    0    0    0    0  0.00000000000E+00  0.00000000000E+00  0.74505805969E-08  0.10566000000E+00  0.10566000000E+00 0. -1.
     999900   -1    0    0    0    0 -0.00000000000E+00 -0.00000000000E+00 -0.74505805969E-08  0.93827000000E+00  0.93827000000E+00 0. -1.
     999902    2    1    2    0    0 -0.11314785665E-01 -0.37797238189E-02 -0.82404009012E-02  0.10294312106E+01  0.10293291031E+01 0.  0.
     999903    2    3    3    0    0  0.22464621207E-02  0.47235146007E-01  0.12192685505E+00  0.13829152520E+00  0.44968681867E-01 0.  0.
         14    1    1    2    0    0  0.11314785665E-01  0.37797238189E-02  0.82404009012E-02  0.14498789391E-01  0.00000000000E+00 0. -1.
     999901    1    3    3    0    0 -0.13561247786E-01 -0.51014869825E-01 -0.13016725596E+00  0.89113968541E+00  0.88000000000E+00 0. -1.
        -11    1    4    4    0    0  0.65492960041E-02  0.52909174680E-01  0.82532865561E-01  0.98255834749E-01  0.51100000000E-03 0.  1.
         11    1    4    4    0    0 -0.43028338834E-02 -0.56740286739E-02  0.39393989493E-01  0.40035690453E-01  0.51100000000E-03 0. -1.
</event>
<event>
 8    1  0.2959109E+004  0.1043930E+01  0.7957747E-01            NaN
         13   -1    0    0    0    0  0.00000000000E+00  0.00000000000E+00  0.74505805969E-08  0.10566000000E+00  0.10566000000E+00 0.  1.
     999900   -1    0    0    0    0 -0.00000000000E+00 -0.00000000000E+00 -0.74505805969E-08  0.93827000000E+00  0.93827000000E+00 0. -1.
     999902    2    1    2    0    0  0.11844751588E-01  0.11500909794E-01 -0.52949319995E-02  0.10265920252E+01  0.10264456054E+01 0.  0.
     999903    2    3    3    0    0 -0.20949483306E-02 -0.10840510990E+00  0.68056353253E-01  0.13532765371E+00  0.43884507268E-01 0.  0.
         14    1    1    2    0    0 -0.11844751588E-01 -0.11500909794E-01  0.52949319995E-02  0.17337974828E-01  0.00000000000E+00 0. -1.
     999901    1    3    3    0    0  0.13939699918E-01  0.11990601970E+00 -0.73351285253E-01  0.89126437146E+00  0.88000000000E+00 0.  1.
        -11    1    4    4    0    0 -0.70016481218E-02 -0.50340731955E-01  0.56355792318E-01  0.75891032533E-01  0.51100000000E-03 0.  1.
         11    1    4    4    0    0  0.49066997912E-02 -0.58064377949E-01  0.11700560935E-01  0.59436621174E-01  0.51100000000E-03 0. -1.
</event>
<event>
 8    1  0.2959109E+004  0.1043930E+01  0.7957747E-01            NaN
         13   -1    0    0    0    0  0.00000000000E+00  0.00000000000E+00  0.74505805969E-08  0.10566000000E+00  0.10566000000E+00 0.  1.
     999900   -1    0    0    0    0 -0.00000000000E+00 -0.00000000000E+00 -0.74505805969E-08  0.93827000000E+00  0.93827000000E+00 0. -1.
     999902    2    1    2    0    0 -0.79782119578E-02  0.10299730239E-01 -0.26613751693E-02  0.10306326609E+01  0.10305468755E+01 0.  0.
     999903    2    3    3    0    0  0.93386697659E-01  0.88225280193E-01 -0.31994783354E-01  0.14090928532E+00  0.48238834593E-01 0.  0.
         14    1    1    2    0    0  0.79782119578E-02 -0.10299730239E-01  0.26613751693E-02  0.13297339088E-01  0.00000000000E+00 0. -1.
     999901    1    3    3    0    0 -0.10136490962E+00 -0.77925549954E-01  0.29333408185E-01  0.88972337559E+00  0.88000000000E+00 0.  1.
        -11    1    4    4    0    0  0.27577456056E-02  0.21988183205E-01 -0.16405273858E-01  0.27576792649E-01  0.51100000000E-03 0. -1.
         11    1    4    4    0    0  0.90628952054E-01  0.66237096988E-01 -0.15589509496E-01  0.11333249267E+00  0.51100000000E-03 0.  1.
</event>
<event>
 8    1  0.2959109E+004  0.1043930E+01  0.7957747E-01            NaN
         13   -1    0    0    0    0  0.00000000000E+00  0.00000000000E+00  0.74505805969E-08  0.10566000000E+00  0.10566000000E+00 0. -1.
     999900   -1    0    0    0    0 -0.00000000000E+00 -0.00000000000E+00 -0.74505805969E-08  0.93827000000E+00  0.93827000000E+00 0. -1.
     999902    2    1    2    0    0 -0.81978849547E-02  0.23763989128E-01  0.12976737374E-01  0.10156399274E+01  0.10152458490E+01 0.  0.
     999903    2    3    3    0    0  0.67987921228E-01  0.93619857811E-01 -0.32105571921E-01  0.12844404478E+00  0.45607780942E-01 0.  0.
         14    1    1    2    0    0  0.81978849547E-02 -0.23763989128E-01 -0.12976737374E-01  0.28290072638E-01  0.00000000000E+00 0.  1.
     999901    1    3    3    0    0 -0.76185806182E-01 -0.69855868684E-01  0.45082309296E-01  0.88719588258E+00  0.88000000000E+00 0. -1.
        -11    1    4    4    0    0  0.21771465750E-02  0.30285150868E-01 -0.19869242476E-01  0.36290194927E-01  0.51100000000E-03 0.  1.
         11    1    4    4    0    0  0.65810774653E-01  0.63334706943E-01 -0.12236329446E-01  0.92153849856E-01  0.51100000000E-03 0. -1.
</event>
<event>
 8    1  0.2959109E+004  0.1043930E+01  0.7957747E-01            NaN
         13   -1    0    0    0    0  0.00000000000E+00  0.00000000000E+00  0.74505805969E-08  0.10566000000E+00  0.10566000000E+00 0.  1.
     999900   -1    0    0    0    0 -0.00000000000E+00 -0.00000000000E+00 -0.74505805969E-08  0.93827000000E+00  0.93827000000E+00 0. -1.
     999902    2    1    2    0    0  0.71073547685E-02 -0.12242277108E-01 -0.43626595442E-02  0.10291171462E+01  0.10290105344E+01 0.  0.
     999903    2    3    3    0    0  0.81872412750E-02 -0.10651867532E-01  0.13072665654E+00  0.13880662793E+00  0.44691475961E-01 0.  0.
         14    1    1    2    0    0 -0.71073547685E-02  0.12242277108E-01  0.43626595442E-02  0.14812853840E-01  0.00000000000E+00 0.  1.
     999901    1    3    3    0    0 -0.10798865065E-02 -0.15904095756E-02 -0.13508931609E+00  0.89031051823E+00  0.88000000000E+00 0. -1.
        -11    1    4    4    0    0  0.59570374467E-02 -0.83422525337E-02  0.25326698830E-02  0.10571424228E-01  0.51100000000E-03 0. -1.
         11    1    4    4    0    0  0.22302038283E-02 -0.23096149985E-02  0.12819398666E+00  0.12823520370E+00  0.51100000000E-03 0.  1.
</event>
<event>
 8    1  0.2959109E+004  0.1043930E+01  0.7957747E-01            NaN
         13   -1    0    0    0    0  0.00000000000E+00  0.00000000000E+00  0.74505805969E-08  0.10566000000E+00  0.10566000000E+00 0. -1.
     999900   -1    0    0    0    0 -0.00000000000E+00 -0.00000000000E+00 -0.74505805969E-08  0.93827000000E+00  0.93827000000E+00 0.  1.
     999902    2    1    2    0    0 -0.70121409060E-02  0.21713855407E-02  0.13039576241E-01  0.10289661909E+01  0.10288573790E+01 0.  0.
     999903    2    3    3    0    0 -0.79496911698E-02  0.92665477769E-01  0.91959729969E-01  0.14081167143E+00  0.52165568292E-01 0.  0.
         14    1    1    2    0    0  0.70121409060E-02 -0.21713855407E-02 -0.13039576241E-01  0.14963809134E-01  0.00000000000E+00 0.  1.
     999901    1    3    3    0    0  0.93755026384E-03 -0.90494092229E-01 -0.78920153728E-01  0.88815451944E+00  0.88000000000E+00 0.  1.
        -11    1    4    4    0    0 -0.58270621605E-02  0.59287363819E-01  0.89177656598E-01  0.10724673291E+00  0.51100000000E-03 0. -1.
         11    1    4    4    0    0 -0.21226290093E-02  0.33378113951E-01  0.27820733709E-02  0.33564938523E-01  0.51100000000E-03 0.  1.
</event>
<event>
 8    1  0.2959109E+004  0.1043930E+01  0.7957747E-01            NaN
         13   -1    0    0    0    0  0.00000000000E+00  0.00000000000E+00  0.74505805969E-08  0.10566000000E+00  0.10566000000E+00 0. -1.
     999900   -1    0    0    0    0 -0.00000000000E+00 -0.00000000000E+00 -0.74505805969E-08  0.93827000000E+00  0.93827000000E+00 0. -1.
     999902    2    1    2    0    0  0.14075917650E-01 -0.24140755820E-02 -0.18021499996E-02  0.10295353148E+01  0.10294346785E+01 0.  0.
     999903    2    3    3    0    0  0.34457510636E-01 -0.11568572658E+00  0.55202520222E-01  0.14021230894E+00  0.45184797948E-01 0.  0.
         14    1    1    2    0    0 -0.14075917650E-01  0.24140755820E-02  0.18021499996E-02  0.14394685242E-01  0.00000000000E+00 0.  1.
     999901    1    3    3    0    0 -0.20381592986E-01  0.11327165100E+00 -0.57004670222E-01  0.88932300582E+00  0.88000000000E+00 0. -1.
        -11    1    4    4    0    0  0.41728336558E-01 -0.62312635941E-01  0.33455982161E-01  0.82119927747E-01  0.51100000000E-03 0. -1.
         11    1    4    4    0    0 -0.72708259217E-02 -0.53373090638E-01  0.21746538061E-01  0.58092381192E-01  0.51100000000E-03 0.  1.
</event>
<event>
 8    1  0.2959109E+004  0.1043930E+01  0.7957747E-01            NaN
         13   -1    0    0    0    0  0.00000000000E+00  0.00000000000E+00  0.74505805969E-08  0.10566000000E+00  0.10566000000E+00 0.  1.
     999900   -1    0    0    0    0 -0.00000000000E+00 -0.00000000000E+00 -0.74505805969E-08  0.93827000000E+00  0.93827000000E+00 0. -1.
     999902    2    1    2    0    0  0.62907511117E-02  0.56701382801E-03  0.12286009323E-01  0.10301154758E+01  0.10300228407E+01 0.  0.
     999903    2    3    3    0    0  0.87497441142E-01  0.92778462015E-01  0.39518014176E-01  0.14116156260E+00  0.45839590856E-01 0.  0.
         14    1    1    2    0    0 -0.62907511117E-02 -0.56701382801E-03 -0.12286009323E-01  0.13814524216E-01  0.00000000000E+00 0. -1.
     999901    1    3    3    0    0 -0.81206690030E-01 -0.92211448187E-01 -0.27232004853E-01  0.88895391319E+00  0.88000000000E+00 0. -1.
        -11    1    4    4    0    0  0.41612925777E-01  0.33542434135E-01  0.39107975357E-01  0.66230093892E-01  0.51100000000E-03 0.  1.
         11    1    4    4    0    0  0.45884515365E-01  0.59236027880E-01  0.41003881900E-03  0.74931468704E-01  0.51100000000E-03 0. -1.
</event>
<event>
 8    1  0.2959109E+004  0.1043930E+01  0.7957747E-01            NaN
         13   -1    0    0    0    0  0.00000000000E+00  0.00000000000E+00  0.74505805969E-08  0.10566000000E+00  0.10566000000E+00 0. -1.
     999900   -1    0    0    0    0 -0.00000000000E+00 -0.00000000000E+00 -0.74505805969E-08  0.93827000000E+00  0.93827000000E+00 0. -1.
     999902    2    1    2    0    0 -0.80324952276E-02  0.75876876511E-02 -0.87370675018E-02  0.10298434698E+01  0.10297471253E+01 0.  0.
     999903    2    3    3    0    0 -0.25553704306E-01  0.12910232294E+00  0.22061674121E-01  0.14078702515E+00  0.44876133894E-01 0.  0.
         14    1    1    2    0    0  0.80324952276E-02 -0.75876876511E-02  0.87370675018E-02  0.14086530162E-01  0.00000000000E+00 0. -1.
     999901    1    3    3    0    0  0.17521209078E-01 -0.12151463529E+00 -0.30798741623E-01  0.88905644469E+00  0.88000000000E+00 0. -1.
        -11    1    4    4    0    0 -0.30926315993E-01  0.10756759178E+00  0.37173187447E-02  0.11198796097E+00  0.51100000000E-03 0. -1.
         11    1    4    4    0    0  0.53726116877E-02  0.21534731155E-01  0.18344355376E-01  0.28799064177E-01  0.51100000000E-03 0.  1.
</event>
<event>
 8    1  0.2959109E+004  0.1043930E+01  0.7957747E-01            NaN
         13   -1    0    0    0    0  0.00000000000E+00  0.00000000000E+00  0.74505805969E-08  0.10566000000E+00  0.10566000000E+00 0.  1.
     999900   -1    0    0    0    0 -0.00000000000E+00 -0.00000000000E+00 -0.74505805969E-08  0.93827000000E+00  0.93827000000E+00 0. -1.
     999902    2    1    2    0    0 -0.40139089535E-02  0.32190462211E-02 -0.12622499526E-01  0.10302991080E+01  0.10302089354E+01 0.  0.
     999903    2    3    3    0    0 -0.66842459895E-01  0.51204393838E-02  0.11556808282E+00  0.13879259227E+00  0.37593464301E-01 0.  0.
         14    1    1    2    0    0  0.40139089535E-02 -0.32190462211E-02  0.12622499526E-01  0.13630892046E-01  0.00000000000E+00 0.  1.
     999901    1    3    3    0    0  0.62828550942E-01 -0.19013931627E-02 -0.12819058234E+00  0.89150651569E+00  0.88000000000E+00 0.  1.
        -11    1    4    4    0    0 -0.15232782578E-02  0.10166086373E-02  0.34723668495E-01  0.34775683235E-01  0.51100000000E-03 0. -1.
         11    1    4    4    0    0 -0.65319181637E-01  0.41038307465E-02  0.80844414323E-01  0.10401690903E+00  0.51100000000E-03 0.  1.
</event>
<event>
 8    1  0.2959109E+004  0.1043930E+01  0.7957747E-01            NaN
         13   -1    0    0    0    0  0.00000000000E+00  0.00000000000E+00  0.74505805969E-08  0.10566000000E+00  0.10566000000E+00 0. -1.
     999900   -1    0    0    0    0 -0.00000000000E+00 -0.00000000000E+00 -0.74505805969E-08  0.93827000000E+00  0.93827000000E+00 0.  1.
     999902    2    1    2    0    0  0.84994647668E-02 -0.15648572129E-02  0.10738794097E-01  0.10301455385E+01  0.10300533089E+01 0.  0.
     999903    2    3    3    0    0 -0.20414551417E-01 -0.12309055789E+00 -0.42728532537E-01  0.13971683769E+00  0.46119712613E-01 0.  0.
         14    1    1    2    0    0 -0.84994647668E-02  0.15648572129E-02 -0.10738794097E-01  0.13784461472E-01  0.00000000000E+00 0.  1.
     999901    1    3    3    0    0  0.28914016184E-01  0.12152570067E+00  0.53467326635E-01  0.89042870084E+00  0.88000000000E+00 0. -1.
        -11    1    4    4    0    0 -0.26537131658E-01 -0.94287215961E-01 -0.14679159562E-01  0.99045632397E-01  0.51100000000E-03 0. -1.
         11    1    4    4    0    0  0.61225802409E-02 -0.28803341924E-01 -0.28049372975E-01  0.40671205295E-01  0.51100000000E-03 0.  1.
</event>
<event>
 8    1  0.2959109E+004  0.1043930E+01  0.7957747E-01            NaN
         13   -1    0    0    0    0  0.00000000000E+00  0.00000000000E+00  0.74505805969E-08  0.10566000000E+00  0.10566000000E+00 0. -1.
     999900   -1    0    0    0    0 -0.00000000000E+00 -0.00000000000E+00 -0.74505805969E-08  0.93827000000E+00  0.93827000000E+00 0.  1.
     999902    2    1    2    0    0 -0.97463086679E-02 -0.96906556586E-02  0.11814788747E-02  0.10301352462E+01  0.10300428779E+01 0.  0.
     999903    2    3    3    0    0 -0.10536038289E+00  0.62343258189E-01  0.52767728298E-01  0.14053304463E+00  0.44470342447E-01 0.  0.
         14    1    1    2    0    0  0.97463086679E-02  0.96906556586E-02 -0.11814788747E-02  0.13794753788E-01  0.00000000000E+00 0.  1.
     999901    1    3    3    0    0  0.95614074226E-01 -0.72033913847E-01 -0.51586249424E-01  0.88960220158E+00  0.88000000000E+00 0.  1.
        -11    1    4    4    0    0 -0.10014041435E+00  0.40895340550E-01  0.43867264819E-01  0.11672673005E+00  0.51100000000E-03 0.  1.
         11    1    4    4    0    0 -0.52199685477E-02  0.21447917639E-01  0.89004634790E-02  0.23806314579E-01  0.51100000000E-03 0. -1.
</event>
<event>
 8    1  0.2959109E+004  0.1043930E+01  0.7957747E-01            NaN
         13   -1    0    0    0    0  0.00000000000E+00  0.00000000000E+00  0.74505805969E-08  0.10566000000E+00  0.10566000000E+00 0. -1.
     999900   -1    0    0    0    0 -0.00000000000E+00 -0.00000000000E+00 -0.74505805969E-08  0.93827000000E+00  0.93827000000E+00 0. -1.
     999902    2    1    2    0    0  0.82768088099E-02  0.55176704900E-02 -0.97513010211E-02  0.10300002432E+01  0.10299060457E+01 0.  0.
     999903    2    3    3    0    0  0.48345615214E-02 -0.27532495800E-01  0.12795147947E+00  0.13867189840E+00  0.45573051242E-01 0.  0.
         14    1    1    2    0    0 -0.82768088099E-02 -0.55176704900E-02  0.97513010211E-02  0.13929756757E-01  0.00000000000E+00 0. -1.
     999901    1    3    3    0    0  0.34422472885E-02  0.33050166290E-01 -0.13770278049E+00  0.89132834484E+00  0.88000000000E+00 0. -1.
        -11    1    4    4    0    0 -0.15338013770E-01 -0.21599357552E-01  0.10136906731E+00  0.10477469085E+00  0.51100000000E-03 0.  1.
         11    1    4    4    0    0  0.20172575291E-01 -0.59331382474E-02  0.26582412152E-01  0.33897207557E-01  0.51100000000E-03 0. -1.
</event>
<event>
 8    1  0.2959109E+004  0.1043930E+01  0.7957747E-01            NaN
         13   -1    0    0    0    0  0.00000000000E+00  0.00000000000E+00  0.74505805969E-08  0.10566000000E+00  0.10566000000E+00 0. -1.
     999900   -1    0    0    0    0 -0.00000000000E+00 -0.00000000000E+00 -0.74505805969E-08  0.93827000000E+00  0.93827000000E+00 0. -1.
     999902    2    1    2    0    0 -0.23934730455E-02 -0.12243987183E-01  0.34719403387E-02  0.10309801620E+01  0.10308988292E+01 0.  0.
     999903    2    3    3    0    0  0.19959691938E-01  0.12643206615E+00 -0.30878256674E-01  0.13917825135E+00  0.45096144614E-01 0.  0.
         14    1    1    2    0    0  0.23934730455E-02  0.12243987183E-01 -0.34719403387E-02  0.12949838033E-01  0.00000000000E+00 0.  1.
     999901    1    3    3    0    0 -0.22353164983E-01 -0.13867605333E+00  0.34350197013E-01  0.89180191062E+00  0.88000000000E+00 0.  1.
        -11    1    4    4    0    0  0.17618338471E-01  0.12224073610E-01 -0.38777469012E-02  0.21797519770E-01  0.51100000000E-03 0.  1.
         11    1    4    4    0    0  0.23413534668E-02  0.11420799254E+00 -0.27000509773E-01  0.11738073158E+00  0.51100000000E-03 0. -1.
</event>
<event>
 8    1  0.2959109E+004  0.1043930E+01  0.7957747E-01            NaN
         13   -1    0    0    0    0  0.00000000000E+00  0.00000000000E+00  0.74505805969E-08  0.10566000000E+00  0.10566000000E+00 0. -1.
     999900   -1    0    0    0    0 -0.00000000000E+00 -0.00000000000E+00 -0.74505805969E-08  0.93827000000E+00  0.93827000000E+00 0.  1.
     999902    2    1    2    0    0  0.68000806121E-02  0.37970451355E-02 -0.11295027153E-01  0.10302100770E+01  0.10301187148E+01 0.  0.
     999903    2    3    3    0    0  0.13060390419E+00  0.29111103540E-01 -0.55177549015E-03  0.14111862743E+00  0.44825510718E-01 0.  0.
         14    1    1    2    0    0 -0.68000806121E-02 -0.37970451355E-02  0.11295027153E-01  0.13719922976E-01  0.00000000000E+00 0. -1.
     999901    1    3    3    0    0 -0.12380382358E+00 -0.25314058404E-01 -0.10743251663E-01  0.88909144959E+00  0.88000000000E+00 0. -1.
        -11    1    4    4    0    0  0.73481340564E-01 -0.26515839351E-02  0.12168252949E-01  0.74530972148E-01  0.51100000000E-03 0. -1.
         11    1    4    4    0    0  0.57122563630E-01  0.31762687475E-01 -0.12720028439E-01  0.66587655281E-01  0.51100000000E-03 0.  1.
</event>
<event>
 8    1  0.2959109E+004  0.1043930E+01  0.7957747E-01            NaN
         13   -1    0    0    0    0  0.00000000000E+00  0.00000000000E+00  0.74505805969E-08  0.10566000000E+00  0.10566000000E+00 0. -1.
     999900   -1    0    0    0    0 -0.00000000000E+00 -0.00000000000E+00 -0.74505805969E-08  0.93827000000E+00  0.93827000000E+00 0.  1.
     999902    2    1    2    0    0 -0.49966848567E-02  0.13208084484E-01  0.43710608374E-02  0.10291473572E+01  0.10290411830E+01 0.  0.
     999903    2    3    3    0    0  0.27559885369E-01 -0.37641052225E-01 -0.12211078037E+00  0.13805632867E+00  0.44408457647E-01 0.  0.
         14    1    1    2    0    0  0.49966848567E-02 -0.13208084484E-01 -0.43710608374E-02  0.14782642800E-01  0.00000000000E+00 0.  1.
     999901    1    3    3    0    0 -0.32556570226E-01  0.50849136710E-01  0.12648184120E+00  0.89109102853E+00  0.88000000000E+00 0. -1.
        -11    1    4    4    0    0  0.27592074069E-01 -0.31154663364E-01 -0.47466312091E-01  0.63128816758E-01  0.51100000000E-03 0.  1.
         11    1    4    4    0    0 -0.32188699615E-04 -0.64863888615E-02 -0.74644468275E-01  0.74927511914E-01  0.51100000000E-03 0. -1.
</event>
<event>
 8    1  0.2959109E+004  0.1043930E+01  0.7957747E-01            NaN
         13   -1    0    0    0    0  0.00000000000E+00  0.00000000000E+00  0.74505805969E-08  0.10566000000E+00  0.10566000000E+00 0.  1.
     999900   -1    0    0    0    0 -0.00000000000E+00 -0.00000000000E+00 -0.74505805969E-08  0.93827000000E+00  0.93827000000E+00 0.  1.
     999902    2    1    2    0    0  0.23908587690E-02  0.12361458861E-01 -0.61520860982E-02  0.10299167907E+01  0.10298214534E+01 0.  0.
     999903    2    3    3    0    0 -0.61998923966E-01 -0.28495456731E-01 -0.11323005772E+00  0.14015220181E+00  0.46537469580E-01 0.  0.
         14    1    1    2    0    0 -0.23908587690E-02 -0.12361458861E-01  0.61520860982E-02  0.14013209275E-01  0.00000000000E+00 0.  1.
     999901    1    3    3    0    0  0.64389782735E-01  0.40856915591E-01  0.10707797162E+00  0.88976458891E+00  0.88000000000E+00 0. -1.
        -11    1    4    4    0    0 -0.51063693360E-01 -0.53721531108E-02 -0.48840222512E-01  0.70865995122E-01  0.51100000000E-03 0.  1.
         11    1    4    4    0    0 -0.10935230606E-01 -0.23123303620E-01 -0.64389835209E-01  0.69286206693E-01  0.51100000000E-03 0. -1.
</event>
<event>
 8    1  0.2959109E+004  0.1043930E+01  0.7957747E-01            NaN
         13   -1    0    0    0    0  0.00000000000E+00  0.00000000000E+00  0.74505805969E-08  0.10566000000E+00  0.10566000000E+00 0.  1.
     999900   -1    0    0    0    0 -0.00000000000E+00 -0.00000000000E+00 -0.74505805969E-08  0.93827000000E+00  0.93827000000E+00 0. -1.
     999902    2    1    2    0    0  0.10878282091E-01 -0.75592131699E-02 -0.53720174155E-02  0.10296353403E+01  0.10295361075E+01 0.  0.
     999903    2    3    3    0    0 -0.27110706239E-01  0.39313277923E-01 -0.12376519891E+00  0.13965941979E+00  0.43662396427E-01 0.  0.
         14    1    1    2    0    0 -0.10878282091E-01  0.75592131699E-02  0.53720174155E-02  0.14294659706E-01  0.00000000000E+00 0.  1.
     999901    1    3    3    0    0  0.37988988330E-01 -0.46872491093E-01  0.11839318149E+00  0.88997592051E+00  0.88000000000E+00 0.  1.
        -11    1    4    4    0    0 -0.12241761443E-01  0.40300040458E-01 -0.11474739442E+00  0.12223411812E+00  0.51100000000E-03 0. -1.
         11    1    4    4    0    0 -0.14868944796E-01 -0.98676253503E-03 -0.90178044824E-02  0.17425301671E-01  0.51100000000E-03 0.  1.
</event>
<event>
 8    1  0.2959109E+004  0.1043930E+01  0.7957747E-01            NaN
         13   -1    0    0    0    0  0.00000000000E+00  0.00000000000E+00  0.74505805969E-08  0.10566000000E+00  0.10566000000E+00 0.  1.
     999900   -1    0    0    0    0 -0.00000000000E+00 -0.00000000000E+00 -0.74505805969E-08  0.93827000000E+00  0.93827000000E+00 0.  1.
     999902    2    1    2    0    0  0.37650900822E-02  0.50256521243E-02  0.10731877494E-01  0.10314959227E+01  0.10314209773E+01 0.  0.
     999903    2    3    3    0    0 -0.29099900796E-01 -0.95999748491E-01  0.89061506310E-01  0.14165224549E+00  0.45504404301E-01 0.  0.
         14    1    1    2    0    0 -0.37650900822E-02 -0.50256521243E-02 -0.10731877494E-01  0.12434077253E-01  0.00000000000E+00 0. -1.
     999901    1    3    3    0    0  0.32864990879E-01  0.10102540062E+00 -0.78329628816E-01  0.88984367725E+00  0.88000000000E+00 0.  1.
        -11    1    4    4    0    0 -0.94336775365E-02 -0.85871132833E-01  0.79999526303E-01  0.11774137359E+00  0.51100000000E-03 0.  1.
         11    1    4    4    0    0 -0.19666223260E-01 -0.10128615658E-01  0.90619800068E-02  0.23910871902E-01  0.51100000000E-03 0. -1.
</event>
<event>
 8    1  0.2959109E+004  0.1043930E+01  0.7957747E-01            NaN
         13   -1    0    0    0    0  0.00000000000E+00  0.00000000000E+00  0.74505805969E-08  0.10566000000E+00  0.10566000000E+00 0. -1.
     999900   -1    0    0    0    0 -0.00000000000E+00 -0.00000000000E+00 -0.74505805969E-08  0.93827000000E+00  0.93827000000E+00 0.  1.
     999902    2    1    2    0    0 -0.10795309718E-01 -0.45924066195E-02 -0.95087157571E-02  0.10288288548E+01  0.10287180216E+01 0.  0.
     999903    2    3    3    0    0 -0.11528575912E+00 -0.65432675445E-01  0.16953410773E-01  0.14016691883E+00  0.42274173280E-01 0.  0.
         14    1    1    2    0    0  0.10795309718E-01  0.45924066195E-02  0.95087157571E-02  0.15101145182E-01  0.00000000000E+00 0. -1.
     999901    1    3    3    0    0  0.10449044940E+00  0.60840268825E-01 -0.26462126530E-01  0.88866193598E+00  0.88000000000E+00 0. -1.
        -11    1    4    4    0    0 -0.55096099728E-01 -0.10838226320E-01 -0.38422911522E-02  0.56285625850E-01  0.51100000000E-03 0. -1.
         11    1    4    4    0    0 -0.60189659392E-01 -0.54594449125E-01  0.20795701925E-01  0.83881292983E-01  0.51100000000E-03 0.  1.
</event>
<event>
 8    1  0.2959109E+004  0.1043930E+01  0.7957747E-01            NaN
         13   -1    0    0    0    0  0.00000000000E+00  0.00000000000E+00  0.74505805969E-08  0.10566000000E+00  0.10566000000E+00 0.  1.
     999900   -1    0    0    0    0 -0.00000000000E+00 -0.00000000000E+00 -0.74505805969E-08  0.93827000000E+00  0.93827000000E+00 0. -1.
     999902    2    1    2    0    0 -0.12541222708E-01 -0.44388870391E-02 -0.44753182941E-02  0.10298938161E+01  0.10297981637E+01 0.  0.
     999903    2    3    3    0    0  0.12083215751E+00 -0.36340257211E-01 -0.36646149582E-01  0.13869175238E+00  0.44400870666E-01 0.  0.
         14    1    1    2    0    0  0.12541222708E-01  0.44388870391E-02  0.44753182941E-02  0.14036183918E-01  0.00000000000E+00 0.  1.
     999901    1    3    3    0    0 -0.13337338021E+00  0.31901370172E-01  0.32170831288E-01  0.89120206371E+00  0.88000000000E+00 0. -1.
        -11    1    4    4    0    0  0.81860200335E-01 -0.15734786331E-01 -0.43577144664E-01  0.94063300803E-01  0.51100000000E-03 0.  1.
         11    1    4    4    0    0  0.38971957171E-01 -0.20605470880E-01  0.69309950822E-02  0.44628451572E-01  0.51100000000E-03 0. -1.
</event>
<event>
 8    1  0.2959109E+004  0.1043930E+01  0.7957747E-01            NaN
         13   -1    0    0    0    0  0.00000000000E+00  0.00000000000E+00  0.74505805969E-08  0.10566000000E+00  0.10566000000E+00 0. -1.
     999900   -1    0    0    0    0 -0.00000000000E+00 -0.00000000000E+00 -0.74505805969E-08  0.93827000000E+00  0.93827000000E+00 0. -1.
     999902    2    1    2    0    0  0.54650889916E-02  0.12491050892E-01  0.21522061709E-02  0.10301269010E+01  0.10300344201E+01 0.  0.
     999903    2    3    3    0    0 -0.97097187121E-01  0.88632540361E-01 -0.20402738438E-01  0.14061845675E+00  0.45537761092E-01 0.  0.
         14    1    1    2    0    0 -0.54650889916E-02 -0.12491050892E-01 -0.21522061709E-02  0.13803098981E-01  0.00000000000E+00 0.  1.
     999901    1    3    3    0    0  0.10256227611E+00 -0.76141489469E-01  0.22554944609E-01  0.88950844427E+00  0.88000000000E+00 0. -1.
        -11    1    4    4    0    0 -0.70306156517E-01  0.38259159344E-01 -0.23664032663E-01  0.83468356164E-01  0.51100000000E-03 0. -1.
         11    1    4    4    0    0 -0.26791030604E-01  0.50373381017E-01  0.32612942251E-02  0.57150100585E-01  0.51100000000E-03 0.  1.
</event>
<event>
 8    1  0.2959109E+004  0.1043930E+01  0.7957747E-01            NaN
         13   -1    0    0    0    0  0.00000000000E+00  0.00000000000E+00  0.74505805969E-08  0.10566000000E+00  0.10566000000E+00 0.  1.
     999900   -1    0    0    0    0 -0.00000000000E+00 -0.00000000000E+00 -0.74505805969E-08  0.93827000000E+00  0.93827000000E+00 0.  1.
     999902    2    1    2    0    0 -0.12215311485E-01 -0.61573917935E-02 -0.35306942643E-02  0.10298022574E+01  0.10297053444E+01 0.  0.
     999903    2    3    3    0    0 -0.26498757939E-01 -0.11641693270E+00  0.61576334843E-01  0.14042038868E+00  0.40879752371E-01 0.  0.
         14    1    1    2    0    0  0.12215311485E-01  0.61573917935E-02  0.35306942643E-02  0.14127742579E-01  0.00000000000E+00 0.  1.
     999901    1    3    3    0    0  0.14283446454E-01  0.11025954090E+00 -0.65107029107E-01  0.88938186874E+00  0.88000000000E+00 0.  1.
        -11    1    4    4    0    0 -0.37587543339E-01 -0.89870146676E-01  0.46799254954E-01  0.10807357708E+00  0.51100000000E-03 0. -1.
         11    1    4    4    0    0  0.11088785400E-01 -0.26546786022E-01  0.14777079888E-01  0.32346811601E-01  0.51100000000E-03 0.  1.
</event>
<event>
 8    1  0.2959109E+004  0.1043930E+01  0.7957747E-01            NaN
         13   -1    0    0    0    0  0.00000000000E+00  0.00000000000E+00  0.74505805969E-08  0.10566000000E+00  0.10566000000E+00 0. -1.
     999900   -1    0    0    0    0 -0.00000000000E+00 -0.00000000000E+00 -0.74505805969E-08  0.93827000000E+00  0.93827000000E+00 0.  1.
     999902    2    1    2    0    0 -0.28482429370E-02  0.10182825421E-01  0.92070807637E-02  0.10299095593E+01  0.10298141228E+01 0.  0.
     999903    2    3    3    0    0  0.10014960587E+00 -0.84919861501E-01 -0.49986440439E-02  0.13869977449E+00  0.44399488375E-01 0.  0.
         14    1    1    2    0    0  0.28482429370E-02 -0.10182825421E-01 -0.92070807637E-02  0.14020440705E-01  0.00000000000E+00 0.  1.
     999901    1    3    3    0    0 -0.10299784880E+00  0.95102686922E-01  0.14205724808E-01  0.89120978481E+00  0.88000000000E+00 0. -1.
        -11    1    4    4    0    0  0.31323490372E-01 -0.44906810780E-01  0.14683887732E-01  0.56689155783E-01  0.51100000000E-03 0.  1.
         11    1    4    4    0    0  0.68826115496E-01 -0.40013050721E-01 -0.19682531775E-01  0.82010618705E-01  0.51100000000E-03 0. -1.
</event>
<event>
 7    1  0.2959109E+004  0.1043930E+01  0.7957747E-01            NaN
         13   -1    0    0    0    0  0.00000000000E+00  0.00000000000E+00  0.74505805969E-08  0.10566000000E+00  0.10566000000E+00 0. -1.
     999900   -1    0    0    0    0 -0.00000000000E+00 -0.00000000000E+00 -0.74505805969E-08  0.93827000000E+00  0.93827000000E+00 0. -1.
     999903    2    1    2    0    0 -0.26789509832E-01  0.64078708970E-01  0.95983435278E-01  0.12707420964E+00  0.45948624865E-01 0.  0.
         14    1    1    2    0    0  0.15919475210E-01 -0.82278307287E-02 -0.26892007236E-01  0.32315738312E-01  0.00000000000E+00 0.  1.
     999901    1    1    2    0    0  0.10870034622E-01 -0.55850878241E-01 -0.69091428042E-01  0.88454005205E+00  0.88000000000E+00 0. -1.
        -11    1    3    3    0    0 -0.16958628977E-01  0.59596315028E-01  0.49384594466E-01  0.79236450913E-01  0.51100000000E-03 0. -1.
         11    1    3    3    0    0 -0.98308808553E-02  0.44823939423E-02  0.46598840811E-01  0.47837758725E-01  0.51100000000E-03 0.  1.
</event>
<event>
 8    1  0.2959109E+004  0.1043930E+01  0.7957747E-01            NaN
         13   -1    0    0    0    0  0.00000000000E+00  0.00000000000E+00  0.74505805969E-08  0.10566000000E+00  0.10566000000E+00 0.  1.
     999900   -1    0    0    0    0 -0.00000000000E+00 -0.00000000000E+00 -0.74505805969E-08  0.93827000000E+00  0.93827000000E+00 0.  1.
     999902    2    1    2    0    0 -0.11412105489E-01  0.35810795458E-02 -0.59954393194E-02  0.10305507035E+01  0.10304638504E+01 0.  0.
     999903    2    3    3    0    0  0.43020780284E-01 -0.31017605286E-01 -0.12205020272E+00  0.14059075150E+00  0.45350061169E-01 0.  0.
         14    1    1    2    0    0  0.11412105489E-01 -0.35810795458E-02  0.59954393194E-02  0.13379296508E-01  0.00000000000E+00 0. -1.
     999901    1    3    3    0    0 -0.54432885773E-01  0.34598684832E-01  0.11605476340E+00  0.88995995199E+00  0.88000000000E+00 0. -1.
        -11    1    4    4    0    0 -0.63311692075E-02 -0.26724420375E-02 -0.40868736062E-01  0.41445631353E-01  0.51100000000E-03 0. -1.
         11    1    4    4    0    0  0.49351949492E-01 -0.28345163249E-01 -0.81181466661E-01  0.99145120144E-01  0.51100000000E-03 0.  1.
</event>
<event>
 8    1  0.2959109E+004  0.1043930E+01  0.7957747E-01            NaN
         13   -1    0    0    0    0  0.00000000000E+00  0.00000000000E+00  0.74505805969E-08  0.10566000000E+00  0.10566000000E+00 0. -1.
     999900   -1    0    0    0    0 -0.00000000000E+00 -0.00000000000E+00 -0.74505805969E-08  0.93827000000E+00  0.93827000000E+00 0. -1.
     999902    2    1    2    0    0 -0.60998239254E-02  0.39115419438E-02  0.12884231788E-01  0.10291478675E+01  0.10290417007E+01 0.  0.
     999903    2    3    3    0    0  0.13108958580E+00  0.24342190198E-02 -0.20777555767E-02  0.13839145990E+00  0.44243351781E-01 0.  0.
         14    1    1    2    0    0  0.60998239254E-02 -0.39115419438E-02 -0.12884231788E-01  0.14782132494E-01  0.00000000000E+00 0.  1.
     999901    1    3    3    0    0 -0.13718940973E+00  0.14773229240E-02  0.14961987364E-01  0.89075640761E+00  0.88000000000E+00 0.  1.
        -11    1    4    4    0    0  0.40650843803E-01 -0.17387027928E-03 -0.21296994005E-01  0.45894927905E-01  0.51100000000E-03 0. -1.
         11    1    4    4    0    0  0.90438742000E-01  0.26080892990E-02  0.19219238428E-01  0.92496531995E-01  0.51100000000E-03 0.  1.
</event>
<event>
 8    1  0.2959109E+004  0.1043930E+01  0.7957747E-01            NaN
         13   -1    0    0    0    0  0.00000000000E+00  0.00000000000E+00  0.74505805969E-08  0.10566000000E+00  0.10566000000E+00 0. -1.
     999900   -1    0    0    0    0 -0.00000000000E+00 -0.00000000000E+00 -0.74505805969E-08  0.93827000000E+00  0.93827000000E+00 0.  1.
     999902    2    1    2    0    0 -0.66666805089E-02 -0.24986082630E-02 -0.12080580342E-01  0.10299075860E+01  0.10298121225E+01 0.  0.
     999903    2    3    3    0    0 -0.53373064345E-01 -0.89027113894E-01  0.81779294125E-01  0.13947042114E+00  0.44605318283E-01 0.  0.
         14    1    1    2    0    0  0.66666805089E-02  0.24986082630E-02  0.12080580342E-01  0.14022413974E-01  0.00000000000E+00 0.  1.
     999901    1    3    3    0    0  0.46706383836E-01  0.86528505631E-01 -0.93859874467E-01  0.89043716489E+00  0.88000000000E+00 0.  1.
        -11    1    4    4    0    0 -0.15102907814E-01 -0.66895822930E-01  0.53596388548E-01  0.87040122567E-01  0.51100000000E-03 0. -1.
         11    1    4    4    0    0 -0.38270156531E-01 -0.22131290963E-01  0.28182905577E-01  0.52430298572E-01  0.51100000000E-03 0.  1.
</event>
<event>
 8    1  0.2959109E+004  0.1043930E+01  0.7957747E-01            NaN
         13   -1    0    0    0    0  0.00000000000E+00  0.00000000000E+00  0.74505805969E-08  0.10566000000E+00  0.10566000000E+00 0. -1.
     999900   -1    0    0    0    0 -0.00000000000E+00 -0.00000000000E+00 -0.74505805969E-08  0.93827000000E+00  0.93827000000E+00 0. -1.
     999902    2    1    2    0    0  0.89745713910E-03  0.13459084385E-01 -0.27908562559E-02  0.10301553399E+01  0.10300632423E+01 0.  0.
     999903    2    3    3    0    0  0.90482300889E-01  0.84440495762E-01  0.54627159794E-01  0.14090811132E+00  0.39417320444E-01 0.  0.
         14    1    1    2    0    0 -0.89745713910E-03 -0.13459084385E-01  0.27908562559E-02  0.13774660084E-01  0.00000000000E+00 0. -1.
     999901    1    3    3    0    0 -0.89584843750E-01 -0.70981411377E-01 -0.57418016050E-01  0.88924722859E+00  0.88000000000E+00 0. -1.
        -11    1    4    4    0    0  0.23185180611E-01  0.25745768601E-01 -0.27588221429E-02  0.34760170044E-01  0.51100000000E-03 0. -1.
         11    1    4    4    0    0  0.67297120278E-01  0.58694727161E-01  0.57385981937E-01  0.10614794128E+00  0.51100000000E-03 0.  1.
</event>
<event>
 7    1  0.2959109E+004  0.1043930E+01  0.7957747E-01            NaN
         13   -1    0    0    0    0  0.00000000000E+00  0.00000000000E+00  0.74505805969E-08  0.10566000000E+00  0.10566000000E+00 0.  1.
     999900   -1    0    0    0    0 -0.00000000000E+00 -0.00000000000E+00 -0.74505805969E-08  0.93827000000E+00  0.93827000000E+00 0. -1.
     999903    2    1    2    0    0  0.24058707574E-01 -0.49645362382E-01  0.60726835428E-01  0.93568532379E-01  0.44987090308E-01 0.  0.
         14    1    1    2    0    0 -0.21502790995E-01 -0.57463822784E-01  0.41298860129E-02  0.61494039613E-01  0.00000000000E+00 0. -1.
     999901    1    1    2    0    0 -0.25559165791E-02  0.10710918517E+00 -0.64856721441E-01  0.88886742801E+00  0.88000000000E+00 0. -1.
        -11    1    3    3    0    0  0.19539100166E-02 -0.13649124825E-01 -0.56328938524E-02  0.14903254242E-01  0.51100000000E-03 0. -1.
         11    1    3    3    0    0  0.22104797557E-01 -0.35996237556E-01  0.66359729280E-01  0.78665278137E-01  0.51100000000E-03 0.  1.
</event>
<event>
 8    1  0.2959109E+004  0.1043930E+01  0.7957747E-01            NaN
         13   -1    0    0    0    0  0.00000000000E+00  0.00000000000E+00  0.74505805969E-08  0.10566000000E+00  0.10566000000E+00 0.  1.
     999900   -1    0    0    0    0 -0.00000000000E+00 -0.00000000000E+00 -0.74505805969E-08  0.93827000000E+00  0.93827000000E+00 0.  1.
     999902    2    1    2    0    0 -0.25052883900E-03 -0.16443805609E-02  0.14416575189E-01  0.10294177847E+01  0.10293154867E+01 0.  0.
     999903    2    3    3    0    0 -0.49834726253E-01  0.11831530352E+00  0.33202972107E-01  0.13969768989E+00  0.43943102031E-01 0.  0.
         14    1    1    2    0    0  0.25052883900E-03  0.16443805609E-02 -0.14416575189E-01  0.14512215279E-01  0.00000000000E+00 0. -1.
     999901    1    3    3    0    0  0.49584197414E-01 -0.11995968408E+00 -0.18786396918E-01  0.88972009483E+00  0.88000000000E+00 0.  1.
        -11    1    4    4    0    0 -0.18663912166E-01  0.51437844640E-01  0.36599357633E-01  0.65832876123E-01  0.51100000000E-03 0. -1.
         11    1    4    4    0    0 -0.31170814087E-01  0.66877458880E-01 -0.33963855260E-02  0.73864813766E-01  0.51100000000E-03 0.  1.
</event>
<event>
 8    1  0.2959109E+004  0.1043930E+01  0.7957747E-01            NaN
         13   -1    0    0    0    0  0.00000000000E+00  0.00000000000E+00  0.74505805969E-08  0.10566000000E+00  0.10566000000E+00 0. -1.
     999900   -1    0    0    0    0 -0.00000000000E+00 -0.00000000000E+00 -0.74505805969E-08  0.93827000000E+00  0.93827000000E+00 0. -1.
     999902    2    1    2    0    0  0.94403401274E-02  0.76151394509E-02 -0.56747116412E-02  0.10305392299E+01  0.10304522268E+01 0.  0.
     999903    2    3    3    0    0 -0.36307338340E-01  0.11602157784E+00 -0.56455718465E-01  0.14125664458E+00  0.44575353600E-01 0.  0.
         14    1    1    2    0    0 -0.94403401274E-02 -0.76151394509E-02  0.56747116412E-02  0.13390770060E-01  0.00000000000E+00 0. -1.
     999901    1    3    3    0    0  0.45747678467E-01 -0.10840643839E+00  0.50781006824E-01  0.88928258536E+00  0.88000000000E+00 0.  1.
        -11    1    4    4    0    0 -0.42377208551E-01  0.97715546362E-01 -0.34341655386E-01  0.11190963417E+00  0.51100000000E-03 0.  1.
         11    1    4    4    0    0  0.60698702118E-02  0.18306031481E-01 -0.22114063079E-01  0.29347010406E-01  0.51100000000E-03 0. -1.
</event>
<event>
 8    1  0.2959109E+004  0.1043930E+01  0.7957747E-01            NaN
         13   -1    0    0    0    0  0.00000000000E+00  0.00000000000E+00  0.74505805969E-08  0.10566000000E+00  0.10566000000E+00 0.  1.
     999900   -1    0    0    0    0 -0.00000000000E+00 -0.00000000000E+00 -0.74505805969E-08  0.93827000000E+00  0.93827000000E+00 0.  1.
     999902    2    1    2    0    0  0.64271149604E-02 -0.12049209670E-01 -0.21643323534E-03  0.10302721047E+01  0.10301815722E+01 0.  0.
     999903    2    3    3    0    0 -0.78891523603E-01 -0.64906389853E-01  0.82602191029E-01  0.14070362724E+00  0.50375359211E-01 0.  0.
         14    1    1    2    0    0 -0.64271149604E-02  0.12049209670E-01  0.21643323534E-03  0.13657895290E-01  0.00000000000E+00 0.  1.
     999901    1    3    3    0    0  0.85318638563E-01  0.52857180182E-01 -0.82818624264E-01  0.88956847747E+00  0.88000000000E+00 0.  1.
        -11    1    4    4    0    0 -0.25045618193E-01  0.44570155055E-02  0.12540355883E-01  0.28366699219E-01  0.51100000000E-03 0.  1.
         11    1    4    4    0    0 -0.53845905410E-01 -0.69363405358E-01  0.70061835146E-01  0.11233692802E+00  0.51100000000E-03 0. -1.
</event>
<event>
 8    1  0.2959109E+004  0.1043930E+01  0.7957747E-01            NaN
         13   -1    0    0    0    0  0.00000000000E+00  0.00000000000E+00  0.74505805969E-08  0.10566000000E+00  0.10566000000E+00 0.  1.
     999900   -1    0    0    0    0 -0.00000000000E+00 -0.00000000000E+00 -0.74505805969E-08  0.93827000000E+00  0.93827000000E+00 0. -1.
     999902    2    1    2    0    0 -0.26618779059E-02  0.15950124640E-01  0.17010981277E-02  0.10276700552E+01  0.10275414135E+01 0.  0.
     999903    2    3    3    0    0 -0.15819476829E-01 -0.11850762724E+00  0.47834172438E-01  0.13616555718E+00  0.44256494987E-01 0.  0.
         14    1    1    2    0    0  0.26618779059E-02 -0.15950124640E-01 -0.17010981277E-02  0.16259944799E-01  0.00000000000E+00 0. -1.
     999901    1    3    3    0    0  0.13157598923E-01  0.13445775188E+00 -0.46133074310E-01  0.89150449802E+00  0.88000000000E+00 0. -1.
        -11    1    4    4    0    0 -0.21268112676E-01 -0.72954198573E-01  0.99028834929E-02  0.76635343861E-01  0.51100000000E-03 0.  1.
         11    1    4    4    0    0  0.54486358468E-02 -0.45553428664E-01  0.37931288945E-01  0.59530213318E-01  0.51100000000E-03 0. -1.
</event>
<event>
 8    1  0.2959109E+004  0.1043930E+01  0.7957747E-01            NaN
         13   -1    0    0    0    0  0.00000000000E+00  0.00000000000E+00  0.74505805969E-08  0.10566000000E+00  0.10566000000E+00 0. -1.
     999900   -1    0    0    0    0 -0.00000000000E+00 -0.00000000000E+00 -0.74505805969E-08  0.93827000000E+00  0.93827000000E+00 0. -1.
     999902    2    1    2    0    0  0.11474345542E-01  0.20057825447E-02 -0.64383956140E-02  0.10306207285E+01  0.10305347880E+01 0.  0.
     999903    2    3    3    0    0 -0.70309573252E-01  0.10856715773E+00  0.29804989025E-01  0.13969002471E+00  0.43528172562E-01 0.  0.
         14    1    1    2    0    0 -0.11474345542E-01 -0.20057825447E-02  0.64383956140E-02  0.13309271480E-01  0.00000000000E+00 0.  1.
     999901    1    3    3    0    0  0.81783918794E-01 -0.10656137518E+00 -0.36243384639E-01  0.89093070381E+00  0.88000000000E+00 0. -1.
        -11    1    4    4    0    0 -0.20392813363E-01  0.59591894263E-01  0.29979891945E-01  0.69757549704E-01  0.51100000000E-03 0.  1.
         11    1    4    4    0    0 -0.49916759890E-01  0.48975263462E-01 -0.17490292021E-03  0.69932475010E-01  0.51100000000E-03 0. -1.
</event>
<event>
 7    1  0.2959109E+004  0.1043930E+01  0.7957747E-01            NaN
         13   -1    0    0    0    0  0.00000000000E+00  0.00000000000E+00  0.74505805969E-08  0.10566000000E+00  0.10566000000E+00 0. -1.
     999900   -1    0    0    0    0 -0.00000000000E+00 -0.00000000000E+00 -0.74505805969E-08  0.93827000000E+00  0.93827000000E+00 0. -1.
     999903    2    1    2    0    0 -0.25778759001E-01 -0.69172480010E-01 -0.50677142204E-01  0.10002915634E+00  0.44590166730E-01 0.  0.
         14    1    1    2    0    0  0.49924758698E-01 -0.26016303741E-01 -0.60622182624E-02  0.56622257829E-01  0.00000000000E+00 0. -1.
     999901    1    1    2    0    0 -0.24145999698E-01  0.95188783752E-01  0.56739360467E-01  0.88727858583E+00  0.88000000000E+00 0.  1.
        -11    1    3    3    0    0 -0.20672724323E-01 -0.21359520966E-01 -0.41537954034E-01  0.51080851727E-01  0.51100000000E-03 0.  1.
         11    1    3    3    0    0 -0.51060346777E-02 -0.47812959045E-01 -0.91391881702E-02  0.48948304610E-01  0.51100000000E-03 0. -1.
</event>
<event>
 8    1  0.2959109E+004  0.1043930E+01  0.7957747E-01            NaN
         13   -1    0    0    0    0  0.00000000000E+00  0.00000000000E+00  0.74505805969E-08  0.10566000000E+00  0.10566000000E+00 0. -1.
     999900   -1    0    0    0    0 -0.00000000000E+00 -0.00000000000E+00 -0.74505805969E-08  0.93827000000E+00  0.93827000000E+00 0. -1.
     999902    2    1    2    0    0  0.44208313396E-02  0.77783276503E-03  0.13429038685E-01  0.10297706267E+01  0.10296732762E+01 0.  0.
     999903    2    3    3    0    0 -0.11552413951E-01 -0.88857233222E-01 -0.95460918268E-01  0.13839718508E+00  0.44854517690E-01 0.  0.
         14    1    1    2    0    0 -0.44208313396E-02 -0.77783276503E-03 -0.13429038685E-01  0.14159373346E-01  0.00000000000E+00 0.  1.
     999901    1    3    3    0    0  0.15973245290E-01  0.89635065987E-01  0.10888995695E+00  0.89137344157E+00  0.88000000000E+00 0.  1.
        -11    1    4    4    0    0 -0.19684701416E-01 -0.77507802184E-01 -0.95322371067E-01  0.12442492683E+00  0.51100000000E-03 0. -1.
         11    1    4    4    0    0  0.81322874659E-02 -0.11349431038E-01 -0.13854720125E-03  0.13972258251E-01  0.51100000000E-03 0.  1.
</event>
<event>
 8    1  0.2959109E+004  0.1043930E+01  0.7957747E-01            NaN
         13   -1    0    0    0    0  0.00000000000E+00  0.00000000000E+00  0.74505805969E-08  0.10566000000E+00  0.10566000000E+00 0. -1.
     999900   -1    0    0    0    0 -0.00000000000E+00 -0.00000000000E+00 -0.74505805969E-08  0.93827000000E+00  0.93827000000E+00 0.  1.
     999902    2    1    2    0    0  0.59443563167E-02 -0.56741656733E-02  0.11391965168E-01  0.10298833492E+01  0.10297875531E+01 0.  0.
     999903    2    3    3    0    0  0.12921031560E-01  0.12355158009E+00  0.45924488567E-01  0.13974826815E+00  0.44593427776E-01 0.  0.
         14    1    1    2    0    0 -0.59443563167E-02  0.56741656733E-02 -0.11391965168E-01  0.14046650793E-01  0.00000000000E+00 0.  1.
     999901    1    3    3    0    0 -0.69766752431E-02 -0.12922574576E+00 -0.34532523399E-01  0.89013508106E+00  0.88000000000E+00 0. -1.
        -11    1    4    4    0    0  0.18721135282E-01  0.17291600932E-01  0.10781034445E-01  0.27676202661E-01  0.51100000000E-03 0. -1.
         11    1    4    4    0    0 -0.58001037220E-02  0.10625997916E+00  0.35143454122E-01  0.11207206548E+00  0.51100000000E-03 0.  1.
</event>
<event>
 8    1  0.2959109E+004  0.1043930E+01  0.7957747E-01            NaN
         13   -1    0    0    0    0  0.00000000000E+00  0.00000000000E+00  0.74505805969E-08  0.10566000000E+00  0.10566000000E+00 0.  1.
     999900   -1    0    0    0    0 -0.00000000000E+00 -0.00000000000E+00 -0.74505805969E-08  0.93827000000E+00  0.93827000000E+00 0.  1.
     999902    2    1    2    0    0 -0.62452607785E-02 -0.12319915358E-01 -0.14757868268E-02  0.10300389402E+01  0.10299452688E+01 0.  0.
     999903    2    3    3    0    0 -0.57877036612E-01 -0.86004154052E-01  0.84183432434E-01  0.14131361187E+00  0.46219267863E-01 0.  0.
         14    1    1    2    0    0  0.62452607785E-02  0.12319915358E-01  0.14757868268E-02  0.13891059836E-01  0.00000000000E+00 0.  1.
     999901    1    3    3    0    0  0.51631775834E-01  0.73684238695E-01 -0.85659219261E-01  0.88872532829E+00  0.88000000000E+00 0. -1.
        -11    1    4    4    0    0 -0.14976839643E-01 -0.59744825431E-01  0.34439688627E-01  0.70569846005E-01  0.51100000000E-03 0. -1.
         11    1    4    4    0    0 -0.42900196969E-01 -0.26259328622E-01  0.49743743807E-01  0.70743765864E-01  0.51100000000E-03 0.  1.
</event>
<event>
 8    1  0.2959109E+004  0.1043930E+01  0.7957747E-01            NaN
         13   -1    0    0    0    0  0.00000000000E+00  0.00000000000E+00  0.74505805969E-08  0.10566000000E+00  0.10566000000E+00 0. -1.
     999900   -1    0    0    0    0 -0.00000000000E+00 -0.00000000000E+00 -0.74505805969E-08  0.93827000000E+00  0.93827000000E+00 0. -1.
     999902    2    1    2    0    0  0.60495960092E-02 -0.80535349115E-02 -0.97364865533E-02  0.10299208527E+01  0.10298255710E+01 0.  0.
     999903    2    3    3    0    0 -0.98086993452E-02  0.88448542581E-01  0.95310149409E-01  0.13829372652E+00  0.46062728392E-01 0.  0.
         14    1    1    2    0    0 -0.60495960092E-02  0.80535349115E-02  0.97364865533E-02  0.14009147256E-01  0.00000000000E+00 0.  1.
     999901    1    3    3    0    0  0.15858295354E-01 -0.96502077492E-01 -0.10504663596E+00  0.89162712622E+00  0.88000000000E+00 0. -1.
        -11    1    4    4    0    0  0.89406891792E-03  0.62499731425E-02  0.35535834462E-01  0.36095957882E-01  0.51100000000E-03 0. -1.
         11    1    4    4    0    0 -0.10702768263E-01  0.82198569438E-01  0.59774314947E-01  0.10219776864E+00  0.51100000000E-03 0.  1.
</event>
<event>
 8    1  0.2959109E+004  0.1043930E+01  0.7957747E-01            NaN
         13   -1    0    0    0    0  0.00000000000E+00  0.00000000000E+00  0.74505805969E-08  0.10566000000E+00  0.10566000000E+00 0.  1.
     999900   -1    0    0    0    0 -0.00000000000E+00 -0.00000000000E+00 -0.74505805969E-08  0.93827000000E+00  0.93827000000E+00 0. -1.
     999902    2    1    2    0    0  0.15012624715E-01 -0.10145972296E-02  0.11042819757E-01  0.10252658050E+01  0.10250959070E+01 0.  0.
     999903    2    3    3    0    0 -0.32716618135E-01  0.39004214826E-02 -0.12167144130E+00  0.13402211599E+00  0.45523593424E-01 0.  0.
         14    1    1    2    0    0 -0.15012624715E-01  0.10145972296E-02 -0.11042819757E-01  0.18664195042E-01  0.00000000000E+00 0. -1.
     999901    1    3    3    0    0  0.47729242851E-01 -0.49150187122E-02  0.13271426105E+00  0.89124368896E+00  0.88000000000E+00 0.  1.
        -11    1    4    4    0    0 -0.18206077193E-01 -0.19587974772E-01 -0.76910699083E-01  0.81428906150E-01  0.51100000000E-03 0.  1.
         11    1    4    4    0    0 -0.14510540943E-01  0.23488396255E-01 -0.44760742214E-01  0.52593209843E-01  0.51100000000E-03 0. -1.
</event>
<event>
 8    1  0.2959109E+004  0.1043930E+01  0.7957747E-01            NaN
         13   -1    0    0    0    0  0.00000000000E+00  0.00000000000E+00  0.74505805969E-08  0.10566000000E+00  0.10566000000E+00 0. -1.
     999900   -1    0    0    0    0 -0.00000000000E+00 -0.00000000000E+00 -0.74505805969E-08  0.93827000000E+00  0.93827000000E+00 0. -1.
     999902    2    1    2    0    0 -0.78752992473E-02  0.72289038219E-02  0.85495015428E-02  0.10302416339E+01  0.10301506943E+01 0.  0.
     999903    2    3    3    0    0  0.11157910067E+00  0.17042388098E-01  0.66860296431E-01  0.14020466452E+00  0.49464229678E-01 0.  0.
         14    1    1    2    0    0  0.78752992473E-02 -0.72289038219E-02 -0.85495015428E-02  0.13688366058E-01  0.00000000000E+00 0.  1.
     999901    1    3    3    0    0 -0.11945439991E+00 -0.98134842761E-02 -0.58310794888E-01  0.89003696942E+00  0.88000000000E+00 0. -1.
        -11    1    4    4    0    0  0.81470354202E-01  0.22577853429E-01  0.24656829657E-01  0.88064740100E-01  0.51100000000E-03 0. -1.
         11    1    4    4    0    0  0.30108746464E-01 -0.55354653308E-02  0.42203466774E-01  0.52139924423E-01  0.51100000000E-03 0.  1.
</event>
<event>
 8    1  0.2959109E+004  0.1043930E+01  0.7957747E-01            NaN
         13   -1    0    0    0    0  0.00000000000E+00  0.00000000000E+00  0.74505805969E-08  0.10566000000E+00  0.10566000000E+00 0.  1.
     999900   -1    0    0    0    0 -0.00000000000E+00 -0.00000000000E+00 -0.74505805969E-08  0.93827000000E+00  0.93827000000E+00 0. -1.
     999902    2    1    2    0    0  0.11479358732E-01  0.29325906023E-02 -0.64956828307E-02  0.10304181659E+01  0.10303295720E+01 0.  0.
     999903    2    3    3    0    0 -0.57917801919E-01  0.88844077787E-01 -0.79967748228E-01  0.14047721624E+00  0.45730357414E-01 0.  0.
         14    1    1    2    0    0 -0.11479358732E-01 -0.29325906023E-02  0.64956828307E-02  0.13511834072E-01  0.00000000000E+00 0. -1.
     999901    1    3    3    0    0  0.69397160652E-01 -0.85911487184E-01  0.73472065397E-01  0.88994094969E+00  0.88000000000E+00 0.  1.
        -11    1    4    4    0    0 -0.31442192121E-01  0.19429301793E-01 -0.45370816895E-01  0.58522485937E-01  0.51100000000E-03 0. -1.
         11    1    4    4    0    0 -0.26475609799E-01  0.69414775994E-01 -0.34596931332E-01  0.81954730304E-01  0.51100000000E-03 0.  1.
</event>
<event>
 8    1  0.2959109E+004  0.1043930E+01  0.7957747E-01            NaN
         13   -1    0    0    0    0  0.00000000000E+00  0.00000000000E+00  0.74505805969E-08  0.10566000000E+00  0.10566000000E+00 0.  1.
     999900   -1    0    0    0    0 -0.00000000000E+00 -0.00000000000E+00 -0.74505805969E-08  0.93827000000E+00  0.93827000000E+00 0. -1.
     999902    2    1    2    0    0  0.32031348762E-02 -0.16958354832E-01  0.16833122819E-01  0.10198219122E+01  0.10195369208E+01 0.  0.
     999903    2    3    3    0    0  0.11286998347E+00  0.92961617327E-02  0.49138465110E-01  0.13203829420E+00  0.46834502130E-01 0.  0.
         14    1    1    2    0    0 -0.32031348762E-02  0.16958354832E-01 -0.16833122819E-01  0.24108087761E-01  0.00000000000E+00 0. -1.
     999901    1    3    3    0    0 -0.10966684860E+00 -0.26254516565E-01 -0.32305342290E-01  0.88778361804E+00  0.88000000000E+00 0. -1.
        -11    1    4    4    0    0  0.34928173777E-02  0.10740744018E-01 -0.16662049840E-02  0.11428067000E-01  0.51100000000E-03 0. -1.
         11    1    4    4    0    0  0.10937716609E+00 -0.14445822855E-02  0.50804670094E-01  0.12061022720E+00  0.51100000000E-03 0.  1.
</event>
<event>
 8    1  0.2959109E+004  0.1043930E+01  0.7957747E-01            NaN
         13   -1    0    0    0    0  0.00000000000E+00  0.00000000000E+00  0.74505805969E-08  0.10566000000E+00  0.10566000000E+00 0.  1.
     999900   -1    0    0    0    0 -0.00000000000E+00 -0.00000000000E+00 -0.74505805969E-08  0.93827000000E+00  0.93827000000E+00 0. -1.
     999902    2    1    2    0    0 -0.99917209609E-02  0.94600425599E-02  0.25994460530E-02  0.10299269999E+01  0.10298318023E+01 0.  0.
     999903    2    3    3    0    0  0.18940361385E-01  0.13093337210E+00  0.17888519606E-01  0.14098009991E+00  0.45311193062E-01 0.  0.
         14    1    1    2    0    0  0.99917209609E-02 -0.94600425599E-02 -0.25994460530E-02  0.14003000135E-01  0.00000000000E+00 0. -1.
     999901    1    3    3    0    0 -0.28932082346E-01 -0.12147332954E+00 -0.15289073553E-01  0.88894689996E+00  0.88000000000E+00 0. -1.
        -11    1    4    4    0    0 -0.38937035474E-02  0.10564062899E+00  0.15110273132E-01  0.10678803723E+00  0.51100000000E-03 0. -1.
         11    1    4    4    0    0  0.22834064933E-01  0.25292743110E-01  0.27782464734E-02  0.34192062673E-01  0.51100000000E-03 0.  1.
</event>
<event>
 8    1  0.2959109E+004  0.1043930E+01  0.7957747E-01            NaN
         13   -1    0    0    0    0  0.00000000000E+00  0.00000000000E+00  0.74505805969E-08  0.10566000000E+00  0.10566000000E+00 0.  1.
     999900   -1    0    0    0    0 -0.00000000000E+00 -0.00000000000E+00 -0.74505805969E-08  0.93827000000E+00  0.93827000000E+00 0. -1.
     999902    2    1    2    0    0  0.37982902698E-02  0.44530781058E-04 -0.13638149937E-01  0.10297727359E+01  0.10296754147E+01 0.  0.
     999903    2    3    3    0    0  0.12237602167E+00  0.49481985957E-01  0.10005347368E-01  0.14013024858E+00  0.45956740257E-01 0.  0.
         14    1    1    2    0    0 -0.37982902698E-02 -0.44530781058E-04  0.13638149937E-01  0.14157264060E-01  0.00000000000E+00 0.  1.
     999901    1    3    3    0    0 -0.11857773140E+00 -0.49437455176E-01 -0.23643497306E-01  0.88964248736E+00  0.88000000000E+00 0.  1.
        -11    1    4    4    0    0  0.90378143544E-02  0.18068246743E-01  0.99325738832E-02  0.22518009983E-01  0.51100000000E-03 0. -1.
         11    1    4    4    0    0  0.11333820732E+00  0.31413739214E-01  0.72773485330E-04  0.11761223859E+00  0.51100000000E-03 0.  1.
</event>
<event>
 8    1  0.2959109E+004  0.1043930E+01  0.7957747E-01            NaN
         13   -1    0    0    0    0  0.00000000000E+00  0.00000000000E+00  0.74505805969E-08  0.10566000000E+00  0.10566000000E+00 0.  1.
     999900   -1    0    0    0    0 -0.00000000000E+00 -0.00000000000E+00 -0.74505805969E-08  0.93827000000E+00  0.93827000000E+00 0. -1.
     999902    2    1    2    0    0 -0.86540708120E-02 -0.10850321113E-01  0.95940623788E-03  0.10300180314E+01  0.10299240759E+01 0.  0.
     999903    2    3    3    0    0  0.48637857484E-01  0.87312356465E-01  0.84914123217E-01  0.13874553053E+00  0.45286037003E-01 0.  0.
         14    1    1    2    0    0  0.86540708120E-02  0.10850321113E-01 -0.95940623788E-03  0.13911968595E-01  0.00000000000E+00 0.  1.
     999901    1    3    3    0    0 -0.57291928296E-01 -0.98162677578E-01 -0.83954716979E-01  0.89127250088E+00  0.88000000000E+00 0. -1.
        -11    1    4    4    0    0  0.39625968501E-01  0.34608759603E-01  0.24413428924E-01  0.58002243523E-01  0.51100000000E-03 0. -1.
         11    1    4    4    0    0  0.90118889829E-02  0.52703596862E-01  0.60500694294E-01  0.80743287004E-01  0.51100000000E-03 0.  1.
</event>
<event>
 8    1  0.2959109E+004  0.1043930E+01  0.7957747E-01            NaN
         13   -1    0    0    0    0  0.00000000000E+00  0.00000000000E+00  0.74505805969E-08  0.10566000000E+00  0.10566000000E+00 0.  1.
     999900   -1    0    0    0    0 -0.00000000000E+00 -0.00000000000E+00 -0.74505805969E-08  0.93827000000E+00  0.93827000000E+00 0. -1.
     999902    2    1    2    0    0  0.77753456861E-02  0.10206901783E-01  0.44839342861E-02  0.10303379983E+01  0.10302483430E+01 0.  0.
     999903    2    3    3    0    0 -0.12977947524E+00 -0.40978704306E-02 -0.21079014883E-01  0.13917055068E+00  0.45438008014E-01 0.  0.
         14    1    1    2    0    0 -0.77753456861E-02 -0.10206901783E-01 -0.44839342861E-02  0.13592001737E-01  0.00000000000E+00 0. -1.
     999901    1    3    3    0    0  0.13755482092E+00  0.14304772213E-01  0.25562949169E-01  0.89116744759E+00  0.88000000000E+00 0. -1.
        -11    1    4    4    0    0 -0.47731341791E-01 -0.15228665081E-01  0.93228503901E-02  0.50964398257E-01  0.51100000000E-03 0.  1.
         11    1    4    4    0    0 -0.82048133446E-01  0.11130794650E-01 -0.30401865273E-01  0.88206152419E-01  0.51100000000E-03 0. -1.
</event>
<event>
 8    1  0.2959109E+004  0.1043930E+01  0.7957747E-01            NaN
         13   -1    0    0    0    0  0.00000000000E+00  0.00000000000E+00  0.74505805969E-08  0.10566000000E+00  0.10566000000E+00 0. -1.
     999900   -1    0    0    0    0 -0.00000000000E+00 -0.00000000000E+00 -0.74505805969E-08  0.93827000000E+00  0.93827000000E+00 0.  1.
     999902    2    1    2    0    0 -0.79895307478E-02 -0.23627425587E-02 -0.12506276125E-01  0.10289026218E+01  0.10287928766E+01 0.  0.
     999903    2    3    3    0    0  0.11874291959E+00 -0.16238842956E-01 -0.46014268301E-01  0.13908441243E+00  0.53512427725E-01 0.  0.
         14    1    1    2    0    0  0.79895307478E-02  0.23627425587E-02  0.12506276125E-01  0.15027378230E-01  0.00000000000E+00 0. -1.
     999901    1    3    3    0    0 -0.12673245034E+00  0.13876100397E-01  0.33507992176E-01  0.88981820934E+00  0.88000000000E+00 0.  1.
        -11    1    4    4    0    0  0.71451348209E-01 -0.35959783869E-01 -0.26880796349E-01  0.84387437158E-01  0.51100000000E-03 0.  1.
         11    1    4    4    0    0  0.47291571380E-01  0.19720940913E-01 -0.19133471952E-01  0.54696975273E-01  0.51100000000E-03 0. -1.
</event>
<event>
 8    1  0.2959109E+004  0.1043930E+01  0.7957747E-01            NaN
         13   -1    0    0    0    0  0.00000000000E+00  0.00000000000E+00  0.74505805969E-08  0.10566000000E+00  0.10566000000E+00 0. -1.
     999900   -1    0    0    0    0 -0.00000000000E+00 -0.00000000000E+00 -0.74505805969E-08  0.93827000000E+00  0.93827000000E+00 0.  1.
     999902    2    1    2    0    0  0.32721074539E-02 -0.35761267736E-02  0.12996856728E-01  0.10300586751E+01  0.10299652715E+01 0.  0.
     999903    2    3    3    0    0 -0.96291418748E-01  0.86513085313E-01  0.26491565076E-01  0.13977160395E+00  0.45582310128E-01 0.  0.
         14    1    1    2    0    0 -0.32721074539E-02  0.35761267736E-02 -0.12996856728E-01  0.13871324908E-01  0.00000000000E+00 0.  1.
     999901    1    3    3    0    0  0.99563526202E-01 -0.90089212086E-01 -0.13494708348E-01  0.89028707114E+00  0.88000000000E+00 0.  1.
        -11    1    4    4    0    0 -0.61065681267E-01  0.77688844217E-01  0.83348407221E-02  0.99168062577E-01  0.51100000000E-03 0.  1.
         11    1    4    4    0    0 -0.35225737481E-01  0.88242410953E-02  0.18156724354E-01  0.40603541376E-01  0.51100000000E-03 0. -1.
</event>
<event>
 8    1  0.2959109E+004  0.1043930E+01  0.7957747E-01            NaN
         13   -1    0    0    0    0  0.00000000000E+00  0.00000000000E+00  0.74505805969E-08  0.10566000000E+00  0.10566000000E+00 0. -1.
     999900   -1    0    0    0    0 -0.00000000000E+00 -0.00000000000E+00 -0.74505805969E-08  0.93827000000E+00  0.93827000000E+00 0.  1.
     999902    2    1    2    0    0  0.13872993709E-01 -0.31098348386E-04  0.14507973568E-02  0.10299813178E+01  0.10298868624E+01 0.  0.
     999903    2    3    3    0    0  0.41714387009E-01 -0.13697309169E-01 -0.12141305502E+00  0.14090458619E+00  0.56438161903E-01 0.  0.
         14    1    1    2    0    0 -0.13872993709E-01  0.31098348386E-04 -0.14507973568E-02  0.13948682178E-01  0.00000000000E+00 0.  1.
     999901    1    3    3    0    0 -0.27841393301E-01  0.13666210821E-01  0.12286385238E+00  0.88907673163E+00  0.88000000000E+00 0. -1.
        -11    1    4    4    0    0 -0.10246076163E-01 -0.14047549941E-02 -0.53604965446E-01  0.54595868477E-01  0.51100000000E-03 0.  1.
         11    1    4    4    0    0  0.51960463172E-01 -0.12292554175E-01 -0.67808089576E-01  0.86308717718E-01  0.51100000000E-03 0. -1.
</event>
<event>
 8    1  0.2959109E+004  0.1043930E+01  0.7957747E-01            NaN
         13   -1    0    0    0    0  0.00000000000E+00  0.00000000000E+00  0.74505805969E-08  0.10566000000E+00  0.10566000000E+00 0.  1.
     999900   -1    0    0    0    0 -0.00000000000E+00 -0.00000000000E+00 -0.74505805969E-08  0.93827000000E+00  0.93827000000E+00 0.  1.
     999902    2    1    2    0    0 -0.35434853274E-02 -0.56466154277E-02  0.12611471470E-01  0.10296650161E+01  0.10295661977E+01 0.  0.
     999903    2    3    3    0    0 -0.11630109275E+00  0.51809326170E-02  0.66473397653E-01  0.14077097237E+00  0.42953088687E-01 0.  0.
         14    1    1    2    0    0  0.35434853274E-02  0.56466154277E-02 -0.12611471470E-01  0.14264983936E-01  0.00000000000E+00 0. -1.
     999901    1    3    3    0    0  0.11275760742E+00 -0.10827548045E-01 -0.53861926183E-01  0.88889404370E+00  0.88000000000E+00 0.  1.
        -11    1    4    4    0    0 -0.46249997336E-01 -0.14755212665E-01  0.41204240909E-01  0.63677540344E-01  0.51100000000E-03 0.  1.
         11    1    4    4    0    0 -0.70051095415E-01  0.19936145282E-01  0.25269156743E-01  0.77093432023E-01  0.51100000000E-03 0. -1.
</event>
<event>
 8    1  0.2959109E+004  0.1043930E+01  0.7957747E-01            NaN
         13   -1    0    0    0    0  0.00000000000E+00  0.00000000000E+00  0.74505805969E-08  0.10566000000E+00  0.10566000000E+00 0.  1.
     999900   -1    0    0    0    0 -0.00000000000E+00 -0.00000000000E+00 -0.74505805969E-08  0.93827000000E+00  0.93827000000E+00 0.  1.
     999902    2    1    2    0    0 -0.53171329530E-02  0.10791520500E-01 -0.73081677872E-02  0.10298538452E+01  0.10297576435E+01 0.  0.
     999903    2    3    3    0    0 -0.37034968479E-01  0.12811496203E+00 -0.10472379993E-01  0.14149534591E+00  0.46111059243E-01 0.  0.
         14    1    1    2    0    0  0.53171329530E-02 -0.10791520500E-01  0.73081677872E-02  0.14076154800E-01  0.00000000000E+00 0.  1.
     999901    1    3    3    0    0  0.31717835526E-01 -0.11732344153E+00  0.31642122059E-02  0.88835849929E+00  0.88000000000E+00 0. -1.
        -11    1    4    4    0    0 -0.10503078287E-01  0.49125360951E-01  0.18108301561E-01  0.53402129625E-01  0.51100000000E-03 0.  1.
         11    1    4    4    0    0 -0.26531890193E-01  0.78989601081E-01 -0.28580681555E-01  0.88093216284E-01  0.51100000000E-03 0. -1.
</event>
<event>
 8    1  0.2959109E+004  0.1043930E+01  0.7957747E-01            NaN
         13   -1    0    0    0    0  0.00000000000E+00  0.00000000000E+00  0.74505805969E-08  0.10566000000E+00  0.10566000000E+00 0.  1.
     999900   -1    0    0    0    0 -0.00000000000E+00 -0.00000000000E+00 -0.74505805969E-08  0.93827000000E+00  0.93827000000E+00 0.  1.
     999902    2    1    2    0    0 -0.71171101314E-02 -0.12728208931E-01 -0.81616926951E-03  0.10293242925E+01  0.10292206627E+01 0.  0.
     999903    2    3    3    0    0 -0.43882100497E-01 -0.12622045382E+00 -0.30558008000E-02  0.14127183340E+00  0.45729107665E-01 0.  0.
         14    1    1    2    0    0  0.71171101314E-02  0.12728208931E-01  0.81616926951E-03  0.14605707497E-01  0.00000000000E+00 0.  1.
     999901    1    3    3    0    0  0.36764990366E-01  0.11349224489E+00  0.22396315305E-02  0.88805245910E+00  0.88000000000E+00 0. -1.
        -11    1    4    4    0    0 -0.49463496693E-01 -0.83264902135E-01  0.59245243379E-02  0.97031142126E-01  0.51100000000E-03 0. -1.
         11    1    4    4    0    0  0.55813961959E-02 -0.42955551684E-01 -0.89803251378E-02  0.44240691276E-01  0.51100000000E-03 0.  1.
</event>
<event>
 8    1  0.2959109E+004  0.1043930E+01  0.7957747E-01            NaN
         13   -1    0    0    0    0  0.00000000000E+00  0.00000000000E+00  0.74505805969E-08  0.10566000000E+00  0.10566000000E+00 0. -1.
     999900   -1    0    0    0    0 -0.00000000000E+00 -0.00000000000E+00 -0.74505805969E-08  0.93827000000E+00  0.93827000000E+00 0. -1.
     999902    2    1    2    0    0 -0.66883037852E-02  0.90921382797E-02  0.79871971235E-02  0.10301026465E+01  0.10300098382E+01 0.  0.
     999903    2    3    3    0    0  0.23185555600E-01  0.10438309028E+00 -0.76019954685E-01  0.14047912247E+00  0.50219028426E-01 0.  0.
         14    1    1    2    0    0  0.66883037852E-02 -0.90921382797E-02 -0.79871971235E-02  0.13827353467E-01  0.00000000000E+00 0.  1.
     999901    1    3    3    0    0 -0.29873859385E-01 -0.95290951997E-01  0.84007151808E-01  0.88962352406E+00  0.88000000000E+00 0.  1.
        -11    1    4    4    0    0  0.25951109261E-01  0.75407416468E-01 -0.77667848263E-01  0.11132068229E+00  0.51100000000E-03 0.  1.
         11    1    4    4    0    0 -0.27655536617E-02  0.28975673809E-01  0.16478935782E-02  0.29158440184E-01  0.51100000000E-03 0. -1.
</event>
<event>
 8    1  0.2959109E+004  0.1043930E+01  0.7957747E-01            NaN
         13   -1    0    0    0    0  0.00000000000E+00  0.00000000000E+00  0.74505805969E-08  0.10566000000E+00  0.10566000000E+00 0.  1.
     999900   -1    0    0    0    0 -0.00000000000E+00 -0.00000000000E+00 -0.74505805969E-08  0.93827000000E+00  0.93827000000E+00 0.  1.
     999902    2    1    2    0    0 -0.13513464180E-01 -0.13255458166E-02  0.67844417129E-02  0.10287510858E+01  0.10286390996E+01 0.  0.
     999903    2    3    3    0    0  0.61990213768E-01  0.11466487695E+00 -0.35610804861E-03  0.13790566097E+00  0.45022482227E-01 0.  0.
         14    1    1    2    0    0  0.13513464180E-01  0.13255458166E-02 -0.67844417129E-02  0.15178914164E-01  0.00000000000E+00 0. -1.
     999901    1    3    3    0    0 -0.75503677948E-01 -0.11599042276E+00  0.71405497615E-02  0.89084542487E+00  0.88000000000E+00 0.  1.
        -11    1    4    4    0    0  0.64627667796E-01  0.88909021655E-01 -0.97732259305E-02  0.11035092497E+00  0.51100000000E-03 0. -1.
         11    1    4    4    0    0 -0.26374540270E-02  0.25755855292E-01  0.94171178819E-02  0.27554735995E-01  0.51100000000E-03 0.  1.
</event>
<event>
 8    1  0.2959109E+004  0.1043930E+01  0.7957747E-01            NaN
         13   -1    0    0    0    0  0.00000000000E+00  0.00000000000E+00  0.74505805969E-08  0.10566000000E+00  0.10566000000E+00 0.  1.
     999900   -1    0    0    0    0 -0.00000000000E+00 -0.00000000000E+00 -0.74505805969E-08  0.93827000000E+00  0.93827000000E+00 0.  1.
     999902    2    1    2    0    0  0.10424482480E-02  0.12154942771E-01  0.55714190955E-02  0.10305184362E+01  0.10304311609E+01 0.  0.
     999903    2    3    3    0    0 -0.47621593806E-01  0.93769629992E-01  0.84246466725E-01  0.14191340063E+00  0.44512766918E-01 0.  0.
         14    1    1    2    0    0 -0.10424482480E-02 -0.12154942771E-01 -0.55714190955E-02  0.13411563774E-01  0.00000000000E+00 0. -1.
     999901    1    3    3    0    0  0.48664042054E-01 -0.81614687220E-01 -0.78675047629E-01  0.88860503559E+00  0.88000000000E+00 0.  1.
        -11    1    4    4    0    0 -0.21836291108E-01  0.18722837448E-01  0.44934845696E-01  0.53355128434E-01  0.51100000000E-03 0. -1.
         11    1    4    4    0    0 -0.25785302698E-01  0.75046792543E-01  0.39311621029E-01  0.88558272201E-01  0.51100000000E-03 0.  1.
</event>
<event>
 8    1  0.2959109E+004  0.1043930E+01  0.7957747E-01            NaN
         13   -1    0    0    0    0  0.00000000000E+00  0.00000000000E+00  0.74505805969E-08  0.10566000000E+00  0.10566000000E+00 0.  1.
     999900   -1    0    0    0    0 -0.00000000000E+00 -0.00000000000E+00 -0.74505805969E-08  0.93827000000E+00  0.93827000000E+00 0.  1.
     999902    2    1    2    0    0  0.13720957625E-01 -0.70104445098E-04  0.79979292033E-03  0.10301855734E+01  0.10300938824E+01 0.  0.
     999903    2    3    3    0    0 -0.51121911089E-01 -0.10188841895E-01 -0.12118452797E+00  0.13935048151E+00  0.44895485111E-01 0.  0.
         14    1    1    2    0    0 -0.13720957625E-01  0.70104445098E-04 -0.79979292033E-03  0.13744426561E-01  0.00000000000E+00 0. -1.
     999901    1    3    3    0    0  0.64842868715E-01  0.10118737450E-01  0.12198432090E+00  0.89083509193E+00  0.88000000000E+00 0. -1.
        -11    1    4    4    0    0 -0.31496899064E-02  0.12921835214E-01 -0.40897719842E-01  0.43009056966E-01  0.51100000000E-03 0.  1.
         11    1    4    4    0    0 -0.47972221183E-01 -0.23110677109E-01 -0.80286808133E-01  0.96341424542E-01  0.51100000000E-03 0. -1.
</event>
<event>
 8    1  0.2959109E+004  0.1043930E+01  0.7957747E-01            NaN
         13   -1    0    0    0    0  0.00000000000E+00  0.00000000000E+00  0.74505805969E-08  0.10566000000E+00  0.10566000000E+00 0.  1.
     999900   -1    0    0    0    0 -0.00000000000E+00 -0.00000000000E+00 -0.74505805969E-08  0.93827000000E+00  0.93827000000E+00 0. -1.
     999902    2    1    2    0    0 -0.24623657764E-02 -0.13681543754E-01  0.43078062990E-02  0.10293764753E+01  0.10292735899E+01 0.  0.
     999903    2    3    3    0    0 -0.59702483593E-01  0.14238889895E-01  0.11722059695E+00  0.13987926906E+00  0.45369692848E-01 0.  0.
         14    1    1    2    0    0  0.24623657764E-02  0.13681543754E-01 -0.43078062990E-02  0.14553524653E-01  0.00000000000E+00 0. -1.
     999901    1    3    3    0    0  0.57240117817E-01 -0.27920433650E-01 -0.11291279066E+00  0.88949720629E+00  0.88000000000E+00 0. -1.
        -11    1    4    4    0    0 -0.32407827908E-01 -0.99934589814E-02  0.29820388303E-01  0.45162519988E-01  0.51100000000E-03 0.  1.
         11    1    4    4    0    0 -0.27294655685E-01  0.24232348877E-01  0.87400208651E-01  0.94716749069E-01  0.51100000000E-03 0. -1.
</event>
<event>
 8    1  0.2959109E+004  0.1043930E+01  0.7957747E-01            NaN
         13   -1    0    0    0    0  0.00000000000E+00  0.00000000000E+00  0.74505805969E-08  0.10566000000E+00  0.10566000000E+00 0.  1.
     999900   -1    0    0    0    0 -0.00000000000E+00 -0.00000000000E+00 -0.74505805969E-08  0.93827000000E+00  0.93827000000E+00 0. -1.
     999902    2    1    2    0    0 -0.34067117223E-02  0.11757412512E-01 -0.49193508611E-02  0.10307374852E+01  0.10306530556E+01 0.  0.
     999903    2    3    3    0    0 -0.80548277067E-01  0.86098959539E-01 -0.65783377212E-01  0.14215326499E+00  0.44486427780E-01 0.  0.
         14    1    1    2    0    0  0.34067117223E-02 -0.11757412512E-01  0.49193508611E-02  0.13192514795E-01  0.00000000000E+00 0.  1.
     999901    1    3    3    0    0  0.77141565345E-01 -0.74341547027E-01  0.60864026351E-01  0.88858422022E+00  0.88000000000E+00 0.  1.
        -11    1    4    4    0    0 -0.39744647649E-01  0.46475147229E-01 -0.58817851926E-01  0.84849143501E-01  0.51100000000E-03 0.  1.
         11    1    4    4    0    0 -0.40803629418E-01  0.39623812310E-01 -0.69655252864E-02  0.57304121485E-01  0.51100000000E-03 0. -1.
</event>
<event>
 8    1  0.2959109E+004  0.1043930E+01  0.7957747E-01            NaN
         13   -1    0    0    0    0  0.00000000000E+00  0.00000000000E+00  0.74505805969E-08  0.10566000000E+00  0.10566000000E+00 0.  1.
     999900   -1    0    0    0    0 -0.00000000000E+00 -0.00000000000E+00 -0.74505805969E-08  0.93827000000E+00  0.93827000000E+00 0. -1.
     999902    2    1    2    0    0 -0.44764180264E-02  0.13066822885E-01 -0.30771519076E-02  0.10297790621E+01  0.10296818284E+01 0.  0.
     999903    2    3    3    0    0  0.52912282915E-01  0.18826388259E-02 -0.12154146995E+00  0.13991820581E+00  0.44738365947E-01 0.  0.
         14    1    1    2    0    0  0.44764180264E-02 -0.13066822885E-01  0.30771519076E-02  0.14150937867E-01  0.00000000000E+00 0.  1.
     999901    1    3    3    0    0 -0.57388700941E-01  0.11184184059E-01  0.11846431804E+00  0.88986085632E+00  0.88000000000E+00 0.  1.
        -11    1    4    4    0    0  0.36020502351E-01  0.16398081342E-01 -0.10487716098E+00  0.11209751861E+00  0.51100000000E-03 0.  1.
         11    1    4    4    0    0  0.16891780564E-01 -0.14515442516E-01 -0.16664308965E-01  0.27820687201E-01  0.51100000000E-03 0. -1.
</event>
<event>
 8    1  0.2959109E+004  0.1043930E+01  0.7957747E-01            NaN
         13   -1    0    0    0    0  0.00000000000E+00  0.00000000000E+00  0.74505805969E-08  0.10566000000E+00  0.10566000000E+00 0. -1.
     999900   -1    0    0    0    0 -0.00000000000E+00 -0.00000000000E+00 -0.74505805969E-08  0.93827000000E+00  0.93827000000E+00 0. -1.
     999902    2    1    2    0    0  0.54610573467E-02  0.71535423473E-02  0.10645564340E-01  0.10299899729E+01  0.10298956354E+01 0.  0.
     999903    2    3    3    0    0 -0.91035786892E-01  0.47297730979E-01 -0.82663602650E-01  0.13890647655E+00  0.44013045481E-01 0.  0.
         14    1    1    2    0    0 -0.54610573467E-02 -0.71535423473E-02 -0.10645564340E-01  0.13940027101E-01  0.00000000000E+00 0.  1.
     999901    1    3    3    0    0  0.96496844239E-01 -0.40144188632E-01  0.93309166990E-01  0.89108349635E+00  0.88000000000E+00 0.  1.
        -11    1    4    4    0    0 -0.43298678667E-01  0.60466583727E-02 -0.14592851843E-01  0.46092842153E-01  0.51100000000E-03 0. -1.
         11    1    4    4    0    0 -0.47737108225E-01  0.41251072607E-01 -0.68070750807E-01  0.92813634394E-01  0.51100000000E-03 0.  1.
</event>
<event>
 7    1  0.2959109E+004  0.1043930E+01  0.7957747E-01            NaN
         13   -1    0    0    0    0  0.00000000000E+00  0.00000000000E+00  0.74505805969E-08  0.10566000000E+00  0.10566000000E+00 0.  1.
     999900   -1    0    0    0    0 -0.00000000000E+00 -0.00000000000E+00 -0.74505805969E-08  0.93827000000E+00  0.93827000000E+00 0.  1.
     999902    2    1    2    0    0 -0.11364505610E-01 -0.58716549604E-02 -0.43462989944E-02  0.10304200542E+01  0.10303314853E+01 0.  0.
         14    1    1    2    0    0  0.11364505610E-01  0.58716549604E-02  0.43462989944E-02  0.13509945769E-01  0.00000000000E+00 0.  1.
     999901    1    3    3    0    0 -0.73196202630E-01  0.76914606352E-01 -0.71879220390E-01  0.88929194479E+00  0.88000000000E+00 0.  1.
        -11    1    3    3    0    0  0.67264288094E-01 -0.48644221801E-01  0.25791094415E-01  0.86926327655E-01  0.51100000000E-03 0. -1.
         11    1    3    3    0    0 -0.54325910739E-02 -0.34142039511E-01  0.41741826981E-01  0.54201781783E-01  0.51100000000E-03 0.  1.
</event>
<event>
 8    1  0.2959109E+004  0.1043930E+01  0.7957747E-01            NaN
         13   -1    0    0    0    0  0.00000000000E+00  0.00000000000E+00  0.74505805969E-08  0.10566000000E+00  0.10566000000E+00 0. -1.
     999900   -1    0    0    0    0 -0.00000000000E+00 -0.00000000000E+00 -0.74505805969E-08  0.93827000000E+00  0.93827000000E+00 0. -1.
     999902    2    1    2    0    0 -0.31246296976E-02 -0.12087032665E-01  0.19440681216E-02  0.10312951644E+01  0.10312177641E+01 0.  0.
     999903    2    3    3    0    0 -0.10487278378E+00 -0.39160367889E-01 -0.74370125000E-01  0.14173937167E+00  0.45025534939E-01 0.  0.
         14    1    1    2    0    0  0.31246296976E-02  0.12087032665E-01 -0.19440681216E-02  0.12634835585E-01  0.00000000000E+00 0.  1.
     999901    1    3    3    0    0  0.10174815409E+00  0.27073335224E-01  0.76314193121E-01  0.88955579275E+00  0.88000000000E+00 0.  1.
        -11    1    4    4    0    0 -0.65381225171E-01 -0.45057238838E-01 -0.59109026303E-01  0.98989885787E-01  0.51100000000E-03 0. -1.
         11    1    4    4    0    0 -0.39491558612E-01  0.58968709495E-02 -0.15261098697E-01  0.42749485881E-01  0.51100000000E-03 0.  1.
</event>
<event>
 8    1  0.2959109E+004  0.1043930E+01  0.7957747E-01            NaN
         13   -1    0    0    0    0  0.00000000000E+00  0.00000000000E+00  0.74505805969E-08  0.10566000000E+00  0.10566000000E+00 0.  1.
     999900   -1    0    0    0    0 -0.00000000000E+00 -0.00000000000E+00 -0.74505805969E-08  0.93827000000E+00  0.93827000000E+00 0. -1.
     999902    2    1    2    0    0 -0.93976867921E-02  0.10288084686E-01  0.23335347171E-02  0.10298017804E+01  0.10297048608E+01 0.  0.
     999903    2    3    3    0    0  0.61392975076E-01 -0.41641895607E-01  0.10856657032E+00  0.13907539231E+00  0.45300327781E-01 0.  0.
         14    1    1    2    0    0  0.93976867921E-02 -0.10288084686E-01 -0.23335347171E-02  0.14128219556E-01  0.00000000000E+00 0.  1.
     999901    1    3    3    0    0 -0.70790661869E-01  0.51929980293E-01 -0.10623303560E+00  0.89072638813E+00  0.88000000000E+00 0. -1.
        -11    1    4    4    0    0  0.38745153809E-01 -0.47143460261E-01  0.92299688064E-01  0.11064893279E+00  0.51100000000E-03 0.  1.
         11    1    4    4    0    0  0.22647821267E-01  0.55015646541E-02  0.16266882257E-01  0.28426459526E-01  0.51100000000E-03 0. -1.
</event>
<event>
 8    1  0.2959109E+004  0.1043930E+01  0.7957747E-01            NaN
         13   -1    0    0    0    0  0.00000000000E+00  0.00000000000E+00  0.74505805969E-08  0.10566000000E+00  0.10566000000E+00 0.  1.
     999900   -1    0    0    0    0 -0.00000000000E+00 -0.00000000000E+00 -0.74505805969E-08  0.93827000000E+00  0.93827000000E+00 0.  1.
     999902    2    1    2    0    0 -0.67782721366E-02 -0.12412024821E-01 -0.10286715987E-02  0.10297503844E+01  0.10296527534E+01 0.  0.
     999903    2    3    3    0    0 -0.67320839690E-01  0.11024599193E+00  0.22308945610E-01  0.13887719705E+00  0.45857525162E-01 0.  0.
         14    1    1    2    0    0  0.67782721366E-02  0.12412024821E-01  0.10286715987E-02  0.14179615601E-01  0.00000000000E+00 0. -1.
     999901    1    3    3    0    0  0.60542567553E-01 -0.12265801675E+00 -0.23337617208E-01  0.89087318735E+00  0.88000000000E+00 0.  1.
        -11    1    4    4    0    0 -0.45425730661E-02  0.34883253327E-01  0.20614797067E-01  0.40776308218E-01  0.51100000000E-03 0.  1.
         11    1    4    4    0    0 -0.62778266624E-01  0.75362738600E-01  0.16941485425E-02  0.98100888833E-01  0.51100000000E-03 0. -1.
</event>
<event>
 8    1  0.2959109E+004  0.1043930E+01  0.7957747E-01            NaN
         13   -1    0    0    0    0  0.00000000000E+00  0.00000000000E+00  0.74505805969E-08  0.10566000000E+00  0.10566000000E+00 0. -1.
     999900   -1    0    0    0    0 -0.00000000000E+00 -0.00000000000E+00 -0.74505805969E-08  0.93827000000E+00  0.93827000000E+00 0.  1.
     999902    2    1    2    0    0 -0.37000886675E-02 -0.99672739417E-02  0.61525028932E-02  0.10316462507E+01  0.10315731171E+01 0.  0.
     999903    2    3    3    0    0  0.30826692410E-01 -0.51081499733E-01  0.12144386823E+00  0.14250364281E+00  0.44710966257E-01 0.  0.
         14    1    1    2    0    0  0.37000886675E-02  0.99672739417E-02 -0.61525028932E-02  0.12283749339E-01  0.00000000000E+00 0.  1.
     999901    1    3    3    0    0 -0.34526781078E-01  0.41114225791E-01 -0.11529136534E+00  0.88914260785E+00  0.88000000000E+00 0.  1.
        -11    1    4    4    0    0  0.58820903638E-02 -0.48685197175E-01  0.87533257464E-01  0.10033533622E+00  0.51100000000E-03 0. -1.
         11    1    4    4    0    0  0.24944602047E-01 -0.23963025578E-02  0.33910610766E-01  0.42168306591E-01  0.51100000000E-03 0.  1.
</event>
<event>
 8    1  0.2959109E+004  0.1043930E+01  0.7957747E-01            NaN
         13   -1    0    0    0    0  0.00000000000E+00  0.00000000000E+00  0.74505805969E-08  0.10566000000E+00  0.10566000000E+00 0.  1.
     999900   -1    0    0    0    0 -0.00000000000E+00 -0.00000000000E+00 -0.74505805969E-08  0.93827000000E+00  0.93827000000E+00 0. -1.
     999902    2    1    2    0    0 -0.43619513975E-02 -0.12136989609E-01 -0.52812459308E-02  0.10299935480E+01  0.10298992592E+01 0.  0.
     999903    2    3    3    0    0 -0.81836454766E-01  0.19413252140E-01 -0.10349778011E+00  0.14058688956E+00  0.44483742428E-01 0.  0.
         14    1    1    2    0    0  0.43619513975E-02  0.12136989609E-01  0.52812459308E-02  0.13936452036E-01  0.00000000000E+00 0. -1.
     999901    1    3    3    0    0  0.77474503369E-01 -0.31550241749E-01  0.98216534183E-01  0.88940665840E+00  0.88000000000E+00 0.  1.
        -11    1    4    4    0    0 -0.80845941302E-01  0.60224389463E-02 -0.94003401932E-01  0.12413394657E+00  0.51100000000E-03 0.  1.
         11    1    4    4    0    0 -0.99051346420E-03  0.13390813193E-01 -0.94943781814E-02  0.16452942988E-01  0.51100000000E-03 0. -1.
</event>
<event>
 8    1  0.2959109E+004  0.1043930E+01  0.7957747E-01            NaN
         13   -1    0    0    0    0  0.00000000000E+00  0.00000000000E+00  0.74505805969E-08  0.10566000000E+00  0.10566000000E+00 0. -1.
     999900   -1    0    0    0    0 -0.00000000000E+00 -0.00000000000E+00 -0.74505805969E-08  0.93827000000E+00  0.93827000000E+00 0. -1.
     999902    2    1    2    0    0 -0.13321360187E-01 -0.42410896500E-02  0.25558616869E-02  0.10297181068E+01  0.10296200278E+01 0.  0.
     999903    2    3    3    0    0  0.59566746155E-01 -0.93192427635E-01 -0.71623656526E-01  0.13914098074E+00  0.44690474741E-01 0.  0.
         14    1    1    2    0    0  0.13321360187E-01  0.42410896500E-02 -0.25558616869E-02  0.14211893175E-01  0.00000000000E+00 0. -1.
     999901    1    3    3    0    0 -0.72888106342E-01  0.88951337985E-01  0.74179518213E-01  0.89057712608E+00  0.88000000000E+00 0.  1.
        -11    1    4    4    0    0  0.18456501709E-02 -0.41932566111E-01 -0.22315009634E-01  0.47539113382E-01  0.51100000000E-03 0.  1.
         11    1    4    4    0    0  0.57721095984E-01 -0.51259861523E-01 -0.49308646892E-01  0.91601867363E-01  0.51100000000E-03 0. -1.
</event>
<event>
 8    1  0.2959109E+004  0.1043930E+01  0.7957747E-01            NaN
         13   -1    0    0    0    0  0.00000000000E+00  0.00000000000E+00  0.74505805969E-08  0.10566000000E+00  0.10566000000E+00 0.  1.
     999900   -1    0    0    0    0 -0.00000000000E+00 -0.00000000000E+00 -0.74505805969E-08  0.93827000000E+00  0.93827000000E+00 0.  1.
     999902    2    1    2    0    0  0.10133274572E-01 -0.64276690621E-02  0.49364252936E-02  0.10309543891E+01  0.10308727302E+01 0.  0.
     999903    2    3    3    0    0  0.38234196567E-01 -0.10192550566E+00  0.78767091847E-01  0.14226970604E+00  0.46752026764E-01 0.  0.
         14    1    1    2    0    0 -0.10133274572E-01  0.64276690621E-02 -0.49364252936E-02  0.12975610883E-01  0.00000000000E+00 0. -1.
     999901    1    3    3    0    0 -0.28100921995E-01  0.95497836602E-01 -0.73830666553E-01  0.88868468308E+00  0.88000000000E+00 0.  1.
        -11    1    4    4    0    0  0.13963663850E-02 -0.67497102818E-01  0.38339948216E-01  0.77640334093E-01  0.51100000000E-03 0. -1.
         11    1    4    4    0    0  0.36837830182E-01 -0.34428402846E-01  0.40427143630E-01  0.64629371946E-01  0.51100000000E-03 0.  1.
</event>
<event>
 8    1  0.2959109E+004  0.1043930E+01  0.7957747E-01            NaN
         13   -1    0    0    0    0  0.00000000000E+00  0.00000000000E+00  0.74505805969E-08  0.10566000000E+00  0.10566000000E+00 0. -1.
     999900   -1    0    0    0    0 -0.00000000000E+00 -0.00000000000E+00 -0.74505805969E-08  0.93827000000E+00  0.93827000000E+00 0. -1.
     999902    2    1    2    0    0 -0.68785927189E-02 -0.12196478700E-01 -0.11153234073E-02  0.10298831827E+01  0.10297873843E+01 0.  0.
     999903    2    3    3    0    0  0.66899537000E-01 -0.71994957258E-01 -0.89873464786E-01  0.14033437676E+00  0.44245629225E-01 0.  0.
         14    1    1    2    0    0  0.68785927189E-02  0.12196478700E-01  0.11153234073E-02  0.14046817318E-01  0.00000000000E+00 0.  1.
     999901    1    3    3    0    0 -0.73778129718E-01  0.59798478558E-01  0.88758141379E-01  0.88954880593E+00  0.88000000000E+00 0. -1.
        -11    1    4    4    0    0  0.49657918352E-01 -0.23817860381E-01 -0.34764451816E-01  0.65130849520E-01  0.51100000000E-03 0. -1.
         11    1    4    4    0    0  0.17241618647E-01 -0.48177096877E-01 -0.55109012971E-01  0.75203527236E-01  0.51100000000E-03 0.  1.
</event>
<event>
 8    1  0.2959109E+004  0.1043930E+01  0.7957747E-01            NaN
         13   -1    0    0    0    0  0.00000000000E+00  0.00000000000E+00  0.74505805969E-08  0.10566000000E+00  0.10566000000E+00 0.  1.
     999900   -1    0    0    0    0 -0.00000000000E+00 -0.00000000000E+00 -0.74505805969E-08  0.93827000000E+00  0.93827000000E+00 0. -1.
     999902    2    1    2    0    0 -0.84287292573E-02  0.86492830271E-02  0.75549527488E-02  0.10296846188E+01  0.10295860738E+01 0.  0.
     999903    2    3    3    0    0 -0.99405419568E-01 -0.83669116457E-01  0.26779545262E-01  0.13998296657E+00  0.44678052756E-01 0.  0.
         14    1    1    2    0    0  0.84287292573E-02 -0.86492830271E-02 -0.75549527488E-02  0.14245381175E-01  0.00000000000E+00 0. -1.
     999901    1    3    3    0    0  0.90976690310E-01  0.92318399484E-01 -0.19224592513E-01  0.88970165225E+00  0.88000000000E+00 0. -1.
        -11    1    4    4    0    0 -0.49818793119E-02  0.44931523112E-02  0.62387869163E-02  0.91755720452E-02  0.51100000000E-03 0.  1.
         11    1    4    4    0    0 -0.94423540256E-01 -0.88162268768E-01  0.20540758345E-01  0.13080739453E+00  0.51100000000E-03 0. -1.
</event>
<event>
 8    1  0.2959109E+004  0.1043930E+01  0.7957747E-01            NaN
         13   -1    0    0    0    0  0.00000000000E+00  0.00000000000E+00  0.74505805969E-08  0.10566000000E+00  0.10566000000E+00 0.  1.
     999900   -1    0    0    0    0 -0.00000000000E+00 -0.00000000000E+00 -0.74505805969E-08  0.93827000000E+00  0.93827000000E+00 0.  1.
     999902    2    1    2    0    0  0.57082372466E-02  0.85387819281E-02 -0.89241474427E-02  0.10303235612E+01  0.10302337141E+01 0.  0.
     999903    2    3    3    0    0  0.36837612712E-01  0.62772534379E-01 -0.11214088641E+00  0.14208708755E+00  0.48122357183E-01 0.  0.
         14    1    1    2    0    0 -0.57082372466E-02 -0.85387819281E-02  0.89241474427E-02  0.13606438801E-01  0.00000000000E+00 0.  1.
     999901    1    3    3    0    0 -0.31129375466E-01 -0.54233752450E-01  0.10321673896E+00  0.88823647365E+00  0.88000000000E+00 0. -1.
        -11    1    4    4    0    0  0.13442289951E-01  0.61931477433E-01 -0.75123756593E-01  0.98285517660E-01  0.51100000000E-03 0. -1.
         11    1    4    4    0    0  0.23395322762E-01  0.84105694598E-03 -0.37017129814E-01  0.43801569887E-01  0.51100000000E-03 0.  1.
</event>
<event>
 8    1  0.2959109E+004  0.1043930E+01  0.7957747E-01            NaN
         13   -1    0    0    0    0  0.00000000000E+00  0.00000000000E+00  0.74505805969E-08  0.10566000000E+00  0.10566000000E+00 0. -1.
     999900   -1    0    0    0    0 -0.00000000000E+00 -0.00000000000E+00 -0.74505805969E-08  0.93827000000E+00  0.93827000000E+00 0.  1.
     999902    2    1    2    0    0 -0.14143485212E-02  0.25666174395E-02  0.12953902240E-01  0.10306487542E+01  0.10305631776E+01 0.  0.
     999903    2    3    3    0    0  0.17370754023E-01  0.21744517424E-01  0.13201608063E+00  0.14222516477E+00  0.45002053477E-01 0.  0.
         14    1    1    2    0    0  0.14143485212E-02 -0.25666174395E-02 -0.12953902240E-01  0.13281245802E-01  0.00000000000E+00 0.  1.
     999901    1    3    3    0    0 -0.18785102544E-01 -0.19177899984E-01 -0.11906217839E+00  0.88842358943E+00  0.88000000000E+00 0.  1.
        -11    1    4    4    0    0  0.16901368227E-01 -0.69314986507E-02  0.86614337138E-01  0.88521220283E-01  0.51100000000E-03 0. -1.
         11    1    4    4    0    0  0.46938579663E-03  0.28676016074E-01  0.45401743489E-01  0.53703944490E-01  0.51100000000E-03 0.  1.
</event>
<event>
 8    1  0.2959109E+004  0.1043930E+01  0.7957747E-01            NaN
         13   -1    0    0    0    0  0.00000000000E+00  0.00000000000E+00  0.74505805969E-08  0.10566000000E+00  0.10566000000E+00 0. -1.
     999900   -1    0    0    0    0 -0.00000000000E+00 -0.00000000000E+00 -0.74505805969E-08  0.93827000000E+00  0.93827000000E+00 0.  1.
     999902    2    1    2    0    0  0.10279097661E-01  0.25893484301E-02 -0.85853458608E-02  0.10302891519E+01  0.10301988467E+01 0.  0.
     999903    2    3    3    0    0 -0.95498992380E-01  0.90951265246E-01  0.94963087391E-02  0.13937738357E+00  0.44087242767E-01 0.  0.
         14    1    1    2    0    0 -0.10279097661E-01 -0.25893484301E-02  0.85853458608E-02  0.13640848125E-01  0.00000000000E+00 0. -1.
     999901    1    3    3    0    0  0.10577809004E+00 -0.88361916816E-01 -0.18081654600E-01  0.89091176831E+00  0.88000000000E+00 0. -1.
        -11    1    4    4    0    0 -0.36948308846E-01  0.65482740306E-01  0.60525162774E-02  0.75432492196E-01  0.51100000000E-03 0.  1.
         11    1    4    4    0    0 -0.58550683534E-01  0.25468524940E-01  0.34437924617E-02  0.63944891371E-01  0.51100000000E-03 0. -1.
</event>
<event>
 7    1  0.2959109E+004  0.1043930E+01  0.7957747E-01            NaN
         13   -1    0    0    0    0  0.00000000000E+00  0.00000000000E+00  0.74505805969E-08  0.10566000000E+00  0.10566000000E+00 0. -1.
     999900   -1    0    0    0    0 -0.00000000000E+00 -0.00000000000E+00 -0.74505805969E-08  0.93827000000E+00  0.93827000000E+00 0. -1.
     999903    2    1    2    0    0 -0.19518925333E-01  0.83753349653E-01 -0.60111670062E-01  0.11402508018E+00  0.44639601334E-01 0.  0.
         14    1    1    2    0    0 -0.20507971839E-01 -0.36226860355E-01 -0.15634757097E-01  0.44468055384E-01  0.00000000000E+00 0.  1.
     999901    1    1    2    0    0  0.40026897173E-01 -0.47526489299E-01  0.75746427158E-01  0.88543686444E+00  0.88000000000E+00 0.  1.
        -11    1    3    3    0    0 -0.21918692930E-01  0.23189333822E-01 -0.53911930257E-02  0.32365110631E-01  0.51100000000E-03 0.  1.
         11    1    3    3    0    0  0.23997675974E-02  0.60564015831E-01 -0.54720477036E-01  0.81659969546E-01  0.51100000000E-03 0. -1.
</event>
<event>
 8    1  0.2959109E+004  0.1043930E+01  0.7957747E-01            NaN
         13   -1    0    0    0    0  0.00000000000E+00  0.00000000000E+00  0.74505805969E-08  0.10566000000E+00  0.10566000000E+00 0.  1.
     999900   -1    0    0    0    0 -0.00000000000E+00 -0.00000000000E+00 -0.74505805969E-08  0.93827000000E+00  0.93827000000E+00 0.  1.
     999902    2    1    2    0    0  0.22383630673E-03  0.19735447645E-02 -0.13687403473E-01  0.10300992374E+01  0.10300063829E+01 0.  0.
     999903    2    3    3    0    0  0.73102494192E-01 -0.11020267493E+00  0.23887555762E-02  0.13984464122E+00  0.45411598808E-01 0.  0.
         14    1    1    2    0    0 -0.22383630673E-03 -0.19735447645E-02  0.13687403473E-01  0.13830762650E-01  0.00000000000E+00 0.  1.
     999901    1    3    3    0    0 -0.72878657885E-01  0.11217621969E+00 -0.16076159050E-01  0.89025459613E+00  0.88000000000E+00 0.  1.
        -11    1    4    4    0    0  0.13384543600E-01 -0.18111004738E-01  0.18189104302E-01  0.28952705164E-01  0.51100000000E-03 0. -1.
         11    1    4    4    0    0  0.59717950592E-01 -0.92091670191E-01 -0.15800348726E-01  0.11089193606E+00  0.51100000000E-03 0.  1.
</event>
<event>
 8    1  0.2959109E+004  0.1043930E+01  0.7957747E-01            NaN
         13   -1    0    0    0    0  0.00000000000E+00  0.00000000000E+00  0.74505805969E-08  0.10566000000E+00  0.10566000000E+00 0. -1.
     999900   -1    0    0    0    0 -0.00000000000E+00 -0.00000000000E+00 -0.74505805969E-08  0.93827000000E+00  0.93827000000E+00 0.  1.
     999902    2    1    2    0    0 -0.44691740827E-02 -0.97011933383E-04 -0.11547448274E-01  0.10315474926E+01  0.10314731712E+01 0.  0.
     999903    2    3    3    0    0  0.10062638642E+00  0.72343269439E-01 -0.48147253055E-01  0.14158557378E+00  0.48673385442E-01 0.  0.
         14    1    1    2    0    0  0.44691740827E-02  0.97011933383E-04  0.11547448274E-01  0.12382507418E-01  0.00000000000E+00 0. -1.
     999901    1    3    3    0    0 -0.10509556050E+00 -0.72440281372E-01  0.36599804780E-01  0.88996191880E+00  0.88000000000E+00 0.  1.
        -11    1    4    4    0    0  0.18216306284E-01 -0.51148220344E-02 -0.71038659138E-03  0.18940987017E-01  0.51100000000E-03 0.  1.
         11    1    4    4    0    0  0.82410080134E-01  0.77458091473E-01 -0.47436866463E-01  0.12264458677E+00  0.51100000000E-03 0. -1.
</event>
<event>
 8    1  0.2959109E+004  0.1043930E+01  0.7957747E-01            NaN
         13   -1    0    0    0    0  0.00000000000E+00  0.00000000000E+00  0.74505805969E-08  0.10566000000E+00  0.10566000000E+00 0.  1.
     999900   -1    0    0    0    0 -0.00000000000E+00 -0.00000000000E+00 -0.74505805969E-08  0.93827000000E+00  0.93827000000E+00 0.  1.
     999902    2    1    2    0    0  0.49890116090E-02  0.72180191967E-02 -0.68235708533E-02  0.10328146432E+01  0.10327548286E+01 0.  0.
     999903    2    3    3    0    0 -0.11733213828E-01 -0.13198274769E+00  0.20021538806E-01  0.14131189712E+00  0.44845024873E-01 0.  0.
         14    1    1    2    0    0 -0.49890116090E-02 -0.72180191967E-02  0.68235708533E-02  0.11115356816E-01  0.00000000000E+00 0.  1.
     999901    1    3    3    0    0  0.16722225437E-01  0.13920076689E+00 -0.26845109659E-01  0.89150274606E+00  0.88000000000E+00 0. -1.
        -11    1    4    4    0    0  0.33541323740E-02 -0.77223661077E-01  0.31311173929E-01  0.83399009394E-01  0.51100000000E-03 0.  1.
         11    1    4    4    0    0 -0.15087346202E-01 -0.54759086617E-01 -0.11289635123E-01  0.57912887726E-01  0.51100000000E-03 0. -1.
</event>
<event>
 8    1  0.2959109E+004  0.1043930E+01  0.7957747E-01            NaN
         13   -1    0    0    0    0  0.00000000000E+00  0.00000000000E+00  0.74505805969E-08  0.10566000000E+00  0.10566000000E+00 0.  1.
     999900   -1    0    0    0    0 -0.00000000000E+00 -0.00000000000E+00 -0.74505805969E-08  0.93827000000E+00  0.93827000000E+00 0.  1.
     999902    2    1    2    0    0  0.98650010501E-02 -0.45548524794E-02 -0.88786723356E-02  0.10298980454E+01  0.10298024511E+01 0.  0.
     999903    2    3    3    0    0  0.34613484723E-01  0.59803501233E-01 -0.11448080878E+00  0.14090631523E+00  0.44431768004E-01 0.  0.
         14    1    1    2    0    0 -0.98650010501E-02  0.45548524794E-02  0.88786723356E-02  0.14031954578E-01  0.00000000000E+00 0.  1.
     999901    1    3    3    0    0 -0.24748483673E-01 -0.64358353713E-01  0.10560213644E+00  0.88899173020E+00  0.88000000000E+00 0. -1.
        -11    1    4    4    0    0  0.26852538412E-01  0.54444594554E-01 -0.59097441822E-01  0.84723322918E-01  0.51100000000E-03 0.  1.
         11    1    4    4    0    0  0.77609463105E-02  0.53589066789E-02 -0.55383366954E-01  0.56182992308E-01  0.51100000000E-03 0. -1.
</event>
<event>
 8    1  0.2959109E+004  0.1043930E+01  0.7957747E-01            NaN
         13   -1    0    0    0    0  0.00000000000E+00  0.00000000000E+00  0.74505805969E-08  0.10566000000E+00  0.10566000000E+00 0.  1.
     999900   -1    0    0    0    0 -0.00000000000E+00 -0.00000000000E+00 -0.74505805969E-08  0.93827000000E+00  0.93827000000E+00 0. -1.
     999902    2    1    2    0    0  0.57833720568E-02 -0.89961870288E-02  0.93200807925E-02  0.10297439971E+01  0.10296462775E+01 0.  0.
     999903    2    3    3    0    0 -0.10348980033E+00  0.78650897110E-01  0.17711790038E-01  0.13862500481E+00  0.44800469455E-01 0.  0.
         14    1    1    2    0    0 -0.57833720568E-02  0.89961870288E-02 -0.93200807925E-02  0.14186002939E-01  0.00000000000E+00 0. -1.
     999901    1    3    3    0    0  0.10927317239E+00 -0.87647084139E-01 -0.83917092459E-02  0.89111899225E+00  0.88000000000E+00 0. -1.
        -11    1    4    4    0    0 -0.67263741517E-01  0.64008943062E-01  0.30134707135E-01  0.97621295883E-01  0.51100000000E-03 0.  1.
         11    1    4    4    0    0 -0.36226058817E-01  0.14641954048E-01 -0.12422917096E-01  0.41003708929E-01  0.51100000000E-03 0. -1.
</event>
<event>
 8    1  0.2959109E+004  0.1043930E+01  0.7957747E-01            NaN
         13   -1    0    0    0    0  0.00000000000E+00  0.00000000000E+00  0.74505805969E-08  0.10566000000E+00  0.10566000000E+00 0. -1.
     999900   -1    0    0    0    0 -0.00000000000E+00 -0.00000000000E+00 -0.74505805969E-08  0.93827000000E+00  0.93827000000E+00 0.  1.
     999902    2    1    2    0    0 -0.11248601211E-01 -0.64438570267E-02  0.51718054640E-02  0.10299728551E+01  0.10298782842E+01 0.  0.
     999903    2    3    3    0    0  0.69540358964E-01 -0.10074902785E+00  0.51366449580E-01  0.14005473161E+00  0.44616001250E-01 0.  0.
         14    1    1    2    0    0  0.11248601211E-01  0.64438570267E-02 -0.51718054640E-02  0.13957144921E-01  0.00000000000E+00 0. -1.
     999901    1    3    3    0    0 -0.80788960175E-01  0.94305170820E-01 -0.46194644116E-01  0.88991812347E+00  0.88000000000E+00 0.  1.
        -11    1    4    4    0    0  0.56495078753E-01 -0.43271438762E-01  0.31843769794E-01  0.77964082317E-01  0.51100000000E-03 0. -1.
         11    1    4    4    0    0  0.13045280210E-01 -0.57477589085E-01  0.19522679786E-01  0.62090649295E-01  0.51100000000E-03 0.  1.
</event>
<event>
 8    1  0.2959109E+004  0.1043930E+01  0.7957747E-01            NaN
         13   -1    0    0    0    0  0.00000000000E+00  0.00000000000E+00  0.74505805969E-08  0.10566000000E+00  0.10566000000E+00 0.  1.
     999900   -1    0    0    0    0 -0.00000000000E+00 -0.00000000000E+00 -0.74505805969E-08  0.93827000000E+00  0.93827000000E+00 0.  1.
     999902    2    1    2    0    0  0.93228581198E-02 -0.40230149497E-02 -0.95404738650E-02  0.10299972697E+01  0.10299030316E+01 0.  0.
     999903    2    3    3    0    0  0.26343301562E-01 -0.85614357662E-01 -0.99751038526E-01  0.14146770422E+00  0.45155884180E-01 0.  0.
         14    1    1    2    0    0 -0.93228581198E-02  0.40230149497E-02  0.95404738650E-02  0.13932730327E-01  0.00000000000E+00 0.  1.
     999901    1    3    3    0    0 -0.17020443443E-01  0.81591342712E-01  0.90210564661E-01  0.88852956545E+00  0.88000000000E+00 0. -1.
        -11    1    4    4    0    0  0.62258972619E-02 -0.30504060186E-01 -0.67925380313E-01  0.74722004097E-01  0.51100000000E-03 0. -1.
         11    1    4    4    0    0  0.20117404300E-01 -0.55110297476E-01 -0.31825658213E-01  0.66745700127E-01  0.51100000000E-03 0.  1.
</event>
<event>
 8    1  0.2959109E+004  0.1043930E+01  0.7957747E-01            NaN
         13   -1    0    0    0    0  0.00000000000E+00  0.00000000000E+00  0.74505805969E-08  0.10566000000E+00  0.10566000000E+00 0.  1.
     999900   -1    0    0    0    0 -0.00000000000E+00 -0.00000000000E+00 -0.74505805969E-08  0.93827000000E+00  0.93827000000E+00 0. -1.
     999902    2    1    2    0    0 -0.88012424594E-02 -0.67893046792E-02  0.75226531146E-02  0.10305081210E+01  0.10304207105E+01 0.  0.
     999903    2    3    3    0    0  0.94099640508E-01  0.57614392108E-01 -0.71073793206E-01  0.13870442662E+00  0.44869514843E-01 0.  0.
         14    1    1    2    0    0  0.88012424594E-02  0.67893046792E-02 -0.75226531146E-02  0.13421879032E-01  0.00000000000E+00 0.  1.
     999901    1    3    3    0    0 -0.10290088297E+00 -0.64403696787E-01  0.78596446320E-01  0.89180369435E+00  0.88000000000E+00 0.  1.
        -11    1    4    4    0    0  0.85386688572E-01  0.36834676205E-01 -0.42322432764E-01  0.10217205779E+00  0.51100000000E-03 0.  1.
         11    1    4    4    0    0  0.87129519364E-02  0.20779715903E-01 -0.28751360442E-01  0.36532368835E-01  0.51100000000E-03 0. -1.
</event>
<event>
 8    1  0.2959109E+004  0.1043930E+01  0.7957747E-01            NaN
         13   -1    0    0    0    0  0.00000000000E+00  0.00000000000E+00  0.74505805969E-08  0.10566000000E+00  0.10566000000E+00 0. -1.
     999900   -1    0    0    0    0 -0.00000000000E+00 -0.00000000000E+00 -0.74505805969E-08  0.93827000000E+00  0.93827000000E+00 0.  1.
     999902    2    1    2    0    0 -0.39819626095E-02 -0.15424675698E-04  0.13635545179E-01  0.10297249179E+01  0.10296269335E+01 0.  0.
     999903    2    3    3    0    0  0.39015127774E-02 -0.11674265522E+00  0.63931234521E-01  0.14055842514E+00  0.45004430687E-01 0.  0.
         14    1    1    2    0    0  0.39819626095E-02  0.15424675698E-04 -0.13635545179E-01  0.14205082065E-01  0.00000000000E+00 0.  1.
     999901    1    3    3    0    0 -0.78834753869E-02  0.11672723055E+00 -0.50295689342E-01  0.88916649279E+00  0.88000000000E+00 0. -1.
        -11    1    4    4    0    0 -0.10654629153E-01 -0.40604887447E-02  0.39466762299E-02  0.12076674439E-01  0.51100000000E-03 0. -1.
         11    1    4    4    0    0  0.14556141931E-01 -0.11268216648E+00  0.59984558291E-01  0.12848175071E+00  0.51100000000E-03 0.  1.
</event>
<event>
 8    1  0.2959109E+004  0.1043930E+01  0.7957747E-01            NaN
         13   -1    0    0    0    0  0.00000000000E+00  0.00000000000E+00  0.74505805969E-08  0.10566000000E+00  0.10566000000E+00 0. -1.
     999900   -1    0    0    0    0 -0.00000000000E+00 -0.00000000000E+00 -0.74505805969E-08  0.93827000000E+00  0.93827000000E+00 0. -1.
     999902    2    1    2    0    0  0.11826161466E-02  0.26938244209E-02  0.14699524039E-01  0.10289389601E+01  0.10288297489E+01 0.  0.
     999903    2    3    3    0    0  0.20267807028E-01 -0.12404839080E+00 -0.36513289569E-01  0.13818052711E+00  0.44292781535E-01 0.  0.
         14    1    1    2    0    0 -0.11826161466E-02 -0.26938244209E-02 -0.14699524039E-01  0.14991039922E-01  0.00000000000E+00 0.  1.
     999901    1    3    3    0    0 -0.19085190881E-01  0.12674221522E+00  0.51212813608E-01  0.89075843297E+00  0.88000000000E+00 0. -1.
        -11    1    4    4    0    0  0.28539067531E-01 -0.44347622165E-01 -0.92864161834E-02  0.53550804044E-01  0.51100000000E-03 0. -1.
         11    1    4    4    0    0 -0.82712605030E-02 -0.79700768630E-01 -0.27226873386E-01  0.84629723064E-01  0.51100000000E-03 0.  1.
</event>
<event>
 8    1  0.2959109E+004  0.1043930E+01  0.7957747E-01            NaN
         13   -1    0    0    0    0  0.00000000000E+00  0.00000000000E+00  0.74505805969E-08  0.10566000000E+00  0.10566000000E+00 0. -1.
     999900   -1    0    0    0    0 -0.00000000000E+00 -0.00000000000E+00 -0.74505805969E-08  0.93827000000E+00  0.93827000000E+00 0.  1.
     999902    2    1    2    0    0 -0.14474721222E-01  0.13737020284E-03 -0.54340874037E-03  0.10294444307E+01  0.10293425106E+01 0.  0.
     999903    2    3    3    0    0  0.11508494842E+00  0.49412422177E-02 -0.61051925458E-01  0.13788957216E+00  0.44913642477E-01 0.  0.
         14    1    1    2    0    0  0.14474721222E-01 -0.13737020284E-03  0.54340874037E-03  0.14485569304E-01  0.00000000000E+00 0. -1.
     999901    1    3    3    0    0 -0.12955966964E+00 -0.48038720149E-02  0.60508516718E-01  0.89155485854E+00  0.88000000000E+00 0. -1.
        -11    1    4    4    0    0  0.69429932190E-01 -0.98359982069E-02 -0.55793414306E-01  0.89612658400E-01  0.51100000000E-03 0.  1.
         11    1    4    4    0    0  0.45655016231E-01  0.14777240425E-01 -0.52585111523E-02  0.48276913759E-01  0.51100000000E-03 0. -1.
</event>
<event>
 7    1  0.2959109E+004  0.1043930E+01  0.7957747E-01            NaN
         13   -1    0    0    0    0  0.00000000000E+00  0.00000000000E+00  0.74505805969E-08  0.10566000000E+00  0.10566000000E+00 0. -1.
     999900   -1    0    0    0    0 -0.00000000000E+00 -0.00000000000E+00 -0.74505805969E-08  0.93827000000E+00  0.93827000000E+00 0. -1.
     999903    2    1    2    0    0 -0.57541847834E-01 -0.60423467927E-01  0.72647844881E-01  0.11926073186E+00  0.44534852292E-01 0.  0.
         14    1    1    2    0    0 -0.79221001170E-02 -0.29544926135E-03 -0.38696058261E-01  0.39499770702E-01  0.00000000000E+00 0.  1.
     999901    1    1    2    0    0  0.65463947951E-01  0.60718917189E-01 -0.33951786620E-01  0.88516949744E+00  0.88000000000E+00 0. -1.
        -11    1    3    3    0    0 -0.19220217849E-01 -0.32633920158E-01  0.73103140120E-02  0.38575786849E-01  0.51100000000E-03 0.  1.
         11    1    3    3    0    0 -0.38321629985E-01 -0.27789547769E-01  0.65337530869E-01  0.80684945008E-01  0.51100000000E-03 0. -1.
</event>
<event>
 8    1  0.2959109E+004  0.1043930E+01  0.7957747E-01            NaN
         13   -1    0    0    0    0  0.00000000000E+00  0.00000000000E+00  0.74505805969E-08  0.10566000000E+00  0.10566000000E+00 0. -1.
     999900   -1    0    0    0    0 -0.00000000000E+00 -0.00000000000E+00 -0.74505805969E-08  0.93827000000E+00  0.93827000000E+00 0. -1.
     999902    2    1    2    0    0  0.71201069744E-02 -0.59783982448E-02  0.99680867279E-02  0.10302991555E+01  0.10302089836E+01 0.  0.
     999903    2    3    3    0    0  0.46778232875E-01  0.11255875877E+00 -0.52185391036E-01  0.13929585621E+00  0.42688912744E-01 0.  0.
         14    1    1    2    0    0 -0.71201069744E-02  0.59783982448E-02 -0.99680867279E-02  0.13630844505E-01  0.00000000000E+00 0.  1.
     999901    1    3    3    0    0 -0.39658125901E-01 -0.11853715702E+00  0.62153477764E-01  0.89100329929E+00  0.88000000000E+00 0.  1.
        -11    1    4    4    0    0  0.23478131031E-01  0.97303253432E-01 -0.32702489677E-01  0.10530365481E+00  0.51100000000E-03 0. -1.
         11    1    4    4    0    0  0.23300101844E-01  0.15255505342E-01 -0.19482901359E-01  0.33992201393E-01  0.51100000000E-03 0.  1.
</event>
<event>
 8    1  0.2959109E+004  0.1043930E+01  0.7957747E-01            NaN
         13   -1    0    0    0    0  0.00000000000E+00  0.00000000000E+00  0.74505805969E-08  0.10566000000E+00  0.10566000000E+00 0. -1.
     999900   -1    0    0    0    0 -0.00000000000E+00 -0.00000000000E+00 -0.74505805969E-08  0.93827000000E+00  0.93827000000E+00 0.  1.
     999902    2    1    2    0    0  0.12033559810E-01 -0.21215133505E-02 -0.61319344817E-02  0.10302585699E+01  0.10301678566E+01 0.  0.
     999903    2    3    3    0    0 -0.38120918290E-02 -0.83493726006E-01 -0.10405611218E+00  0.14095453513E+00  0.45329594807E-01 0.  0.
         14    1    1    2    0    0 -0.12033559810E-01  0.21215133505E-02  0.61319344817E-02  0.13671430104E-01  0.00000000000E+00 0. -1.
     999901    1    3    3    0    0  0.15845651639E-01  0.81372212656E-01  0.97924177701E-01  0.88930403476E+00  0.88000000000E+00 0. -1.
        -11    1    4    4    0    0 -0.23396973180E-01 -0.44679818652E-01 -0.44817053681E-01  0.67472468240E-01  0.51100000000E-03 0. -1.
         11    1    4    4    0    0  0.19584881351E-01 -0.38813907354E-01 -0.59239058502E-01  0.73482066893E-01  0.51100000000E-03 0.  1.
</event>
<event>
 8    1  0.2959109E+004  0.1043930E+01  0.7957747E-01            NaN
         13   -1    0    0    0    0  0.00000000000E+00  0.00000000000E+00  0.74505805969E-08  0.10566000000E+00  0.10566000000E+00 0.  1.
     999900   -1    0    0    0    0 -0.00000000000E+00 -0.00000000000E+00 -0.74505805969E-08  0.93827000000E+00  0.93827000000E+00 0. -1.
     999902    2    1    2    0    0  0.88285576122E-02 -0.88870684175E-02 -0.65032948715E-02  0.10298156010E+01  0.10297188722E+01 0.  0.
     999903    2    3    3    0    0  0.67729479813E-04 -0.78039410156E-01 -0.10635895539E+00  0.14142945107E+00  0.50989294104E-01 0.  0.
         14    1    1    2    0    0 -0.88285576122E-02  0.88870684175E-02  0.65032948715E-02  0.14114398987E-01  0.00000000000E+00 0.  1.
     999901    1    3    3    0    0  0.87608281323E-02  0.69152341739E-01  0.99855660517E-01  0.88838614995E+00  0.88000000000E+00 0.  1.
        -11    1    4    4    0    0  0.19975483069E-01 -0.42001684685E-01 -0.80006520769E-01  0.92544399759E-01  0.51100000000E-03 0.  1.
         11    1    4    4    0    0 -0.19907753589E-01 -0.36037725472E-01 -0.26352434619E-01  0.48885051309E-01  0.51100000000E-03 0. -1.
</event>
<event>
 8    1  0.2959109E+004  0.1043930E+01  0.7957747E-01            NaN
         13   -1    0    0    0    0  0.00000000000E+00  0.00000000000E+00  0.74505805969E-08  0.10566000000E+00  0.10566000000E+00 0. -1.
     999900   -1    0    0    0    0 -0.00000000000E+00 -0.00000000000E+00 -0.74505805969E-08  0.93827000000E+00  0.93827000000E+00 0.  1.
     999902    2    1    2    0    0  0.11707949037E-01 -0.47964285860E-02  0.54214338487E-02  0.10301650538E+01  0.10300730869E+01 0.  0.
     999903    2    3    3    0    0 -0.24124663066E-03 -0.85031751303E-01 -0.10172496680E+00  0.13996235700E+00  0.44844571322E-01 0.  0.
         14    1    1    2    0    0 -0.11707949037E-01  0.47964285860E-02 -0.54214338487E-02  0.13764946161E-01  0.00000000000E+00 0.  1.
     999901    1    3    3    0    0  0.11949195668E-01  0.80235322717E-01  0.10714640065E+00  0.89020269684E+00  0.88000000000E+00 0. -1.
        -11    1    4    4    0    0  0.19009537618E-01 -0.67338294897E-01 -0.73190475085E-01  0.10125668000E+00  0.51100000000E-03 0. -1.
         11    1    4    4    0    0 -0.19250784248E-01 -0.17693456406E-01 -0.28534491714E-01  0.38705677002E-01  0.51100000000E-03 0.  1.
</event>
<event>
 8    1  0.2959109E+004  0.1043930E+01  0.7957747E-01            NaN
         13   -1    0    0    0    0  0.00000000000E+00  0.00000000000E+00  0.74505805969E-08  0.10566000000E+00  0.10566000000E+00 0.  1.
     999900   -1    0    0    0    0 -0.00000000000E+00 -0.00000000000E+00 -0.74505805969E-08  0.93827000000E+00  0.93827000000E+00 0.  1.
     999902    2    1    2    0    0  0.32026497775E-02 -0.63641938939E-02  0.11791914560E-01  0.10301528748E+01  0.10300607440E+01 0.  0.
     999903    2    3    3    0    0 -0.88988303497E-01 -0.94207435532E-01 -0.28972342194E-01  0.14005325589E+00  0.44514703248E-01 0.  0.
         14    1    1    2    0    0 -0.32026497775E-02  0.63641938939E-02 -0.11791914560E-01  0.13777125190E-01  0.00000000000E+00 0. -1.
     999901    1    3    3    0    0  0.92190953274E-01  0.87843241638E-01  0.40764256754E-01  0.89009961892E+00  0.88000000000E+00 0. -1.
        -11    1    4    4    0    0 -0.70371379179E-01 -0.83911236037E-01 -0.74210210892E-02  0.10976592921E+00  0.51100000000E-03 0.  1.
         11    1    4    4    0    0 -0.18616924317E-01 -0.10296199495E-01 -0.21551321105E-01  0.30287326680E-01  0.51100000000E-03 0. -1.
</event>
<event>
 8    1  0.2959109E+004  0.1043930E+01  0.7957747E-01            NaN
         13   -1    0    0    0    0  0.00000000000E+00  0.00000000000E+00  0.74505805969E-08  0.10566000000E+00  0.10566000000E+00 0. -1.
     999900   -1    0    0    0    0 -0.00000000000E+00 -0.00000000000E+00 -0.74505805969E-08  0.93827000000E+00  0.93827000000E+00 0.  1.
     999902    2    1    2    0    0  0.17962721329E-01  0.12532864950E-02 -0.54461615552E-02  0.10251180155E+01  0.10249453912E+01 0.  0.
     999903    2    3    3    0    0  0.10630811277E+00  0.37250925661E-01 -0.65184178017E-01  0.13794871441E+00  0.45736467278E-01 0.  0.
         14    1    1    2    0    0 -0.17962721329E-01 -0.12532864950E-02  0.54461615552E-02  0.18811984485E-01  0.00000000000E+00 0.  1.
     999901    1    3    3    0    0 -0.88345391444E-01 -0.35997639166E-01  0.59738016462E-01  0.88716930111E+00  0.88000000000E+00 0. -1.
        -11    1    4    4    0    0  0.63436292568E-01  0.38375460884E-01 -0.22602797584E-01  0.77511204303E-01  0.51100000000E-03 0. -1.
         11    1    4    4    0    0  0.42871820205E-01 -0.11245352228E-02 -0.42581380433E-01  0.60437510105E-01  0.51100000000E-03 0.  1.
</event>
<event>
 8    1  0.2959109E+004  0.1043930E+01  0.7957747E-01            NaN
         13   -1    0    0    0    0  0.00000000000E+00  0.00000000000E+00  0.74505805969E-08  0.10566000000E+00  0.10566000000E+00 0. -1.
     999900   -1    0    0    0    0 -0.00000000000E+00 -0.00000000000E+00 -0.74505805969E-08  0.93827000000E+00  0.93827000000E+00 0. -1.
     999902    2    1    2    0    0 -0.15392949072E-01 -0.57374095921E-02 -0.74007543740E-02  0.10259124553E+01  0.10257542270E+01 0.  0.
     999903    2    3    3    0    0  0.34774695953E-01 -0.99866656039E-01 -0.74208847194E-01  0.13695777208E+00  0.45473617224E-01 0.  0.
         14    1    1    2    0    0  0.15392949072E-01  0.57374095921E-02  0.74007543740E-02  0.18017544651E-01  0.00000000000E+00 0.  1.
     999901    1    3    3    0    0 -0.50167645025E-01  0.94129246447E-01  0.66808092820E-01  0.88895468327E+00  0.88000000000E+00 0. -1.
        -11    1    4    4    0    0 -0.10401642101E-01 -0.96404632857E-02 -0.84579804963E-02  0.16520630915E-01  0.51100000000E-03 0. -1.
         11    1    4    4    0    0  0.45176338054E-01 -0.90226192754E-01 -0.65750866697E-01  0.12043714116E+00  0.51100000000E-03 0.  1.
</event>
<event>
 8    1  0.2959109E+004  0.1043930E+01  0.7957747E-01            NaN
         13   -1    0    0    0    0  0.00000000000E+00  0.00000000000E+00  0.74505805969E-08  0.10566000000E+00  0.10566000000E+00 0. -1.
     999900   -1    0    0    0    0 -0.00000000000E+00 -0.00000000000E+00 -0.74505805969E-08  0.93827000000E+00  0.93827000000E+00 0. -1.
     999902    2    1    2    0    0  0.13713127146E-02 -0.11305254434E-01 -0.77862251313E-02  0.10301345450E+01  0.10300421672E+01 0.  0.
     999903    2    3    3    0    0  0.26110616512E-01  0.82060177180E-01  0.98852458551E-01  0.13845021420E+00  0.44508609013E-01 0.  0.
         14    1    1    2    0    0 -0.13713127146E-02  0.11305254434E-01  0.77862251313E-02  0.13795454983E-01  0.00000000000E+00 0.  1.
     999901    1    3    3    0    0 -0.24739303797E-01 -0.93365431614E-01 -0.10663868368E+00  0.89168433082E+00  0.88000000000E+00 0. -1.
        -11    1    4    4    0    0 -0.14465398611E-02  0.46631785074E-01  0.27515490268E-01  0.54166218093E-01  0.51100000000E-03 0.  1.
         11    1    4    4    0    0  0.27557156373E-01  0.35428392105E-01  0.71336968283E-01  0.84283996104E-01  0.51100000000E-03 0. -1.
</event>
<event>
 8    1  0.2959109E+004  0.1043930E+01  0.7957747E-01            NaN
         13   -1    0    0    0    0  0.00000000000E+00  0.00000000000E+00  0.74505805969E-08  0.10566000000E+00  0.10566000000E+00 0.  1.
     999900   -1    0    0    0    0 -0.00000000000E+00 -0.00000000000E+00 -0.74505805969E-08  0.93827000000E+00  0.93827000000E+00 0. -1.
     999902    2    1    2    0    0  0.12694223301E-02 -0.13096851296E-01 -0.50475907311E-02  0.10298368414E+01  0.10297404055E+01 0.  0.
     999903    2    3    3    0    0  0.47834888004E-01  0.12162637068E+00  0.55414704503E-02  0.13830399437E+00  0.44901407644E-01 0.  0.
         14    1    1    2    0    0 -0.12694223301E-02  0.13096851296E-01  0.50475907311E-02  0.14093158592E-01  0.00000000000E+00 0.  1.
     999901    1    3    3    0    0 -0.46565465674E-01 -0.13472322198E+00 -0.10589061181E-01  0.89153284704E+00  0.88000000000E+00 0. -1.
        -11    1    4    4    0    0 -0.12986154981E-02  0.34922822664E-01 -0.12317550534E-01  0.37057699837E-01  0.51100000000E-03 0. -1.
         11    1    4    4    0    0  0.49133503502E-01  0.86703548016E-01  0.17859020984E-01  0.10124629453E+00  0.51100000000E-03 0.  1.
</event>
<event>
 8    1  0.2959109E+004  0.1043930E+01  0.7957747E-01            NaN
         13   -1    0    0    0    0  0.00000000000E+00  0.00000000000E+00  0.74505805969E-08  0.10566000000E+00  0.10566000000E+00 0.  1.
     999900   -1    0    0    0    0 -0.00000000000E+00 -0.00000000000E+00 -0.74505805969E-08  0.93827000000E+00  0.93827000000E+00 0. -1.
     999902    2    1    2    0    0  0.18780203295E-02 -0.10675252120E-01 -0.88562577010E-02  0.10299328121E+01  0.10298376941E+01 0.  0.
     999903    2    3    3    0    0 -0.45432500048E-01  0.42542562722E-01 -0.11777988904E+00  0.14036281565E+00  0.44222573980E-01 0.  0.
         14    1    1    2    0    0 -0.18780203295E-02  0.10675252120E-01  0.88562577010E-02  0.13997187884E-01  0.00000000000E+00 0. -1.
     999901    1    3    3    0    0  0.47310520377E-01 -0.53217814843E-01  0.10892363134E+00  0.88956999647E+00  0.88000000000E+00 0.  1.
        -11    1    4    4    0    0 -0.91257712564E-02 -0.32343321353E-02 -0.49747822800E-01  0.50683800170E-01  0.51100000000E-03 0.  1.
         11    1    4    4    0    0 -0.36306728791E-01  0.45776894858E-01 -0.68032066244E-01  0.89679015476E-01  0.51100000000E-03 0. -1.
</event>
<event>
 8    1  0.2959109E+004  0.1043930E+01  0.7957747E-01            NaN
         13   -1    0    0    0    0  0.00000000000E+00  0.00000000000E+00  0.74505805969E-08  0.10566000000E+00  0.10566000000E+00 0.  1.
     999900   -1    0    0    0    0 -0.00000000000E+00 -0.00000000000E+00 -0.74505805969E-08  0.93827000000E+00  0.93827000000E+00 0.  1.
     999902    2    1    2    0    0 -0.18060375130E-01 -0.71763553274E-02  0.56440902755E-02  0.10236930788E+01  0.10234930320E+01 0.  0.
     999903    2    3    3    0    0 -0.11592953881E+00 -0.29557876553E-01  0.49315657458E-01  0.13690871295E+00  0.44706102234E-01 0.  0.
         14    1    1    2    0    0  0.18060375130E-01  0.71763553274E-02 -0.56440902755E-02  0.20236921224E-01  0.00000000000E+00 0. -1.
     999901    1    3    3    0    0  0.97869163678E-01  0.22381521226E-01 -0.43671567183E-01  0.88678436582E+00  0.88000000000E+00 0.  1.
        -11    1    4    4    0    0 -0.43823509789E-01 -0.14533152983E-01  0.42809703093E-01  0.62965421826E-01  0.51100000000E-03 0.  1.
         11    1    4    4    0    0 -0.72106029018E-01 -0.15024723569E-01  0.65059543653E-02  0.73943291124E-01  0.51100000000E-03 0. -1.
</event>
<event>
 8    1  0.2959109E+004  0.1043930E+01  0.7957747E-01            NaN
         13   -1    0    0    0    0  0.00000000000E+00  0.00000000000E+00  0.74505805969E-08  0.10566000000E+00  0.10566000000E+00 0. -1.
     999900   -1    0    0    0    0 -0.00000000000E+00 -0.00000000000E+00 -0.74505805969E-08  0.93827000000E+00  0.93827000000E+00 0. -1.
     999902    2    1    2    0    0 -0.56081991692E-02  0.13073779259E-01  0.46374774428E-02  0.10289673198E+01  0.10288585245E+01 0.  0.
     999903    2    3    3    0    0  0.27852674861E-01  0.10144323535E+00 -0.80250461138E-01  0.13984710690E+00  0.45283278362E-01 0.  0.
         14    1    1    2    0    0  0.56081991692E-02 -0.13073779259E-01 -0.46374774428E-02  0.14962680210E-01  0.00000000000E+00 0.  1.
     999901    1    3    3    0    0 -0.33460874031E-01 -0.88369456090E-01  0.84887938581E-01  0.88912021289E+00  0.88000000000E+00 0.  1.
        -11    1    4    4    0    0 -0.49316875517E-02  0.63265108665E-01 -0.36784956250E-01  0.73349776031E-01  0.51100000000E-03 0. -1.
         11    1    4    4    0    0  0.32784362413E-01  0.38178126684E-01 -0.43465504888E-01  0.66497330864E-01  0.51100000000E-03 0.  1.
</event>
<event>
 8    1  0.2959109E+004  0.1043930E+01  0.7957747E-01            NaN
         13   -1    0    0    0    0  0.00000000000E+00  0.00000000000E+00  0.74505805969E-08  0.10566000000E+00  0.10566000000E+00 0.  1.
     999900   -1    0    0    0    0 -0.00000000000E+00 -0.00000000000E+00 -0.74505805969E-08  0.93827000000E+00  0.93827000000E+00 0.  1.
     999902    2    1    2    0    0 -0.97494510010E-02 -0.77133032703E-02  0.67670402854E-02  0.10297758601E+01  0.10296785821E+01 0.  0.
     999903    2    3    3    0    0 -0.79221215188E-02 -0.10698326339E+00 -0.78827507209E-01  0.14006563161E+00  0.43547980546E-01 0.  0.
         14    1    1    2    0    0  0.97494510010E-02  0.77133032703E-02 -0.67670402854E-02  0.14154139903E-01  0.00000000000E+00 0. -1.
     999901    1    3    3    0    0 -0.18273294822E-02  0.99269960123E-01  0.85594547494E-01  0.88971022849E+00  0.88000000000E+00 0. -1.
        -11    1    4    4    0    0  0.11659975654E-01 -0.30137353079E-01 -0.40989805830E-01  0.52198087952E-01  0.51100000000E-03 0. -1.
         11    1    4    4    0    0 -0.19582097173E-01 -0.76845910314E-01 -0.37837701379E-01  0.87867543657E-01  0.51100000000E-03 0.  1.
</event>
<event>
 8    1  0.2959109E+004  0.1043930E+01  0.7957747E-01            NaN
         13   -1    0    0    0    0  0.00000000000E+00  0.00000000000E+00  0.74505805969E-08  0.10566000000E+00  0.10566000000E+00 0.  1.
     999900   -1    0    0    0    0 -0.00000000000E+00 -0.00000000000E+00 -0.74505805969E-08  0.93827000000E+00  0.93827000000E+00 0. -1.
     999902    2    1    2    0    0  0.58741611588E-02  0.10305159346E-01 -0.80727066636E-02  0.10295818060E+01  0.10294818233E+01 0.  0.
     999903    2    3    3    0    0  0.12145671496E+00  0.77025384356E-02 -0.55091836677E-01  0.14077535970E+00  0.44401899984E-01 0.  0.
         14    1    1    2    0    0 -0.58741611588E-02 -0.10305159346E-01  0.80727066636E-02  0.14348194010E-01  0.00000000000E+00 0.  1.
     999901    1    3    3    0    0 -0.11558255380E+00  0.26026209100E-02  0.47019130013E-01  0.88880644629E+00  0.88000000000E+00 0.  1.
        -11    1    4    4    0    0  0.56076958202E-01 -0.87149511711E-02 -0.53610115444E-02  0.57005062766E-01  0.51100000000E-03 0. -1.
         11    1    4    4    0    0  0.65379756761E-01  0.16417489607E-01 -0.49730825133E-01  0.83770296935E-01  0.51100000000E-03 0.  1.
</event>
<event>
 8    1  0.2959109E+004  0.1043930E+01  0.7957747E-01            NaN
         13   -1    0    0    0    0  0.00000000000E+00  0.00000000000E+00  0.74505805969E-08  0.10566000000E+00  0.10566000000E+00 0.  1.
     999900   -1    0    0    0    0 -0.00000000000E+00 -0.00000000000E+00 -0.74505805969E-08  0.93827000000E+00  0.93827000000E+00 0.  1.
     999902    2    1    2    0    0  0.21395326764E-02 -0.83507632943E-02 -0.12980055062E-01  0.10283481299E+01  0.10282300723E+01 0.  0.
     999903    2    3    3    0    0  0.33202953418E-01  0.10744005287E+00  0.63688840643E-01  0.13691637768E+00  0.45210894469E-01 0.  0.
         14    1    1    2    0    0 -0.21395326764E-02  0.83507632943E-02  0.12980055062E-01  0.15581870140E-01  0.00000000000E+00 0.  1.
     999901    1    3    3    0    0 -0.31063420741E-01 -0.11579081617E+00 -0.76668895704E-01  0.89143175217E+00  0.88000000000E+00 0. -1.
        -11    1    4    4    0    0  0.16339753538E-01  0.73010477893E-01  0.17407667864E-01  0.76816700328E-01  0.51100000000E-03 0. -1.
         11    1    4    4    0    0  0.16863199879E-01  0.34429574980E-01  0.46281172779E-01  0.60099677356E-01  0.51100000000E-03 0.  1.
</event>
<event>
 8    1  0.2959109E+004  0.1043930E+01  0.7957747E-01            NaN
         13   -1    0    0    0    0  0.00000000000E+00  0.00000000000E+00  0.74505805969E-08  0.10566000000E+00  0.10566000000E+00 0. -1.
     999900   -1    0    0    0    0 -0.00000000000E+00 -0.00000000000E+00 -0.74505805969E-08  0.93827000000E+00  0.93827000000E+00 0.  1.
     999902    2    1    2    0    0 -0.20820154732E-02 -0.41791205954E-02  0.13010255200E-01  0.10301073166E+01  0.10300145713E+01 0.  0.
     999903    2    3    3    0    0 -0.95888725226E-01  0.23046813179E-01 -0.87186890419E-01  0.13905152803E+00  0.44810382319E-01 0.  0.
         14    1    1    2    0    0  0.20820154732E-02  0.41791205954E-02 -0.13010255200E-01  0.13822683449E-01  0.00000000000E+00 0.  1.
     999901    1    3    3    0    0  0.93806709753E-01 -0.27225933775E-01  0.10019714562E+00  0.89105578852E+00  0.88000000000E+00 0. -1.
        -11    1    4    4    0    0 -0.25110099469E-01 -0.68467079691E-02 -0.43421641873E-01  0.50627014620E-01  0.51100000000E-03 0. -1.
         11    1    4    4    0    0 -0.70778625757E-01  0.29893521148E-01 -0.43765248546E-01  0.88424513411E-01  0.51100000000E-03 0.  1.
</event>
<event>
 8    1  0.2959109E+004  0.1043930E+01  0.7957747E-01            NaN
         13   -1    0    0    0    0  0.00000000000E+00  0.00000000000E+00  0.74505805969E-08  0.10566000000E+00  0.10566000000E+00 0. -1.
     999900   -1    0    0    0    0 -0.00000000000E+00 -0.00000000000E+00 -0.74505805969E-08  0.93827000000E+00  0.93827000000E+00 0. -1.
     999902    2    1    2    0    0  0.11884051664E-02  0.27609136307E-02 -0.13760460423E-01  0.10298450711E+01  0.10297487486E+01 0.  0.
     999903    2    3    3    0    0 -0.12940304258E+00  0.26529383350E-01 -0.74339896768E-02  0.13986805421E+00  0.45374582919E-01 0.  0.
         14    1    1    2    0    0 -0.11884051664E-02 -0.27609136307E-02  0.13760460423E-01  0.14084928895E-01  0.00000000000E+00 0. -1.
     999901    1    3    3    0    0  0.13059144775E+00 -0.23768469719E-01 -0.63264707460E-02  0.88997701690E+00  0.88000000000E+00 0.  1.
        -11    1    4    4    0    0 -0.22481019584E-01  0.83035511992E-02  0.16103824692E-01  0.28878010575E-01  0.51100000000E-03 0.  1.
         11    1    4    4    0    0 -0.10692202300E+00  0.18225832150E-01 -0.23537814368E-01  0.11099004363E+00  0.51100000000E-03 0. -1.
</event>
<event>
 8    1  0.2959109E+004  0.1043930E+01  0.7957747E-01            NaN
         13   -1    0    0    0    0  0.00000000000E+00  0.00000000000E+00  0.74505805969E-08  0.10566000000E+00  0.10566000000E+00 0. -1.
     999900   -1    0    0    0    0 -0.00000000000E+00 -0.00000000000E+00 -0.74505805969E-08  0.93827000000E+00  0.93827000000E+00 0.  1.
     999902    2    1    2    0    0  0.65159155683E-02 -0.92178961566E-02  0.21301118137E-02  0.10324424354E+01  0.10323785247E+01 0.  0.
     999903    2    3    3    0    0  0.11316674477E-01 -0.18740431724E-01  0.13335925737E+00  0.14264761933E+00  0.45655020235E-01 0.  0.
         14    1    1    2    0    0 -0.65159155683E-02  0.92178961566E-02 -0.21301118137E-02  0.11487564650E-01  0.00000000000E+00 0. -1.
     999901    1    3    3    0    0 -0.48007589087E-02  0.95225355672E-02 -0.13122914556E+00  0.88979481602E+00  0.88000000000E+00 0.  1.
        -11    1    4    4    0    0 -0.15158485748E-01 -0.17093636663E-01  0.77656001209E-01  0.80948673548E-01  0.51100000000E-03 0. -1.
         11    1    4    4    0    0  0.26475160225E-01 -0.16467950609E-02  0.55703256160E-01  0.61698945783E-01  0.51100000000E-03 0.  1.
</event>
<event>
 8    1  0.2959109E+004  0.1043930E+01  0.7957747E-01            NaN
         13   -1    0    0    0    0  0.00000000000E+00  0.00000000000E+00  0.74505805969E-08  0.10566000000E+00  0.10566000000E+00 0.  1.
     999900   -1    0    0    0    0 -0.00000000000E+00 -0.00000000000E+00 -0.74505805969E-08  0.93827000000E+00  0.93827000000E+00 0.  1.
     999902    2    1    2    0    0 -0.34522541902E-02  0.10921228578E-01 -0.69360426276E-02  0.10305397058E+01  0.10304527088E+01 0.  0.
     999903    2    3    3    0    0 -0.10813964197E+00 -0.47380410549E-01 -0.61652032594E-01  0.14073502503E+00  0.45456448146E-01 0.  0.
         14    1    1    2    0    0  0.34522541902E-02 -0.10921228578E-01  0.69360426276E-02  0.13390294245E-01  0.00000000000E+00 0. -1.
     999901    1    3    3    0    0  0.10468738778E+00  0.58301639127E-01  0.54715989967E-01  0.88980468073E+00  0.88000000000E+00 0. -1.
        -11    1    4    4    0    0 -0.29770807424E-01 -0.19159876519E-02  0.21612873737E-02  0.29914950568E-01  0.51100000000E-03 0. -1.
         11    1    4    4    0    0 -0.78368834543E-01 -0.45464422897E-01 -0.63813319968E-01  0.11082007446E+00  0.51100000000E-03 0.  1.
</event>
<event>
 8    1  0.2959109E+004  0.1043930E+01  0.7957747E-01            NaN
         13   -1    0    0    0    0  0.00000000000E+00  0.00000000000E+00  0.74505805969E-08  0.10566000000E+00  0.10566000000E+00 0. -1.
     999900   -1    0    0    0    0 -0.00000000000E+00 -0.00000000000E+00 -0.74505805969E-08  0.93827000000E+00  0.93827000000E+00 0.  1.
     999902    2    1    2    0    0 -0.73892925317E-02  0.10409032326E-01  0.71560509984E-02  0.10292958391E+01  0.10291918022E+01 0.  0.
     999903    2    3    3    0    0  0.56684029052E-01  0.30883291600E-01  0.11603647068E+00  0.14003798474E+00  0.44489524516E-01 0.  0.
         14    1    1    2    0    0  0.73892925317E-02 -0.10409032326E-01 -0.71560509984E-02  0.14634160857E-01  0.00000000000E+00 0. -1.
     999901    1    3    3    0    0 -0.64073321584E-01 -0.20474259274E-01 -0.10888041968E+00  0.88925785441E+00  0.88000000000E+00 0.  1.
        -11    1    4    4    0    0  0.35505783332E-01  0.10246421371E-01  0.25784405646E-01  0.45063804727E-01  0.51100000000E-03 0.  1.
         11    1    4    4    0    0  0.21178245720E-01  0.20636870229E-01  0.90252065036E-01  0.94974180011E-01  0.51100000000E-03 0. -1.
</event>
<event>
 7    1  0.2959109E+004  0.1043930E+01  0.7957747E-01            NaN
         13   -1    0    0    0    0  0.00000000000E+00  0.00000000000E+00  0.74505805969E-08  0.10566000000E+00  0.10566000000E+00 0.  1.
     999900   -1    0    0    0    0 -0.00000000000E+00 -0.00000000000E+00 -0.74505805969E-08  0.93827000000E+00  0.93827000000E+00 0.  1.
     999903    2    1    2    0    0 -0.79390647582E-02 -0.85859035965E-02 -0.89675061768E-01  0.10118645034E+00  0.45390908115E-01 0.  0.
         14    1    1    2    0    0  0.66031176461E-02 -0.46523045217E-01 -0.25607958117E-01  0.53514132879E-01  0.00000000000E+00 0. -1.
     999901    1    1    2    0    0  0.13359471121E-02  0.55108948814E-01  0.11528301988E+00  0.88922941678E+00  0.88000000000E+00 0. -1.
        -11    1    3    3    0    0 -0.24826260420E-01 -0.70515725975E-02 -0.32252832568E-01  0.41310703361E-01  0.51100000000E-03 0.  1.
         11    1    3    3    0    0  0.16887195662E-01 -0.15343309989E-02 -0.57422229200E-01  0.59875746979E-01  0.51100000000E-03 0. -1.
</event>
<event>
 8    1  0.2959109E+004  0.1043930E+01  0.7957747E-01            NaN
         13   -1    0    0    0    0  0.00000000000E+00  0.00000000000E+00  0.74505805969E-08  0.10566000000E+00  0.10566000000E+00 0. -1.
     999900   -1    0    0    0    0 -0.00000000000E+00 -0.00000000000E+00 -0.74505805969E-08  0.93827000000E+00  0.93827000000E+00 0.  1.
     999902    2    1    2    0    0 -0.12295971009E-02  0.69868106472E-02  0.83720871021E-02  0.10329564284E+01  0.10328981381E+01 0.  0.
     999903    2    3    3    0    0  0.10384510641E+00 -0.38717663704E-01 -0.75589797170E-01  0.14156471295E+00  0.45209367480E-01 0.  0.
         14    1    1    2    0    0  0.12295971009E-02 -0.69868106472E-02 -0.83720871021E-02  0.10973571638E-01  0.00000000000E+00 0.  1.
     999901    1    3    3    0    0 -0.10507470351E+00  0.45704474351E-01  0.83961884272E-01  0.89139171541E+00  0.88000000000E+00 0. -1.
        -11    1    4    4    0    0  0.48006815455E-01  0.27797813572E-02 -0.43905826817E-01  0.65118079394E-01  0.51100000000E-03 0.  1.
         11    1    4    4    0    0  0.55838290958E-01 -0.41497445061E-01 -0.31683970353E-01  0.76446633556E-01  0.51100000000E-03 0. -1.
</event>
<event>
 8    1  0.2959109E+004  0.1043930E+01  0.7957747E-01            NaN
         13   -1    0    0    0    0  0.00000000000E+00  0.00000000000E+00  0.74505805969E-08  0.10566000000E+00  0.10566000000E+00 0. -1.
     999900   -1    0    0    0    0 -0.00000000000E+00 -0.00000000000E+00 -0.74505805969E-08  0.93827000000E+00  0.93827000000E+00 0.  1.
     999902    2    1    2    0    0 -0.18859594963E-01  0.25440802982E-02  0.17375065370E-01  0.10181608408E+01  0.10178346861E+01 0.  0.
     999903    2    3    3    0    0  0.11479071613E+00 -0.28148334183E-01  0.16757503556E-01  0.12754037660E+00  0.44905417378E-01 0.  0.
         14    1    1    2    0    0  0.18859594963E-01 -0.25440802982E-02 -0.17375065370E-01  0.25769159150E-01  0.00000000000E+00 0.  1.
     999901    1    3    3    0    0 -0.13365031109E+00  0.30692414481E-01  0.61756181408E-03  0.89062046425E+00  0.88000000000E+00 0.  1.
        -11    1    4    4    0    0  0.58145949695E-01 -0.75398907528E-02 -0.13387127053E-01  0.60143808578E-01  0.51100000000E-03 0.  1.
         11    1    4    4    0    0  0.56644766437E-01 -0.20608443430E-01  0.30144630609E-01  0.67396568020E-01  0.51100000000E-03 0. -1.
</event>
<event>
 8    1  0.2959109E+004  0.1043930E+01  0.7957747E-01            NaN
         13   -1    0    0    0    0  0.00000000000E+00  0.00000000000E+00  0.74505805969E-08  0.10566000000E+00  0.10566000000E+00 0. -1.
     999900   -1    0    0    0    0 -0.00000000000E+00 -0.00000000000E+00 -0.74505805969E-08  0.93827000000E+00  0.93827000000E+00 0.  1.
     999902    2    1    2    0    0 -0.32215543224E-02  0.10397325159E-01 -0.86398400689E-02  0.10300328917E+01  0.10299391382E+01 0.  0.
     999903    2    3    3    0    0  0.35811484359E-01  0.92117481927E-01  0.88217884992E-01  0.14009852275E+00  0.45575299844E-01 0.  0.
         14    1    1    2    0    0  0.32215543224E-02 -0.10397325159E-01  0.86398400689E-02  0.13897108301E-01  0.00000000000E+00 0. -1.
     999901    1    3    3    0    0 -0.39033038682E-01 -0.81720156768E-01 -0.96857725061E-01  0.88993436895E+00  0.88000000000E+00 0. -1.
        -11    1    4    4    0    0  0.40860419584E-01  0.82033800641E-01  0.59570050254E-01  0.10930677172E+00  0.51100000000E-03 0.  1.
         11    1    4    4    0    0 -0.50489352247E-02  0.10083681286E-01  0.28647834738E-01  0.30791751028E-01  0.51100000000E-03 0. -1.
</event>
<event>
 8    1  0.2959109E+004  0.1043930E+01  0.7957747E-01            NaN
         13   -1    0    0    0    0  0.00000000000E+00  0.00000000000E+00  0.74505805969E-08  0.10566000000E+00  0.10566000000E+00 0. -1.
     999900   -1    0    0    0    0 -0.00000000000E+00 -0.00000000000E+00 -0.74505805969E-08  0.93827000000E+00  0.93827000000E+00 0.  1.
     999902    2    1    2    0    0 -0.67719752307E-02 -0.12863953995E-01 -0.67918670581E-03  0.10293765724E+01  0.10292736883E+01 0.  0.
     999903    2    3    3    0    0 -0.11550777291E+00  0.38559516894E-01  0.49105339097E-01  0.13980007423E+00  0.47998379989E-01 0.  0.
         14    1    1    2    0    0  0.67719752307E-02  0.12863953995E-01  0.67918670581E-03  0.14553427620E-01  0.00000000000E+00 0. -1.
     999901    1    3    3    0    0  0.10873579768E+00 -0.51423470889E-01 -0.49784525803E-01  0.88957649815E+00  0.88000000000E+00 0. -1.
        -11    1    4    4    0    0 -0.24219945630E-02  0.15126620234E-01  0.42517868677E-02  0.15906586999E-01  0.51100000000E-03 0.  1.
         11    1    4    4    0    0 -0.11308577834E+00  0.23432896659E-01  0.44853552229E-01  0.12389348723E+00  0.51100000000E-03 0. -1.
</event>
<event>
 8    1  0.2959109E+004  0.1043930E+01  0.7957747E-01            NaN
         13   -1    0    0    0    0  0.00000000000E+00  0.00000000000E+00  0.74505805969E-08  0.10566000000E+00  0.10566000000E+00 0. -1.
     999900   -1    0    0    0    0 -0.00000000000E+00 -0.00000000000E+00 -0.74505805969E-08  0.93827000000E+00  0.93827000000E+00 0.  1.
     999902    2    1    2    0    0 -0.31059757072E-02 -0.66726432946E-02  0.12118061941E-01  0.10297518944E+01  0.10296542844E+01 0.  0.
     999903    2    3    3    0    0  0.12943769304E+00 -0.64435224995E-02 -0.24235311228E-01  0.13908391789E+00  0.44287137443E-01 0.  0.
         14    1    1    2    0    0  0.31059757072E-02  0.66726432946E-02 -0.12118061941E-01  0.14178105615E-01  0.00000000000E+00 0.  1.
     999901    1    3    3    0    0 -0.13254366875E+00 -0.22912079516E-03  0.36353373169E-01  0.89066797650E+00  0.88000000000E+00 0. -1.
        -11    1    4    4    0    0  0.67291083167E-01  0.18456867578E-01 -0.16364024056E-01  0.71671390658E-01  0.51100000000E-03 0.  1.
         11    1    4    4    0    0  0.62146609871E-01 -0.24900390077E-01 -0.78712871723E-02  0.67412527227E-01  0.51100000000E-03 0. -1.
</event>
<event>
 8    1  0.2959109E+004  0.1043930E+01  0.7957747E-01            NaN
         13   -1    0    0    0    0  0.00000000000E+00  0.00000000000E+00  0.74505805969E-08  0.10566000000E+00  0.10566000000E+00 0. -1.
     999900   -1    0    0    0    0 -0.00000000000E+00 -0.00000000000E+00 -0.74505805969E-08  0.93827000000E+00  0.93827000000E+00 0.  1.
     999902    2    1    2    0    0 -0.44873053887E-02 -0.13075660863E-01 -0.30592145852E-03  0.10301024042E+01  0.10300095926E+01 0.  0.
     999903    2    3    3    0    0  0.12129371983E+00 -0.31670242278E-01  0.43871816560E-01  0.13986743677E+00  0.43851942543E-01 0.  0.
         14    1    1    2    0    0  0.44873053887E-02  0.13075660863E-01  0.30592145852E-03  0.13827595763E-01  0.00000000000E+00 0.  1.
     999901    1    3    3    0    0 -0.12578102522E+00  0.18594581416E-01 -0.44177738019E-01  0.89023496747E+00  0.88000000000E+00 0.  1.
        -11    1    4    4    0    0  0.56771564193E-01 -0.12208578687E-01  0.43354378618E-01  0.72470153586E-01  0.51100000000E-03 0.  1.
         11    1    4    4    0    0  0.64522155636E-01 -0.19461663591E-01  0.51743794179E-03  0.67397283185E-01  0.51100000000E-03 0. -1.
</event>
<event>
 8    1  0.2959109E+004  0.1043930E+01  0.7957747E-01            NaN
         13   -1    0    0    0    0  0.00000000000E+00  0.00000000000E+00  0.74505805969E-08  0.10566000000E+00  0.10566000000E+00 0.  1.
     999900   -1    0    0    0    0 -0.00000000000E+00 -0.00000000000E+00 -0.74505805969E-08  0.93827000000E+00  0.93827000000E+00 0. -1.
     999902    2    1    2    0    0 -0.91019501593E-04 -0.51273326447E-02  0.12629717739E-01  0.10302988740E+01  0.10302086984E+01 0.  0.
     999903    2    3    3    0    0 -0.33788605686E-01  0.12675171919E+00 -0.91809120532E-02  0.13956697544E+00  0.46765193208E-01 0.  0.
         14    1    1    2    0    0  0.91019501593E-04  0.51273326447E-02 -0.12629717739E-01  0.13631125954E-01  0.00000000000E+00 0. -1.
     999901    1    3    3    0    0  0.33697586184E-01 -0.13187905183E+00  0.21810629792E-01  0.89073189861E+00  0.88000000000E+00 0.  1.
        -11    1    4    4    0    0 -0.50726966966E-02  0.84469336078E-01  0.94810333699E-02  0.85152522593E-01  0.51100000000E-03 0. -1.
         11    1    4    4    0    0 -0.28715908989E-01  0.42282383109E-01 -0.18661945423E-01  0.54414452845E-01  0.51100000000E-03 0.  1.
</event>
<event>
 8    1  0.2959109E+004  0.1043930E+01  0.7957747E-01            NaN
         13   -1    0    0    0    0  0.00000000000E+00  0.00000000000E+00  0.74505805969E-08  0.10566000000E+00  0.10566000000E+00 0.  1.
     999900   -1    0    0    0    0 -0.00000000000E+00 -0.00000000000E+00 -0.74505805969E-08  0.93827000000E+00  0.93827000000E+00 0. -1.
     999902    2    1    2    0    0  0.89299609500E-02  0.73756296425E-02  0.70389498927E-02  0.10303767373E+01  0.10302875957E+01 0.  0.
     999903    2    3    3    0    0 -0.52306815179E-01  0.91014383389E-01  0.82554543390E-01  0.14108039254E+00  0.45484103015E-01 0.  0.
         14    1    1    2    0    0 -0.89299609500E-02 -0.73756296425E-02 -0.70389498927E-02  0.13553262736E-01  0.00000000000E+00 0. -1.
     999901    1    3    3    0    0  0.61236776129E-01 -0.83638753747E-01 -0.75515593497E-01  0.88929634472E+00  0.88000000000E+00 0.  1.
        -11    1    4    4    0    0 -0.56580082703E-01  0.61990484785E-01  0.52077022956E-01  0.98774507862E-01  0.51100000000E-03 0. -1.
         11    1    4    4    0    0  0.42732675243E-02  0.29023898604E-01  0.30477520434E-01  0.42305884677E-01  0.51100000000E-03 0.  1.
</event>
<event>
 8    1  0.2959109E+004  0.1043930E+01  0.7957747E-01            NaN
         13   -1    0    0    0    0  0.00000000000E+00  0.00000000000E+00  0.74505805969E-08  0.10566000000E+00  0.10566000000E+00 0. -1.
     999900   -1    0    0    0    0 -0.00000000000E+00 -0.00000000000E+00 -0.74505805969E-08  0.93827000000E+00  0.93827000000E+00 0.  1.
     999902    2    1    2    0    0  0.38947448552E-02 -0.12454271206E-01  0.55547863313E-02  0.10297478436E+01  0.10296501774E+01 0.  0.
     999903    2    3    3    0    0  0.11620240849E+00 -0.60837185674E-01  0.25806070525E-01  0.14106115403E+00  0.45034797667E-01 0.  0.
         14    1    1    2    0    0 -0.38947448552E-02  0.12454271206E-01 -0.55547863313E-02  0.14182156392E-01  0.00000000000E+00 0.  1.
     999901    1    3    3    0    0 -0.11230766363E+00  0.48382914469E-01 -0.20251284193E-01  0.88868668958E+00  0.88000000000E+00 0.  1.
        -11    1    4    4    0    0  0.63828850626E-01 -0.84708677346E-02  0.79893465464E-02  0.64884270449E-01  0.51100000000E-03 0. -1.
         11    1    4    4    0    0  0.52373557862E-01 -0.52366317940E-01  0.17816723978E-01  0.76176883580E-01  0.51100000000E-03 0.  1.
</event>
<event>
 8    1  0.2959109E+004  0.1043930E+01  0.7957747E-01            NaN
         13   -1    0    0    0    0  0.00000000000E+00  0.00000000000E+00  0.74505805969E-08  0.10566000000E+00  0.10566000000E+00 0.  1.
     999900   -1    0    0    0    0 -0.00000000000E+00 -0.00000000000E+00 -0.74505805969E-08  0.93827000000E+00  0.93827000000E+00 0. -1.
     999902    2    1    2    0    0 -0.42044967704E-02 -0.12231770589E-01  0.37564235470E-02  0.10304613430E+01  0.10303733181E+01 0.  0.
     999903    2    3    3    0    0 -0.54566446861E-01  0.55066095538E-01 -0.10604773493E+00  0.13966266647E+00  0.47431701634E-01 0.  0.
         14    1    1    2    0    0  0.42044967704E-02  0.12231770589E-01 -0.37564235470E-02  0.13468657049E-01  0.00000000000E+00 0. -1.
     999901    1    3    3    0    0  0.50361950091E-01 -0.67297866127E-01  0.10980415848E+00  0.89079867648E+00  0.88000000000E+00 0.  1.
        -11    1    4    4    0    0 -0.29660801124E-01  0.58185891982E-01 -0.70036107952E-01  0.95763660577E-01  0.51100000000E-03 0. -1.
         11    1    4    4    0    0 -0.24905645738E-01 -0.31197964444E-02 -0.36011626982E-01  0.43899005892E-01  0.51100000000E-03 0.  1.
</event>
<event>
 8    1  0.2959109E+004  0.1043930E+01  0.7957747E-01            NaN
         13   -1    0    0    0    0  0.00000000000E+00  0.00000000000E+00  0.74505805969E-08  0.10566000000E+00  0.10566000000E+00 0.  1.
     999900   -1    0    0    0    0 -0.00000000000E+00 -0.00000000000E+00 -0.74505805969E-08  0.93827000000E+00  0.93827000000E+00 0. -1.
     999902    2    1    2    0    0 -0.31438502500E-02 -0.50330484049E-02  0.14216467157E-01  0.10285246987E+01  0.10284093215E+01 0.  0.
     999903    2    3    3    0    0  0.55917440139E-01 -0.87467902681E-01 -0.78807036845E-01  0.13782996223E+00  0.44823602283E-01 0.  0.
         14    1    1    2    0    0  0.31438502500E-02  0.50330484049E-02 -0.14216467157E-01  0.15405301330E-01  0.00000000000E+00 0. -1.
     999901    1    3    3    0    0 -0.59061290389E-01  0.82434854276E-01  0.93023504002E-01  0.89069473644E+00  0.88000000000E+00 0.  1.
        -11    1    4    4    0    0  0.47986599411E-01 -0.33826728250E-01 -0.44364392887E-01  0.73589549152E-01  0.51100000000E-03 0.  1.
         11    1    4    4    0    0  0.79308407279E-02 -0.53641174430E-01 -0.34442643959E-01  0.64240413081E-01  0.51100000000E-03 0. -1.
</event>
<event>
 8    1  0.2959109E+004  0.1043930E+01  0.7957747E-01            NaN
         13   -1    0    0    0    0  0.00000000000E+00  0.00000000000E+00  0.74505805969E-08  0.10566000000E+00  0.10566000000E+00 0. -1.
     999900   -1    0    0    0    0 -0.00000000000E+00 -0.00000000000E+00 -0.74505805969E-08  0.93827000000E+00  0.93827000000E+00 0. -1.
     999902    2    1    2    0    0  0.12830132032E-01 -0.33021402366E-02 -0.52238208985E-02  0.10296890477E+01  0.10295905643E+01 0.  0.
     999903    2    3    3    0    0 -0.12302492751E+00  0.24070555806E-01 -0.38817875034E-01  0.13821026377E+00  0.43367328059E-01 0.  0.
         14    1    1    2    0    0 -0.12830132032E-01  0.33021402366E-02  0.52238208985E-02  0.14240952317E-01  0.00000000000E+00 0.  1.
     999901    1    3    3    0    0  0.13585505955E+00 -0.27372696042E-01  0.33594054135E-01  0.89147878391E+00  0.88000000000E+00 0.  1.
        -11    1    4    4    0    0 -0.64349480208E-01 -0.53763978895E-02 -0.61166119912E-02  0.64864746362E-01  0.51100000000E-03 0.  1.
         11    1    4    4    0    0 -0.58675447306E-01  0.29446953695E-01 -0.32701263043E-01  0.73345517409E-01  0.51100000000E-03 0. -1.
</event>
<event>
 8    1  0.2959109E+004  0.1043930E+01  0.7957747E-01            NaN
         13   -1    0    0    0    0  0.00000000000E+00  0.00000000000E+00  0.74505805969E-08  0.10566000000E+00  0.10566000000E+00 0.  1.
     999900   -1    0    0    0    0 -0.00000000000E+00 -0.00000000000E+00 -0.74505805969E-08  0.93827000000E+00  0.93827000000E+00 0.  1.
     999902    2    1    2    0    0  0.94674772202E-02 -0.54297116725E-03 -0.10348909511E-01  0.10298933383E+01  0.10297976794E+01 0.  0.
     999903    2    3    3    0    0 -0.44852367516E-01  0.95807872125E-01  0.77732800853E-01  0.13860633729E+00  0.44479716447E-01 0.  0.
         14    1    1    2    0    0 -0.94674772202E-02  0.54297116725E-03  0.10348909511E-01  0.14036661664E-01  0.00000000000E+00 0.  1.
     999901    1    3    3    0    0  0.54319844736E-01 -0.96350843292E-01 -0.88081710365E-01  0.89128700105E+00  0.88000000000E+00 0.  1.
        -11    1    4    4    0    0 -0.46937289060E-01  0.57214000670E-01  0.38068770049E-01  0.83222853539E-01  0.51100000000E-03 0. -1.
         11    1    4    4    0    0  0.20849215440E-02  0.38593871454E-01  0.39664030804E-01  0.55383483750E-01  0.51100000000E-03 0.  1.
</event>
<event>
 7    1  0.2959109E+004  0.1043930E+01  0.7957747E-01            NaN
         13   -1    0    0    0    0  0.00000000000E+00  0.00000000000E+00  0.74505805969E-08  0.10566000000E+00  0.10566000000E+00 0. -1.
     999900   -1    0    0    0    0 -0.00000000000E+00 -0.00000000000E+00 -0.74505805969E-08  0.93827000000E+00  0.93827000000E+00 0. -1.
     999903    2    1    2    0    0 -0.11829344376E-01  0.10507045839E+00 -0.36716230985E-02  0.11508919832E+00  0.45302407658E-01 0.  0.
         14    1    1    2    0    0  0.28457866227E-02 -0.13561430568E-01 -0.40643798591E-01  0.42940997479E-01  0.00000000000E+00 0.  1.
     999901    1    1    2    0    0  0.89835577531E-02 -0.91509027820E-01  0.44315421689E-01  0.88589980420E+00  0.88000000000E+00 0.  1.
        -11    1    3    3    0    0 -0.92451921741E-04  0.17978274546E-01  0.17066794008E-01  0.24794424408E-01  0.51100000000E-03 0. -1.
         11    1    3    3    0    0 -0.11736892454E-01  0.87092183843E-01 -0.20738417106E-01  0.90294773913E-01  0.51100000000E-03 0.  1.
</event>
<event>
 8    1  0.2959109E+004  0.1043930E+01  0.7957747E-01            NaN
         13   -1    0    0    0    0  0.00000000000E+00  0.00000000000E+00  0.74505805969E-08  0.10566000000E+00  0.10566000000E+00 0. -1.
     999900   -1    0    0    0    0 -0.00000000000E+00 -0.00000000000E+00 -0.74505805969E-08  0.93827000000E+00  0.93827000000E+00 0. -1.
     999902    2    1    2    0    0  0.12767954897E-01  0.78988393469E-02 -0.84509101361E-02  0.10267012387E+01  0.10265566732E+01 0.  0.
     999903    2    3    3    0    0  0.13035549111E+00  0.15808435267E-01 -0.76480821340E-02  0.13884424853E+00  0.44460898563E-01 0.  0.
         14    1    1    2    0    0 -0.12767954897E-01 -0.78988393469E-02  0.84509101361E-02  0.17228761343E-01  0.00000000000E+00 0. -1.
     999901    1    3    3    0    0 -0.11758753622E+00 -0.79095959204E-02 -0.80282800211E-03  0.88785699013E+00  0.88000000000E+00 0. -1.
        -11    1    4    4    0    0  0.52098686116E-01 -0.14108100905E-01  0.45945356066E-02  0.54172709777E-01  0.51100000000E-03 0. -1.
         11    1    4    4    0    0  0.78256804998E-01  0.29916536173E-01 -0.12242617741E-01  0.84671538755E-01  0.51100000000E-03 0.  1.
</event>
<event>
 8    1  0.2959109E+004  0.1043930E+01  0.7957747E-01            NaN
         13   -1    0    0    0    0  0.00000000000E+00  0.00000000000E+00  0.74505805969E-08  0.10566000000E+00  0.10566000000E+00 0.  1.
     999900   -1    0    0    0    0 -0.00000000000E+00 -0.00000000000E+00 -0.74505805969E-08  0.93827000000E+00  0.93827000000E+00 0. -1.
     999902    2    1    2    0    0  0.30954586818E-02 -0.10513610067E-01  0.68923269010E-02  0.10309831073E+01  0.10309018117E+01 0.  0.
     999903    2    3    3    0    0 -0.43324762950E-01  0.74302569675E-01  0.10161876529E+00  0.14063389520E+00  0.45316796830E-01 0.  0.
         14    1    1    2    0    0 -0.30954586818E-02  0.10513610067E-01 -0.68923269010E-02  0.12946892724E-01  0.00000000000E+00 0. -1.
     999901    1    3    3    0    0  0.46420221632E-01 -0.84816179742E-01 -0.94726438385E-01  0.89034921208E+00  0.88000000000E+00 0. -1.
        -11    1    4    4    0    0 -0.34408450811E-01  0.20319968345E-01  0.59080243740E-01  0.71327266331E-01  0.51100000000E-03 0.  1.
         11    1    4    4    0    0 -0.89163121384E-02  0.53982601329E-01  0.42538521546E-01  0.69306628865E-01  0.51100000000E-03 0. -1.
</event>
<event>
 8    1  0.2959109E+004  0.1043930E+01  0.7957747E-01            NaN
         13   -1    0    0    0    0  0.00000000000E+00  0.00000000000E+00  0.74505805969E-08  0.10566000000E+00  0.10566000000E+00 0. -1.
     999900   -1    0    0    0    0 -0.00000000000E+00 -0.00000000000E+00 -0.74505805969E-08  0.93827000000E+00  0.93827000000E+00 0.  1.
     999902    2    1    2    0    0 -0.59489409860E-02  0.21491028307E-02  0.12585234449E-01  0.10298446648E+01  0.10297483367E+01 0.  0.
     999903    2    3    3    0    0 -0.12796881377E-01 -0.68106360294E-01  0.11456643522E+00  0.14114736554E+00  0.44664014977E-01 0.  0.
         14    1    1    2    0    0  0.59489409860E-02 -0.21491028307E-02 -0.12585234449E-01  0.14085335209E-01  0.00000000000E+00 0.  1.
     999901    1    3    3    0    0  0.68479403911E-02  0.70255463125E-01 -0.10198120077E+00  0.88869729925E+00  0.88000000000E+00 0.  1.
        -11    1    4    4    0    0  0.72872647465E-02  0.28708891350E-02  0.59460296208E-02  0.98469599960E-02  0.51100000000E-03 0.  1.
         11    1    4    4    0    0 -0.20084146124E-01 -0.70977249429E-01  0.10862040560E+00  0.13130040554E+00  0.51100000000E-03 0. -1.
</event>
<event>
 8    1  0.2959109E+004  0.1043930E+01  0.7957747E-01            NaN
         13   -1    0    0    0    0  0.00000000000E+00  0.00000000000E+00  0.74505805969E-08  0.10566000000E+00  0.10566000000E+00 0. -1.
     999900   -1    0    0    0    0 -0.00000000000E+00 -0.00000000000E+00 -0.74505805969E-08  0.93827000000E+00  0.93827000000E+00 0.  1.
     999902    2    1    2    0    0 -0.10260669577E-01 -0.31435639600E-02 -0.87213981109E-02  0.10301015467E+01  0.10300087235E+01 0.  0.
     999903    2    3    3    0    0 -0.54903406288E-01  0.11792531057E+00 -0.28153198944E-01  0.14047901937E+00  0.44955415455E-01 0.  0.
         14    1    1    2    0    0  0.10260669577E-01  0.31435639600E-02  0.87213981109E-02  0.13828453259E-01  0.00000000000E+00 0. -1.
     999901    1    3    3    0    0  0.44642736711E-01 -0.12106887453E+00  0.19431800833E-01  0.88962252737E+00  0.88000000000E+00 0. -1.
        -11    1    4    4    0    0 -0.30629884782E-01  0.20577895027E-01 -0.28844400401E-02  0.37016492552E-01  0.51100000000E-03 0. -1.
         11    1    4    4    0    0 -0.24273521506E-01  0.97347415538E-01 -0.25268758904E-01  0.10346252682E+00  0.51100000000E-03 0.  1.
</event>
<event>
 8    1  0.2959109E+004  0.1043930E+01  0.7957747E-01            NaN
         13   -1    0    0    0    0  0.00000000000E+00  0.00000000000E+00  0.74505805969E-08  0.10566000000E+00  0.10566000000E+00 0.  1.
     999900   -1    0    0    0    0 -0.00000000000E+00 -0.00000000000E+00 -0.74505805969E-08  0.93827000000E+00  0.93827000000E+00 0.  1.
     999902    2    1    2    0    0 -0.85777871634E-02  0.64007430725E-02  0.88481787991E-02  0.10300433801E+01  0.10299497690E+01 0.  0.
     999903    2    3    3    0    0  0.46801605883E-01 -0.65735511876E-01 -0.10288205127E+00  0.13832921021E+00  0.45152033059E-01 0.  0.
         14    1    1    2    0    0  0.85777871634E-02 -0.64007430725E-02 -0.88481787991E-02  0.13886619911E-01  0.00000000000E+00 0.  1.
     999901    1    3    3    0    0 -0.55379393046E-01  0.72136254949E-01  0.11173023007E+00  0.89171416988E+00  0.88000000000E+00 0. -1.
        -11    1    4    4    0    0 -0.67505342895E-02 -0.16927287888E-01 -0.32784711541E-01  0.37512680793E-01  0.51100000000E-03 0. -1.
         11    1    4    4    0    0  0.53552140172E-01 -0.48808223988E-01 -0.70097339727E-01  0.10081652942E+00  0.51100000000E-03 0.  1.
</event>
<event>
 8    1  0.2959109E+004  0.1043930E+01  0.7957747E-01            NaN
         13   -1    0    0    0    0  0.00000000000E+00  0.00000000000E+00  0.74505805969E-08  0.10566000000E+00  0.10566000000E+00 0.  1.
     999900   -1    0    0    0    0 -0.00000000000E+00 -0.00000000000E+00 -0.74505805969E-08  0.93827000000E+00  0.93827000000E+00 0.  1.
     999902    2    1    2    0    0  0.11309051171E-01 -0.86809323753E-02 -0.55074424353E-03  0.10296626756E+01  0.10295638247E+01 0.  0.
     999903    2    3    3    0    0 -0.75647876410E-01 -0.10106524521E+00 -0.41001935472E-01  0.13964432336E+00  0.43388861934E-01 0.  0.
         14    1    1    2    0    0 -0.11309051171E-01  0.86809323753E-02  0.55074424353E-03  0.14267324364E-01  0.00000000000E+00 0.  1.
     999901    1    3    3    0    0  0.86956927581E-01  0.92384312836E-01  0.40451191229E-01  0.89001835227E+00  0.88000000000E+00 0.  1.
        -11    1    4    4    0    0 -0.71762073987E-01 -0.64309448735E-01 -0.26528462294E-01  0.99947590727E-01  0.51100000000E-03 0. -1.
         11    1    4    4    0    0 -0.38858024233E-02 -0.36755796475E-01 -0.14473473179E-01  0.39696732635E-01  0.51100000000E-03 0.  1.
</event>
<event>
 8    1  0.2959109E+004  0.1043930E+01  0.7957747E-01            NaN
         13   -1    0    0    0    0  0.00000000000E+00  0.00000000000E+00  0.74505805969E-08  0.10566000000E+00  0.10566000000E+00 0. -1.
     999900   -1    0    0    0    0 -0.00000000000E+00 -0.00000000000E+00 -0.74505805969E-08  0.93827000000E+00  0.93827000000E+00 0.  1.
     999902    2    1    2    0    0 -0.16076113424E-01 -0.72099390345E-02  0.59632734637E-02  0.10253293206E+01  0.10251605876E+01 0.  0.
     999903    2    3    3    0    0  0.41118046156E-02 -0.12972007084E+00  0.83177992352E-02  0.13661011398E+00  0.41820255154E-01 0.  0.
         14    1    1    2    0    0  0.16076113424E-01  0.72099390345E-02 -0.59632734637E-02  0.18600679399E-01  0.00000000000E+00 0.  1.
     999901    1    3    3    0    0 -0.20187918040E-01  0.12251013180E+00 -0.23545257715E-02  0.88871920662E+00  0.88000000000E+00 0. -1.
        -11    1    4    4    0    0  0.44410587066E-02 -0.65649790943E-01 -0.16598149849E-01  0.67862933570E-01  0.51100000000E-03 0. -1.
         11    1    4    4    0    0 -0.32925409107E-03 -0.64070279896E-01  0.24915949085E-01  0.68747180408E-01  0.51100000000E-03 0.  1.
</event>
<event>
 8    1  0.2959109E+004  0.1043930E+01  0.7957747E-01            NaN
         13   -1    0    0    0    0  0.00000000000E+00  0.00000000000E+00  0.74505805969E-08  0.10566000000E+00  0.10566000000E+00 0.  1.
     999900   -1    0    0    0    0 -0.00000000000E+00 -0.00000000000E+00 -0.74505805969E-08  0.93827000000E+00  0.93827000000E+00 0.  1.
     999902    2    1    2    0    0 -0.28165367441E-02  0.10223318371E-01 -0.95803709911E-02  0.10296390019E+01  0.10295398203E+01 0.  0.
     999903    2    3    3    0    0 -0.22211746248E-01  0.72134050442E-01 -0.11175125239E+00  0.14135526240E+00  0.42382601298E-01 0.  0.
         14    1    1    2    0    0  0.28165367441E-02 -0.10223318371E-01  0.95803709911E-02  0.14290998078E-01  0.00000000000E+00 0.  1.
     999901    1    3    3    0    0  0.19395209504E-01 -0.61910732071E-01  0.10217088140E+00  0.88828373952E+00  0.88000000000E+00 0. -1.
        -11    1    4    4    0    0  0.86121816423E-02  0.43843395573E-01 -0.55673556217E-01  0.71387807019E-01  0.51100000000E-03 0. -1.
         11    1    4    4    0    0 -0.30823927890E-01  0.28290654869E-01 -0.56077696170E-01  0.69967455379E-01  0.51100000000E-03 0.  1.
</event>
<event>
 8    1  0.2959109E+004  0.1043930E+01  0.7957747E-01            NaN
         13   -1    0    0    0    0  0.00000000000E+00  0.00000000000E+00  0.74505805969E-08  0.10566000000E+00  0.10566000000E+00 0.  1.
     999900   -1    0    0    0    0 -0.00000000000E+00 -0.00000000000E+00 -0.74505805969E-08  0.93827000000E+00  0.93827000000E+00 0.  1.
     999902    2    1    2    0    0 -0.24002748989E-02  0.35662754043E-02  0.12596800324E-01  0.10306198904E+01  0.10305339390E+01 0.  0.
     999903    2    3    3    0    0 -0.80692348583E-01 -0.93439180593E-01  0.51185867796E-01  0.14099703578E+00  0.44922549414E-01 0.  0.
         14    1    1    2    0    0  0.24002748989E-02 -0.35662754043E-02 -0.12596800324E-01  0.13310109626E-01  0.00000000000E+00 0. -1.
     999901    1    3    3    0    0  0.78292073684E-01  0.97005455998E-01 -0.38589067473E-01  0.88962285460E+00  0.88000000000E+00 0.  1.
        -11    1    4    4    0    0 -0.18884833505E-01 -0.37614549598E-01 -0.20622725329E-02  0.42142678688E-01  0.51100000000E-03 0. -1.
         11    1    4    4    0    0 -0.61807515078E-01 -0.55824630995E-01  0.53248140329E-01  0.98854357088E-01  0.51100000000E-03 0.  1.
</event>
<event>
 8    1  0.2959109E+004  0.1043930E+01  0.7957747E-01            NaN
         13   -1    0    0    0    0  0.00000000000E+00  0.00000000000E+00  0.74505805969E-08  0.10566000000E+00  0.10566000000E+00 0.  1.
     999900   -1    0    0    0    0 -0.00000000000E+00 -0.00000000000E+00 -0.74505805969E-08  0.93827000000E+00  0.93827000000E+00 0. -1.
     999902    2    1    2    0    0  0.12893887503E-01 -0.65187069432E-03  0.59559261897E-02  0.10297120421E+01  0.10296138787E+01 0.  0.
     999903    2    3    3    0    0  0.14579950909E-01  0.12022763346E+00 -0.52079069861E-01  0.13955320340E+00  0.45777813904E-01 0.  0.
         14    1    1    2    0    0 -0.12893887503E-01  0.65187069432E-03 -0.59559261897E-02  0.14217957910E-01  0.00000000000E+00 0. -1.
     999901    1    3    3    0    0 -0.16860634060E-02 -0.12087950415E+00  0.58034996051E-01  0.89015883869E+00  0.88000000000E+00 0.  1.
        -11    1    4    4    0    0 -0.13687109841E-01  0.67783525933E-01 -0.20530575136E-01  0.72136738214E-01  0.51100000000E-03 0.  1.
         11    1    4    4    0    0  0.28267060751E-01  0.52444107525E-01 -0.31548494726E-01  0.67416465185E-01  0.51100000000E-03 0. -1.
</event>
<event>
 8    1  0.2959109E+004  0.1043930E+01  0.7957747E-01            NaN
         13   -1    0    0    0    0  0.00000000000E+00  0.00000000000E+00  0.74505805969E-08  0.10566000000E+00  0.10566000000E+00 0. -1.
     999900   -1    0    0    0    0 -0.00000000000E+00 -0.00000000000E+00 -0.74505805969E-08  0.93827000000E+00  0.93827000000E+00 0.  1.
     999902    2    1    2    0    0  0.13427829706E-01 -0.19749600493E-02  0.40276878654E-02  0.10297726928E+01  0.10296753709E+01 0.  0.
     999903    2    3    3    0    0  0.11566999899E+00  0.19877496683E-02  0.67563285901E-01  0.14156892312E+00  0.45754372209E-01 0.  0.
         14    1    1    2    0    0 -0.13427829706E-01  0.19749600493E-02 -0.40276878654E-02  0.14157307207E-01  0.00000000000E+00 0.  1.
     999901    1    3    3    0    0 -0.10224216928E+00 -0.39627097176E-02 -0.63535598035E-01  0.88820376968E+00  0.88000000000E+00 0. -1.
        -11    1    4    4    0    0  0.79290263249E-01  0.56122122489E-02  0.68588874867E-01  0.10499113129E+00  0.51100000000E-03 0.  1.
         11    1    4    4    0    0  0.36379735740E-01 -0.36244625806E-02 -0.10255889659E-02  0.36577791831E-01  0.51100000000E-03 0. -1.
</event>
<event>
 8    1  0.2959109E+004  0.1043930E+01  0.7957747E-01            NaN
         13   -1    0    0    0    0  0.00000000000E+00  0.00000000000E+00  0.74505805969E-08  0.10566000000E+00  0.10566000000E+00 0. -1.
     999900   -1    0    0    0    0 -0.00000000000E+00 -0.00000000000E+00 -0.74505805969E-08  0.93827000000E+00  0.93827000000E+00 0.  1.
     999902    2    1    2    0    0 -0.10974502849E-01  0.30761882715E-02 -0.62647267078E-02  0.10309242533E+01  0.10308422122E+01 0.  0.
     999903    2    3    3    0    0 -0.74065671323E-01  0.67237049333E-01 -0.90630128374E-01  0.14232162407E+00  0.45111861394E-01 0.  0.
         14    1    1    2    0    0  0.10974502849E-01 -0.30761882715E-02  0.62647267078E-02  0.13005746721E-01  0.00000000000E+00 0. -1.
     999901    1    3    3    0    0  0.63091168474E-01 -0.64160861061E-01  0.84365401666E-01  0.88860262920E+00  0.88000000000E+00 0.  1.
        -11    1    4    4    0    0 -0.52073914239E-01  0.22093169375E-01 -0.64220844723E-01  0.85582584064E-01  0.51100000000E-03 0. -1.
         11    1    4    4    0    0 -0.21991757083E-01  0.45143879957E-01 -0.26409283652E-01  0.56739040010E-01  0.51100000000E-03 0.  1.
</event>
<event>
 8    1  0.2959109E+004  0.1043930E+01  0.7957747E-01            NaN
         13   -1    0    0    0    0  0.00000000000E+00  0.00000000000E+00  0.74505805969E-08  0.10566000000E+00  0.10566000000E+00 0. -1.
     999900   -1    0    0    0    0 -0.00000000000E+00 -0.00000000000E+00 -0.74505805969E-08  0.93827000000E+00  0.93827000000E+00 0. -1.
     999902    2    1    2    0    0  0.11359615727E-01  0.43801099307E-02 -0.38619198290E-02  0.10311573473E+01  0.10310782386E+01 0.  0.
     999903    2    3    3    0    0  0.25009632276E-01 -0.12676858248E+00 -0.29257480898E-01  0.14097127854E+00  0.48178272854E-01 0.  0.
         14    1    1    2    0    0 -0.11359615727E-01 -0.43801099307E-02  0.38619198290E-02  0.12772652710E-01  0.00000000000E+00 0. -1.
     999901    1    3    3    0    0 -0.13650016548E-01  0.13114869241E+00  0.25395561069E-01  0.89018606875E+00  0.88000000000E+00 0.  1.
        -11    1    4    4    0    0  0.93285729646E-02 -0.13084559500E-01 -0.20250584552E-01  0.25856822437E-01  0.51100000000E-03 0. -1.
         11    1    4    4    0    0  0.15681059311E-01 -0.11368402298E+00 -0.90068963465E-02  0.11511445610E+00  0.51100000000E-03 0.  1.
</event>
<event>
 8    1  0.2959109E+004  0.1043930E+01  0.7957747E-01            NaN
         13   -1    0    0    0    0  0.00000000000E+00  0.00000000000E+00  0.74505805969E-08  0.10566000000E+00  0.10566000000E+00 0. -1.
     999900   -1    0    0    0    0 -0.00000000000E+00 -0.00000000000E+00 -0.74505805969E-08  0.93827000000E+00  0.93827000000E+00 0. -1.
     999902    2    1    2    0    0 -0.10827230043E-01 -0.10554091356E-01 -0.13375238008E-02  0.10287508457E+01  0.10286388559E+01 0.  0.
     999903    2    3    3    0    0 -0.24896899108E-01  0.10158760567E+00  0.78444865297E-01  0.13794281623E+00  0.43985525420E-01 0.  0.
         14    1    1    2    0    0  0.10827230043E-01  0.10554091356E-01  0.13375238008E-02  0.15179154280E-01  0.00000000000E+00 0.  1.
     999901    1    3    3    0    0  0.14069669066E-01 -0.11214169702E+00 -0.79782389098E-01  0.89080802949E+00  0.88000000000E+00 0. -1.
        -11    1    4    4    0    0  0.83036289078E-02  0.15117947940E-01  0.11350260146E-02  0.17293120250E-01  0.51100000000E-03 0.  1.
         11    1    4    4    0    0 -0.33200528016E-01  0.86469657729E-01  0.77309839283E-01  0.12064969598E+00  0.51100000000E-03 0. -1.
</event>
<event>
 8    1  0.2959109E+004  0.1043930E+01  0.7957747E-01            NaN
         13   -1    0    0    0    0  0.00000000000E+00  0.00000000000E+00  0.74505805969E-08  0.10566000000E+00  0.10566000000E+00 0.  1.
     999900   -1    0    0    0    0 -0.00000000000E+00 -0.00000000000E+00 -0.74505805969E-08  0.93827000000E+00  0.93827000000E+00 0.  1.
     999902    2    1    2    0    0  0.10201839246E-01  0.16989323311E-02 -0.93007169680E-02  0.10300207502E+01  0.10299268316E+01 0.  0.
     999903    2    3    3    0    0  0.10045091198E+00 -0.30129761600E-01 -0.83885618367E-01  0.14169599625E+00  0.45197014637E-01 0.  0.
         14    1    1    2    0    0 -0.10201839246E-01 -0.16989323311E-02  0.93007169680E-02  0.13909249843E-01  0.00000000000E+00 0.  1.
     999901    1    3    3    0    0 -0.90249072737E-01  0.31828693931E-01  0.74584901399E-01  0.88832475391E+00  0.88000000000E+00 0. -1.
        -11    1    4    4    0    0  0.34852315076E-01  0.10658092476E-01 -0.33215542001E-01  0.49313407435E-01  0.51100000000E-03 0. -1.
         11    1    4    4    0    0  0.65598596907E-01 -0.40787854076E-01 -0.50670076366E-01  0.92382588815E-01  0.51100000000E-03 0.  1.
</event>
<event>
 8    1  0.2959109E+004  0.1043930E+01  0.7957747E-01            NaN
         13   -1    0    0    0    0  0.00000000000E+00  0.00000000000E+00  0.74505805969E-08  0.10566000000E+00  0.10566000000E+00 0. -1.
     999900   -1    0    0    0    0 -0.00000000000E+00 -0.00000000000E+00 -0.74505805969E-08  0.93827000000E+00  0.93827000000E+00 0.  1.
     999902    2    1    2    0    0 -0.10629200650E-01  0.10442249398E-01 -0.98562734160E-02  0.10260647655E+01  0.10259092242E+01 0.  0.
     999903    2    3    3    0    0 -0.12784897063E+00  0.20458376012E-01 -0.16483730345E-02  0.13819756432E+00  0.48290218555E-01 0.  0.
         14    1    1    2    0    0  0.10629200650E-01 -0.10442249398E-01  0.98562734160E-02  0.17865234524E-01  0.00000000000E+00 0.  1.
     999901    1    3    3    0    0  0.11721976998E+00 -0.10016126615E-01 -0.82079003814E-02  0.88786720116E+00  0.88000000000E+00 0. -1.
        -11    1    4    4    0    0 -0.68004728486E-01 -0.12310009118E-01  0.68035167607E-02  0.69445866560E-01  0.51100000000E-03 0. -1.
         11    1    4    4    0    0 -0.59844242147E-01  0.32768385130E-01 -0.84518897952E-02  0.68751697756E-01  0.51100000000E-03 0.  1.
</event>
<event>
 8    1  0.2959109E+004  0.1043930E+01  0.7957747E-01            NaN
         13   -1    0    0    0    0  0.00000000000E+00  0.00000000000E+00  0.74505805969E-08  0.10566000000E+00  0.10566000000E+00 0.  1.
     999900   -1    0    0    0    0 -0.00000000000E+00 -0.00000000000E+00 -0.74505805969E-08  0.93827000000E+00  0.93827000000E+00 0.  1.
     999902    2    1    2    0    0 -0.11572772637E-01 -0.24666677520E-01  0.52588105850E-02  0.10161806012E+01  0.10158016465E+01 0.  0.
     999903    2    3    3    0    0 -0.49813140959E-01 -0.99592185529E-01  0.52898912147E-01  0.13088644848E+00  0.43966067126E-01 0.  0.
         14    1    1    2    0    0  0.11572772637E-01  0.24666677520E-01 -0.52588105850E-02  0.27749398825E-01  0.00000000000E+00 0. -1.
     999901    1    3    3    0    0  0.38240368322E-01  0.74925508009E-01 -0.47640101562E-01  0.88529415270E+00  0.88000000000E+00 0.  1.
        -11    1    4    4    0    0 -0.19224611953E-01 -0.73507713575E-01  0.19055998927E-01  0.78334933943E-01  0.51100000000E-03 0. -1.
         11    1    4    4    0    0 -0.30588529006E-01 -0.26084471955E-01  0.33842913220E-01  0.52551514537E-01  0.51100000000E-03 0.  1.
</event>
<event>
 8    1  0.2959109E+004  0.1043930E+01  0.7957747E-01            NaN
         13   -1    0    0    0    0  0.00000000000E+00  0.00000000000E+00  0.74505805969E-08  0.10566000000E+00  0.10566000000E+00 0.  1.
     999900   -1    0    0    0    0 -0.00000000000E+00 -0.00000000000E+00 -0.74505805969E-08  0.93827000000E+00  0.93827000000E+00 0.  1.
     999902    2    1    2    0    0 -0.11464378977E-01  0.63319831758E-02 -0.22467496271E-02  0.10306418895E+01  0.10305562239E+01 0.  0.
     999903    2    3    3    0    0 -0.11000058170E+00  0.13644208226E-01 -0.78091819095E-01  0.14187008166E+00  0.41743208644E-01 0.  0.
         14    1    1    2    0    0  0.11464378977E-01 -0.63319831758E-02  0.22467496271E-02  0.13288110481E-01  0.00000000000E+00 0.  1.
     999901    1    3    3    0    0  0.98536202725E-01 -0.73122250504E-02  0.75845069468E-01  0.88877180786E+00  0.88000000000E+00 0. -1.
        -11    1    4    4    0    0 -0.48716477153E-01 -0.14726951942E-01 -0.34569590226E-01  0.61526384170E-01  0.51100000000E-03 0. -1.
         11    1    4    4    0    0 -0.61284104549E-01  0.28371160168E-01 -0.43522228869E-01  0.80343697490E-01  0.51100000000E-03 0.  1.
</event>
<event>
 8    1  0.2959109E+004  0.1043930E+01  0.7957747E-01            NaN
         13   -1    0    0    0    0  0.00000000000E+00  0.00000000000E+00  0.74505805969E-08  0.10566000000E+00  0.10566000000E+00 0.  1.
     999900   -1    0    0    0    0 -0.00000000000E+00 -0.00000000000E+00 -0.74505805969E-08  0.93827000000E+00  0.93827000000E+00 0. -1.
     999902    2    1    2    0    0 -0.76525840349E-02  0.12672773056E-01  0.31793442772E-02  0.10287883538E+01  0.10286769208E+01 0.  0.
     999903    2    3    3    0    0  0.50816687122E-01  0.76735615987E-01  0.94489089053E-01  0.13982256538E+00  0.46383956141E-01 0.  0.
         14    1    1    2    0    0  0.76525840349E-02 -0.12672773056E-01 -0.31793442772E-02  0.15141646191E-01  0.00000000000E+00 0. -1.
     999901    1    3    3    0    0 -0.58469271156E-01 -0.64062842931E-01 -0.91309744776E-01  0.88896578843E+00  0.88000000000E+00 0.  1.
        -11    1    4    4    0    0  0.54260227868E-01  0.50718973423E-01  0.55069814473E-01  0.92463680332E-01  0.51100000000E-03 0.  1.
         11    1    4    4    0    0 -0.34435407469E-02  0.26016642564E-01  0.39419274581E-01  0.47358885044E-01  0.51100000000E-03 0. -1.
</event>
<event>
 8    1  0.2959109E+004  0.1043930E+01  0.7957747E-01            NaN
         13   -1    0    0    0    0  0.00000000000E+00  0.00000000000E+00  0.74505805969E-08  0.10566000000E+00  0.10566000000E+00 0. -1.
     999900   -1    0    0    0    0 -0.00000000000E+00 -0.00000000000E+00 -0.74505805969E-08  0.93827000000E+00  0.93827000000E+00 0.  1.
     999902    2    1    2    0    0  0.11298953081E-01  0.73998848246E-02 -0.19426633890E-02  0.10302845401E+01  0.10301941734E+01 0.  0.
     999903    2    3    3    0    0  0.81437406844E-01 -0.10522518442E+00  0.11151441685E-02  0.14033332841E+00  0.44584849964E-01 0.  0.
         14    1    1    2    0    0 -0.11298953081E-01 -0.73998848246E-02  0.19426633890E-02  0.13645459948E-01  0.00000000000E+00 0.  1.
     999901    1    3    3    0    0 -0.70138453763E-01  0.11262506924E+00 -0.30578075574E-02  0.88995121164E+00  0.88000000000E+00 0.  1.
        -11    1    4    4    0    0  0.59376046619E-01 -0.50561238680E-01  0.15819922401E-01  0.79576911443E-01  0.51100000000E-03 0.  1.
         11    1    4    4    0    0  0.22061360225E-01 -0.54663945739E-01 -0.14704778232E-01  0.60756416966E-01  0.51100000000E-03 0. -1.
</event>
<event>
 8    1  0.2959109E+004  0.1043930E+01  0.7957747E-01            NaN
         13   -1    0    0    0    0  0.00000000000E+00  0.00000000000E+00  0.74505805969E-08  0.10566000000E+00  0.10566000000E+00 0. -1.
     999900   -1    0    0    0    0 -0.00000000000E+00 -0.00000000000E+00 -0.74505805969E-08  0.93827000000E+00  0.93827000000E+00 0.  1.
     999902    2    1    2    0    0  0.18600379807E-02 -0.13387050948E-01 -0.83296727080E-03  0.10303887036E+01  0.10302997203E+01 0.  0.
     999903    2    3    3    0    0  0.11863297658E+00  0.24831498136E-01 -0.54670191795E-01  0.14022297551E+00  0.44533880998E-01 0.  0.
         14    1    1    2    0    0 -0.18600379807E-02  0.13387050948E-01  0.83296727080E-03  0.13541296424E-01  0.00000000000E+00 0.  1.
     999901    1    3    3    0    0 -0.11677293860E+00 -0.38218549084E-01  0.53837224524E-01  0.89016572807E+00  0.88000000000E+00 0. -1.
        -11    1    4    4    0    0  0.51485587982E-01  0.33465644524E-01 -0.24898026404E-01  0.66263775723E-01  0.51100000000E-03 0. -1.
         11    1    4    4    0    0  0.67147388599E-01 -0.86341463882E-02 -0.29772165391E-01  0.73959199784E-01  0.51100000000E-03 0.  1.
</event>
<event>
 8    1  0.2959109E+004  0.1043930E+01  0.7957747E-01            NaN
         13   -1    0    0    0    0  0.00000000000E+00  0.00000000000E+00  0.74505805969E-08  0.10566000000E+00  0.10566000000E+00 0. -1.
     999900   -1    0    0    0    0 -0.00000000000E+00 -0.00000000000E+00 -0.74505805969E-08  0.93827000000E+00  0.93827000000E+00 0.  1.
     999902    2    1    2    0    0  0.69349042494E-02 -0.19683086985E-02  0.12358910436E-01  0.10296223166E+01  0.10295229017E+01 0.  0.
     999903    2    3    3    0    0  0.65062877360E-01  0.11379036278E+00 -0.16017037321E-01  0.13968741694E+00  0.45547824264E-01 0.  0.
         14    1    1    2    0    0 -0.69349042494E-02  0.19683086985E-02 -0.12358910436E-01  0.14307683364E-01  0.00000000000E+00 0.  1.
     999901    1    3    3    0    0 -0.58127973110E-01 -0.11575867148E+00  0.28375947756E-01  0.88993489969E+00  0.88000000000E+00 0.  1.
        -11    1    4    4    0    0  0.57519186399E-03  0.22495910815E-01 -0.16504497544E-01  0.27911581991E-01  0.51100000000E-03 0.  1.
         11    1    4    4    0    0  0.64487685496E-01  0.91294451968E-01  0.48746022355E-03  0.11177583495E+00  0.51100000000E-03 0. -1.
</event>
<event>
 8    1  0.2959109E+004  0.1043930E+01  0.7957747E-01            NaN
         13   -1    0    0    0    0  0.00000000000E+00  0.00000000000E+00  0.74505805969E-08  0.10566000000E+00  0.10566000000E+00 0.  1.
     999900   -1    0    0    0    0 -0.00000000000E+00 -0.00000000000E+00 -0.74505805969E-08  0.93827000000E+00  0.93827000000E+00 0.  1.
     999902    2    1    2    0    0  0.63214529222E-03 -0.13961128972E-01  0.25922753547E-02  0.10297161820E+01  0.10296180762E+01 0.  0.
     999903    2    3    3    0    0 -0.70296259155E-01 -0.11374707885E+00 -0.53769210678E-02  0.14120530284E+00  0.45056234525E-01 0.  0.
         14    1    1    2    0    0 -0.63214529222E-03  0.13961128972E-01 -0.25922753547E-02  0.14213817972E-01  0.00000000000E+00 0. -1.
     999901    1    3    3    0    0  0.70928404447E-01  0.99785949883E-01  0.79691964225E-02  0.88851087919E+00  0.88000000000E+00 0.  1.
        -11    1    4    4    0    0 -0.87754307620E-02 -0.42448081862E-01  0.12999236013E-01  0.45255818374E-01  0.51100000000E-03 0.  1.
         11    1    4    4    0    0 -0.61520828393E-01 -0.71298996993E-01 -0.18376157081E-01  0.95949484461E-01  0.51100000000E-03 0. -1.
</event>
<event>
 8    1  0.2959109E+004  0.1043930E+01  0.7957747E-01            NaN
         13   -1    0    0    0    0  0.00000000000E+00  0.00000000000E+00  0.74505805969E-08  0.10566000000E+00  0.10566000000E+00 0. -1.
     999900   -1    0    0    0    0 -0.00000000000E+00 -0.00000000000E+00 -0.74505805969E-08  0.93827000000E+00  0.93827000000E+00 0.  1.
     999902    2    1    2    0    0  0.19797822547E-02 -0.62903974453E-02 -0.12049710836E-01  0.10301937644E+01  0.10301021833E+01 0.  0.
     999903    2    3    3    0    0 -0.95735780822E-01 -0.80608803001E-01  0.43230399029E-01  0.13995365788E+00  0.45332550150E-01 0.  0.
         14    1    1    2    0    0 -0.19797822547E-02  0.62903974453E-02  0.12049710836E-01  0.13736235621E-01  0.00000000000E+00 0. -1.
     999901    1    3    3    0    0  0.97715563077E-01  0.74318405556E-01 -0.55280109865E-01  0.89024010650E+00  0.88000000000E+00 0.  1.
        -11    1    4    4    0    0 -0.69456143889E-01 -0.32095917157E-01  0.14986399162E-01  0.77968949608E-01  0.51100000000E-03 0. -1.
         11    1    4    4    0    0 -0.26279636933E-01 -0.48512885844E-01  0.28243999867E-01  0.61984708273E-01  0.51100000000E-03 0.  1.
</event>
<event>
 8    1  0.2959109E+004  0.1043930E+01  0.7957747E-01            NaN
         13   -1    0    0    0    0  0.00000000000E+00  0.00000000000E+00  0.74505805969E-08  0.10566000000E+00  0.10566000000E+00 0. -1.
     999900   -1    0    0    0    0 -0.00000000000E+00 -0.00000000000E+00 -0.74505805969E-08  0.93827000000E+00  0.93827000000E+00 0. -1.
     999902    2    1    2    0    0 -0.51995213121E-02 -0.11911064693E-02  0.13153529152E-01  0.10297360194E+01  0.10296381891E+01 0.  0.
     999903    2    3    3    0    0 -0.90812592107E-01  0.83802328259E-01  0.50168566273E-01  0.14073455999E+00  0.44939673194E-01 0.  0.
         14    1    1    2    0    0  0.51995213121E-02  0.11911064693E-02 -0.13153529152E-01  0.14193980613E-01  0.00000000000E+00 0.  1.
     999901    1    3    3    0    0  0.85613070794E-01 -0.84993434728E-01 -0.37015037121E-01  0.88900145940E+00  0.88000000000E+00 0.  1.
        -11    1    4    4    0    0 -0.64292453159E-02  0.27797827745E-01  0.20592206694E-02  0.28610416519E-01  0.51100000000E-03 0. -1.
         11    1    4    4    0    0 -0.84383346791E-01  0.56004500514E-01  0.48109345603E-01  0.11212414347E+00  0.51100000000E-03 0.  1.
</event>
<event>
 8    1  0.2959109E+004  0.1043930E+01  0.7957747E-01            NaN
         13   -1    0    0    0    0  0.00000000000E+00  0.00000000000E+00  0.74505805969E-08  0.10566000000E+00  0.10566000000E+00 0. -1.
     999900   -1    0    0    0    0 -0.00000000000E+00 -0.00000000000E+00 -0.74505805969E-08  0.93827000000E+00  0.93827000000E+00 0.  1.
     999902    2    1    2    0    0 -0.53949219876E-02 -0.13497960944E-01 -0.18228023541E-02  0.10292799918E+01  0.10291757278E+01 0.  0.
     999903    2    3    3    0    0  0.59931117677E-01  0.10410661309E+00 -0.49992706776E-01  0.13775395906E+00  0.45243306143E-01 0.  0.
         14    1    1    2    0    0  0.53949219876E-02  0.13497960944E-01  0.18228023541E-02  0.14650008237E-01  0.00000000000E+00 0. -1.
     999901    1    3    3    0    0 -0.65326039664E-01 -0.11760457404E+00  0.48169904422E-01  0.89152603270E+00  0.88000000000E+00 0. -1.
        -11    1    4    4    0    0  0.48577729741E-02  0.28147580285E-01  0.49970953838E-02  0.29002005404E-01  0.51100000000E-03 0. -1.
         11    1    4    4    0    0  0.55073344703E-01  0.75959032808E-01 -0.54989802160E-01  0.10875195366E+00  0.51100000000E-03 0.  1.
</event>
<event>
 8    1  0.2959109E+004  0.1043930E+01  0.7957747E-01            NaN
         13   -1    0    0    0    0  0.00000000000E+00  0.00000000000E+00  0.74505805969E-08  0.10566000000E+00  0.10566000000E+00 0. -1.
     999900   -1    0    0    0    0 -0.00000000000E+00 -0.00000000000E+00 -0.74505805969E-08  0.93827000000E+00  0.93827000000E+00 0. -1.
     999902    2    1    2    0    0  0.77329606896E-02 -0.10993361148E-01 -0.44721392636E-04  0.10304892162E+01  0.10304015576E+01 0.  0.
     999903    2    3    3    0    0 -0.11550013953E+00 -0.23338357354E-01  0.58759097243E-01  0.13987331409E+00  0.47190585182E-01 0.  0.
         14    1    1    2    0    0 -0.77329606896E-02  0.10993361148E-01  0.44721392636E-04  0.13440783845E-01  0.00000000000E+00 0.  1.
     999901    1    3    3    0    0  0.12323310022E+00  0.12344996206E-01 -0.58803818636E-01  0.89061590206E+00  0.88000000000E+00 0.  1.
        -11    1    4    4    0    0 -0.33386720058E-02 -0.13701416720E-01  0.38909507464E-02  0.14638175078E-01  0.51100000000E-03 0.  1.
         11    1    4    4    0    0 -0.11216146753E+00 -0.96369406337E-02  0.54868146497E-01  0.12523513901E+00  0.51100000000E-03 0. -1.
</event>
<event>
 8    1  0.2959109E+004  0.1043930E+01  0.7957747E-01            NaN
         13   -1    0    0    0    0  0.00000000000E+00  0.00000000000E+00  0.74505805969E-08  0.10566000000E+00  0.10566000000E+00 0.  1.
     999900   -1    0    0    0    0 -0.00000000000E+00 -0.00000000000E+00 -0.74505805969E-08  0.93827000000E+00  0.93827000000E+00 0. -1.
     999902    2    1    2    0    0 -0.42376775593E-02 -0.14193438930E-02 -0.11413125976E-01  0.10316730880E+01  0.10316002756E+01 0.  0.
     999903    2    3    3    0    0  0.10042366758E-01 -0.10886602410E+00  0.76254537845E-01  0.14069927912E+00  0.45043004689E-01 0.  0.
         14    1    1    2    0    0  0.42376775593E-02  0.14193438930E-02  0.11413125976E-01  0.12256912039E-01  0.00000000000E+00 0.  1.
     999901    1    3    3    0    0 -0.14280044318E-01  0.10744668020E+00 -0.87667663821E-01  0.89097380884E+00  0.88000000000E+00 0. -1.
        -11    1    4    4    0    0  0.12477271337E-01 -0.81714518994E-01  0.31839308292E-01  0.88582998301E-01  0.51100000000E-03 0.  1.
         11    1    4    4    0    0 -0.24349045786E-02 -0.27151505103E-01  0.44415229553E-01  0.52116280824E-01  0.51100000000E-03 0. -1.
</event>
<event>
 8    1  0.2959109E+004  0.1043930E+01  0.7957747E-01            NaN
         13   -1    0    0    0    0  0.00000000000E+00  0.00000000000E+00  0.74505805969E-08  0.10566000000E+00  0.10566000000E+00 0. -1.
     999900   -1    0    0    0    0 -0.00000000000E+00 -0.00000000000E+00 -0.74505805969E-08  0.93827000000E+00  0.93827000000E+00 0.  1.
     999902    2    1    2    0    0 -0.95819484119E-02  0.20792750140E-02 -0.93142053688E-02  0.10304062601E+01  0.10303175090E+01 0.  0.
     999903    2    3    3    0    0 -0.10573922441E+00  0.81020399125E-01  0.14452694598E-01  0.14133776533E+00  0.44971044849E-01 0.  0.
         14    1    1    2    0    0  0.95819484119E-02 -0.20792750140E-02  0.93142053688E-02  0.13523739927E-01  0.00000000000E+00 0. -1.
     999901    1    3    3    0    0  0.96157276000E-01 -0.78941124111E-01 -0.23766899967E-01  0.88906849474E+00  0.88000000000E+00 0.  1.
        -11    1    4    4    0    0 -0.46213623832E-01  0.61022736655E-01 -0.14341394470E-02  0.76562335998E-01  0.51100000000E-03 0. -1.
         11    1    4    4    0    0 -0.59525600580E-01  0.19997662470E-01  0.15886834045E-01  0.64775429336E-01  0.51100000000E-03 0.  1.
</event>
<event>
 8    1  0.2959109E+004  0.1043930E+01  0.7957747E-01            NaN
         13   -1    0    0    0    0  0.00000000000E+00  0.00000000000E+00  0.74505805969E-08  0.10566000000E+00  0.10566000000E+00 0. -1.
     999900   -1    0    0    0    0 -0.00000000000E+00 -0.00000000000E+00 -0.74505805969E-08  0.93827000000E+00  0.93827000000E+00 0. -1.
     999902    2    1    2    0    0  0.12422095529E-01  0.81053958426E-02  0.13950501366E-02  0.10290319443E+01  0.10289240936E+01 0.  0.
     999903    2    3    3    0    0 -0.58334090089E-01  0.10112712702E+00  0.61004218925E-01  0.13930573175E+00  0.45332221281E-01 0.  0.
         14    1    1    2    0    0 -0.12422095529E-01 -0.81053958426E-02 -0.13950501366E-02  0.14898055711E-01  0.00000000000E+00 0. -1.
     999901    1    3    3    0    0  0.70756185618E-01 -0.93021731176E-01 -0.59609168788E-01  0.88972621254E+00  0.88000000000E+00 0. -1.
        -11    1    4    4    0    0 -0.63216090647E-01  0.73479845277E-01  0.43744538757E-01  0.10634569841E+00  0.51100000000E-03 0. -1.
         11    1    4    4    0    0  0.48820005583E-02  0.27647281742E-01  0.17259680168E-01  0.32960033338E-01  0.51100000000E-03 0.  1.
</event>
<event>
 8    1  0.2959109E+004  0.1043930E+01  0.7957747E-01            NaN
         13   -1    0    0    0    0  0.00000000000E+00  0.00000000000E+00  0.74505805969E-08  0.10566000000E+00  0.10566000000E+00 0.  1.
     999900   -1    0    0    0    0 -0.00000000000E+00 -0.00000000000E+00 -0.74505805969E-08  0.93827000000E+00  0.93827000000E+00 0.  1.
     999902    2    1    2    0    0 -0.27839167090E-02 -0.13843876407E-01 -0.76488758943E-02  0.10278704730E+01  0.10277450077E+01 0.  0.
     999903    2    3    3    0    0 -0.11614010735E+00  0.30363299685E-01 -0.52633465367E-01  0.13836076888E+00  0.44305374209E-01 0.  0.
         14    1    1    2    0    0  0.27839167090E-02  0.13843876407E-01  0.76488758943E-02  0.16059527037E-01  0.00000000000E+00 0.  1.
     999901    1    3    3    0    0  0.11335619064E+00 -0.44207176092E-01  0.44984589472E-01  0.88950970409E+00  0.88000000000E+00 0. -1.
        -11    1    4    4    0    0 -0.92862436160E-01  0.31499257103E-01 -0.23115858813E-01  0.10074839600E+00  0.51100000000E-03 0. -1.
         11    1    4    4    0    0 -0.23277671192E-01 -0.11359574181E-02 -0.29517606554E-01  0.37612372872E-01  0.51100000000E-03 0.  1.
</event>
<event>
 8    1  0.2959109E+004  0.1043930E+01  0.7957747E-01            NaN
         13   -1    0    0    0    0  0.00000000000E+00  0.00000000000E+00  0.74505805969E-08  0.10566000000E+00  0.10566000000E+00 0.  1.
     999900   -1    0    0    0    0 -0.00000000000E+00 -0.00000000000E+00 -0.74505805969E-08  0.93827000000E+00  0.93827000000E+00 0. -1.
     999902    2    1    2    0    0  0.90779898189E-02  0.96070325578E-02  0.25681544060E-02  0.10304652166E+01  0.10303772427E+01 0.  0.
     999903    2    3    3    0    0  0.72361386660E-01  0.82604438909E-01  0.77565900943E-01  0.14200696122E+00  0.45714816403E-01 0.  0.
         14    1    1    2    0    0 -0.90779898189E-02 -0.96070325578E-02 -0.25681544060E-02  0.13464783354E-01  0.00000000000E+00 0. -1.
     999901    1    3    3    0    0 -0.63283396841E-01 -0.72997406352E-01 -0.74997746537E-01  0.88845825543E+00  0.88000000000E+00 0. -1.
        -11    1    4    4    0    0  0.55927103128E-01  0.30446201565E-01  0.34694202854E-01  0.72517314393E-01  0.51100000000E-03 0.  1.
         11    1    4    4    0    0  0.16434283532E-01  0.52158237345E-01  0.42871698089E-01  0.69489646827E-01  0.51100000000E-03 0. -1.
</event>
<event>
 8    1  0.2959109E+004  0.1043930E+01  0.7957747E-01            NaN
         13   -1    0    0    0    0  0.00000000000E+00  0.00000000000E+00  0.74505805969E-08  0.10566000000E+00  0.10566000000E+00 0. -1.
     999900   -1    0    0    0    0 -0.00000000000E+00 -0.00000000000E+00 -0.74505805969E-08  0.93827000000E+00  0.93827000000E+00 0.  1.
     999902    2    1    2    0    0  0.36017623667E-02  0.12539700507E-01 -0.40647089753E-02  0.10302647653E+01  0.10301741348E+01 0.  0.
     999903    2    3    3    0    0  0.63694757575E-02 -0.44631022581E-01  0.12383045144E+00  0.13917929021E+00  0.44770478237E-01 0.  0.
         14    1    1    2    0    0 -0.36017623667E-02 -0.12539700507E-01  0.40647089753E-02  0.13665234722E-01  0.00000000000E+00 0. -1.
     999901    1    3    3    0    0 -0.27677133908E-02  0.57170723088E-01 -0.12789516042E+00  0.89108547507E+00  0.88000000000E+00 0.  1.
        -11    1    4    4    0    0 -0.18207863026E-01 -0.97930150482E-02  0.45995832725E-01  0.50431212248E-01  0.51100000000E-03 0.  1.
         11    1    4    4    0    0  0.24577338784E-01 -0.34838007533E-01  0.77834618717E-01  0.88748077964E-01  0.51100000000E-03 0. -1.
</event>
<event>
 8    1  0.2959109E+004  0.1043930E+01  0.7957747E-01            NaN
         13   -1    0    0    0    0  0.00000000000E+00  0.00000000000E+00  0.74505805969E-08  0.10566000000E+00  0.10566000000E+00 0.  1.
     999900   -1    0    0    0    0 -0.00000000000E+00 -0.00000000000E+00 -0.74505805969E-08  0.93827000000E+00  0.93827000000E+00 0. -1.
     999902    2    1    2    0    0  0.10659439987E-01 -0.37272626203E-02  0.87447191111E-02  0.10296476242E+01  0.10295485630E+01 0.  0.
     999903    2    3    3    0    0  0.29599736691E-01  0.89092353942E-02 -0.12822426396E+00  0.13876103303E+00  0.43100388995E-01 0.  0.
         14    1    1    2    0    0 -0.10659439987E-01  0.37272626203E-02 -0.87447191111E-02  0.14282375846E-01  0.00000000000E+00 0. -1.
     999901    1    3    3    0    0 -0.18940296703E-01 -0.12636498015E-01  0.13696898307E+00  0.89088659112E+00  0.88000000000E+00 0.  1.
        -11    1    4    4    0    0  0.20169810583E-01  0.25359617526E-01 -0.63165505142E-01  0.70993475903E-01  0.51100000000E-03 0. -1.
         11    1    4    4    0    0  0.94299261072E-02 -0.16450382132E-01 -0.65058758819E-01  0.67767557126E-01  0.51100000000E-03 0.  1.
</event>
<event>
 8    1  0.2959109E+004  0.1043930E+01  0.7957747E-01            NaN
         13   -1    0    0    0    0  0.00000000000E+00  0.00000000000E+00  0.74505805969E-08  0.10566000000E+00  0.10566000000E+00 0. -1.
     999900   -1    0    0    0    0 -0.00000000000E+00 -0.00000000000E+00 -0.74505805969E-08  0.93827000000E+00  0.93827000000E+00 0.  1.
     999902    2    1    2    0    0 -0.11345713299E-01  0.72515231678E-02  0.28353554718E-02  0.10301695843E+01  0.10300776784E+01 0.  0.
     999903    2    3    3    0    0  0.91843476332E-01  0.45659359197E-01  0.83961693495E-01  0.13960535114E+00  0.43818795811E-01 0.  0.
         14    1    1    2    0    0  0.11345713299E-01 -0.72515231678E-02 -0.28353554718E-02  0.13760415661E-01  0.00000000000E+00 0.  1.
     999901    1    3    3    0    0 -0.10318918963E+00 -0.38407836030E-01 -0.81126338023E-01  0.89056423320E+00  0.88000000000E+00 0.  1.
        -11    1    4    4    0    0  0.40370541939E-01  0.40400300209E-01  0.28774033887E-01  0.63954445198E-01  0.51100000000E-03 0. -1.
         11    1    4    4    0    0  0.51472934393E-01  0.52590589887E-02  0.55187659607E-01  0.75650905946E-01  0.51100000000E-03 0.  1.
</event>
<event>
 8    1  0.2959109E+004  0.1043930E+01  0.7957747E-01            NaN
         13   -1    0    0    0    0  0.00000000000E+00  0.00000000000E+00  0.74505805969E-08  0.10566000000E+00  0.10566000000E+00 0.  1.
     999900   -1    0    0    0    0 -0.00000000000E+00 -0.00000000000E+00 -0.74505805969E-08  0.93827000000E+00  0.93827000000E+00 0.  1.
     999902    2    1    2    0    0  0.23552175486E-02 -0.72924707562E-02 -0.12514689642E-01  0.10292553744E+01  0.10291507572E+01 0.  0.
     999903    2    3    3    0    0  0.11393042560E+00  0.10733321235E-01 -0.68237980909E-01  0.14027897347E+00  0.43891027525E-01 0.  0.
         14    1    1    2    0    0 -0.23552175486E-02  0.72924707562E-02  0.12514689642E-01  0.14674625592E-01  0.00000000000E+00 0.  1.
     999901    1    3    3    0    0 -0.11157520805E+00 -0.18025791991E-01  0.55723291266E-01  0.88897640093E+00  0.88000000000E+00 0.  1.
        -11    1    4    4    0    0  0.71375928888E-01  0.18658022019E-01 -0.62344370133E-01  0.96590509982E-01  0.51100000000E-03 0. -1.
         11    1    4    4    0    0  0.42554496715E-01 -0.79247007847E-02 -0.58936107758E-02  0.43688463491E-01  0.51100000000E-03 0.  1.
</event>
<event>
 8    1  0.2959109E+004  0.1043930E+01  0.7957747E-01            NaN
         13   -1    0    0    0    0  0.00000000000E+00  0.00000000000E+00  0.74505805969E-08  0.10566000000E+00  0.10566000000E+00 0. -1.
     999900   -1    0    0    0    0 -0.00000000000E+00 -0.00000000000E+00 -0.74505805969E-08  0.93827000000E+00  0.93827000000E+00 0. -1.
     999902    2    1    2    0    0  0.21713066089E-01 -0.30208986205E-02 -0.20244855596E-03  0.10220068603E+01  0.10217716959E+01 0.  0.
     999903    2    3    3    0    0 -0.42697310196E-01 -0.11434646330E+00 -0.24638538062E-01  0.13232197207E+00  0.44764637475E-01 0.  0.
         14    1    1    2    0    0 -0.21713066089E-01  0.30208986205E-02  0.20244855596E-03  0.21923139667E-01  0.00000000000E+00 0. -1.
     999901    1    3    3    0    0  0.64410376284E-01  0.11132556468E+00  0.24436089506E-01  0.88968488826E+00  0.88000000000E+00 0.  1.
        -11    1    4    4    0    0 -0.31442897014E-01 -0.39987888727E-01  0.57736639772E-02  0.51198470037E-01  0.51100000000E-03 0.  1.
         11    1    4    4    0    0 -0.11254413182E-01 -0.74358574575E-01 -0.30412202040E-01  0.81123502037E-01  0.51100000000E-03 0. -1.
</event>
<event>
 8    1  0.2959109E+004  0.1043930E+01  0.7957747E-01            NaN
         13   -1    0    0    0    0  0.00000000000E+00  0.00000000000E+00  0.74505805969E-08  0.10566000000E+00  0.10566000000E+00 0. -1.
     999900   -1    0    0    0    0 -0.00000000000E+00 -0.00000000000E+00 -0.74505805969E-08  0.93827000000E+00  0.93827000000E+00 0.  1.
     999902    2    1    2    0    0  0.10097644309E-01  0.45130082879E-04  0.80949872711E-02  0.10309880807E+01  0.10309068480E+01 0.  0.
     999903    2    3    3    0    0  0.88405792248E-01 -0.60883209572E-01 -0.79529966075E-01  0.14108777104E+00  0.45369530779E-01 0.  0.
         14    1    1    2    0    0 -0.10097644309E-01 -0.45130082879E-04 -0.80949872711E-02  0.12941919341E-01  0.00000000000E+00 0.  1.
     999901    1    3    3    0    0 -0.78308147939E-01  0.60928339654E-01  0.87624953346E-01  0.88990030962E+00  0.88000000000E+00 0. -1.
        -11    1    4    4    0    0  0.30566402846E-01 -0.87902399326E-02 -0.46931922592E-01  0.56696029669E-01  0.51100000000E-03 0. -1.
         11    1    4    4    0    0  0.57839389401E-01 -0.52092969639E-01 -0.32598043483E-01  0.84391741373E-01  0.51100000000E-03 0.  1.
</event>
<event>
 8    1  0.2959109E+004  0.1043930E+01  0.7957747E-01            NaN
         13   -1    0    0    0    0  0.00000000000E+00  0.00000000000E+00  0.74505805969E-08  0.10566000000E+00  0.10566000000E+00 0.  1.
     999900   -1    0    0    0    0 -0.00000000000E+00 -0.00000000000E+00 -0.74505805969E-08  0.93827000000E+00  0.93827000000E+00 0.  1.
     999902    2    1    2    0    0  0.39752484209E-02 -0.12768392856E-01  0.20781950138E-02  0.10303965839E+01  0.10303077049E+01 0.  0.
     999903    2    3    3    0    0  0.87872122366E-01 -0.39239801933E-01  0.93070695889E-01  0.14134143593E+00  0.45320802437E-01 0.  0.
         14    1    1    2    0    0 -0.39752484209E-02  0.12768392856E-01 -0.20781950138E-02  0.13533416074E-01  0.00000000000E+00 0.  1.
     999901    1    3    3    0    0 -0.83896873945E-01  0.26471409078E-01 -0.90992500875E-01  0.88905514799E+00  0.88000000000E+00 0. -1.
        -11    1    4    4    0    0  0.58894484947E-01 -0.33703165390E-01  0.35343937001E-01  0.76510905877E-01  0.51100000000E-03 0. -1.
         11    1    4    4    0    0  0.28977637419E-01 -0.55366365435E-02  0.57726758888E-01  0.64830530056E-01  0.51100000000E-03 0.  1.
</event>
<event>
 8    1  0.2959109E+004  0.1043930E+01  0.7957747E-01            NaN
         13   -1    0    0    0    0  0.00000000000E+00  0.00000000000E+00  0.74505805969E-08  0.10566000000E+00  0.10566000000E+00 0. -1.
     999900   -1    0    0    0    0 -0.00000000000E+00 -0.00000000000E+00 -0.74505805969E-08  0.93827000000E+00  0.93827000000E+00 0. -1.
     999902    2    1    2    0    0  0.45844472704E-02 -0.13393365350E-01 -0.98175436531E-03  0.10297397486E+01  0.10296419701E+01 0.  0.
     999903    2    3    3    0    0 -0.69472982724E-02 -0.13164074924E+00  0.20408241683E-01  0.14149825170E+00  0.47198592056E-01 0.  0.
         14    1    1    2    0    0 -0.45844472704E-02  0.13393365350E-01  0.98175436531E-03  0.14190251365E-01  0.00000000000E+00 0.  1.
     999901    1    3    3    0    0  0.11531745543E-01  0.11824738389E+00 -0.21389996049E-01  0.88824149694E+00  0.88000000000E+00 0.  1.
        -11    1    4    4    0    0  0.82716136116E-03 -0.88344671408E-02  0.16075449059E-01  0.18368810224E-01  0.51100000000E-03 0.  1.
         11    1    4    4    0    0 -0.77744596336E-02 -0.12280628210E+00  0.43327926241E-02  0.12312944147E+00  0.51100000000E-03 0. -1.
</event>
<event>
 8    1  0.2959109E+004  0.1043930E+01  0.7957747E-01            NaN
         13   -1    0    0    0    0  0.00000000000E+00  0.00000000000E+00  0.74505805969E-08  0.10566000000E+00  0.10566000000E+00 0.  1.
     999900   -1    0    0    0    0 -0.00000000000E+00 -0.00000000000E+00 -0.74505805969E-08  0.93827000000E+00  0.93827000000E+00 0.  1.
     999902    2    1    2    0    0 -0.97366279751E-02  0.10182744787E-01  0.16582814215E-02  0.10297440875E+01  0.10296463692E+01 0.  0.
     999903    2    3    3    0    0 -0.58152698820E-01  0.21324319321E-01 -0.11762505920E+00  0.14030788073E+00  0.44879659845E-01 0.  0.
         14    1    1    2    0    0  0.97366279751E-02 -0.10182744787E-01 -0.16582814215E-02  0.14185912483E-01  0.00000000000E+00 0. -1.
     999901    1    3    3    0    0  0.48416070844E-01 -0.11141574534E-01  0.11928334062E+00  0.88943620679E+00  0.88000000000E+00 0. -1.
        -11    1    4    4    0    0 -0.57263581187E-01  0.19825391637E-01 -0.69750572446E-01  0.92398957577E-01  0.51100000000E-03 0.  1.
         11    1    4    4    0    0 -0.88911763242E-03  0.14989276842E-02 -0.47874486754E-01  0.47908923149E-01  0.51100000000E-03 0. -1.
</event>
<event>
 8    1  0.2959109E+004  0.1043930E+01  0.7957747E-01            NaN
         13   -1    0    0    0    0  0.00000000000E+00  0.00000000000E+00  0.74505805969E-08  0.10566000000E+00  0.10566000000E+00 0.  1.
     999900   -1    0    0    0    0 -0.00000000000E+00 -0.00000000000E+00 -0.74505805969E-08  0.93827000000E+00  0.93827000000E+00 0. -1.
     999902    2    1    2    0    0  0.76779244295E-03 -0.10582864313E-01  0.86565723968E-02  0.10302361047E+01  0.10301450911E+01 0.  0.
     999903    2    3    3    0    0  0.13133525894E+00  0.18211102496E-01  0.14746736467E-02  0.14010772325E+00  0.45248259163E-01 0.  0.
         14    1    1    2    0    0 -0.76779244295E-03  0.10582864313E-01 -0.86565723968E-02  0.13693895281E-01  0.00000000000E+00 0. -1.
     999901    1    3    3    0    0 -0.13056746649E+00 -0.28793966809E-01  0.71818987500E-02  0.89012838147E+00  0.88000000000E+00 0.  1.
        -11    1    4    4    0    0  0.10002523960E+00 -0.40432183637E-02  0.10463408318E-01  0.10065356530E+00  0.51100000000E-03 0.  1.
         11    1    4    4    0    0  0.31310019333E-01  0.22254320859E-01 -0.89887346717E-02  0.39454157950E-01  0.51100000000E-03 0. -1.
</event>
<event>
 8    1  0.2959109E+004  0.1043930E+01  0.7957747E-01            NaN
         13   -1    0    0    0    0  0.00000000000E+00  0.00000000000E+00  0.74505805969E-08  0.10566000000E+00  0.10566000000E+00 0. -1.
     999900   -1    0    0    0    0 -0.00000000000E+00 -0.00000000000E+00 -0.74505805969E-08  0.93827000000E+00  0.93827000000E+00 0.  1.
     999902    2    1    2    0    0 -0.71888815383E-02  0.31770845105E-02 -0.12320172678E-01  0.10293162894E+01  0.10292125451E+01 0.  0.
     999903    2    3    3    0    0  0.11807718279E+00  0.52724705877E-01  0.20932230658E-01  0.13844465103E+00  0.44795618248E-01 0.  0.
         14    1    1    2    0    0  0.71888815383E-02 -0.31770845105E-02  0.12320172678E-01  0.14613710637E-01  0.00000000000E+00 0. -1.
     999901    1    3    3    0    0 -0.12526606433E+00 -0.49547621367E-01 -0.33252403336E-01  0.89087163833E+00  0.88000000000E+00 0.  1.
        -11    1    4    4    0    0  0.95492702492E-01  0.51699302416E-01  0.14564675779E-02  0.10860044437E+00  0.51100000000E-03 0. -1.
         11    1    4    4    0    0  0.22584480296E-01  0.10254034612E-02  0.19475763080E-01  0.29844206658E-01  0.51100000000E-03 0.  1.
</event>
<event>
 8    1  0.2959109E+004  0.1043930E+01  0.7957747E-01            NaN
         13   -1    0    0    0    0  0.00000000000E+00  0.00000000000E+00  0.74505805969E-08  0.10566000000E+00  0.10566000000E+00 0. -1.
     999900   -1    0    0    0    0 -0.00000000000E+00 -0.00000000000E+00 -0.74505805969E-08  0.93827000000E+00  0.93827000000E+00 0. -1.
     999902    2    1    2    0    0  0.12696536568E-02  0.27193270429E-02  0.15092365704E-01  0.10285421391E+01  0.10284270250E+01 0.  0.
     999903    2    3    3    0    0  0.61969911333E-01 -0.87921358315E-01 -0.73605538392E-01  0.13738133808E+00  0.43421441834E-01 0.  0.
         14    1    1    2    0    0 -0.12696536568E-02 -0.27193270429E-02 -0.15092365704E-01  0.15387860882E-01  0.00000000000E+00 0.  1.
     999901    1    3    3    0    0 -0.60700257676E-01  0.90640685358E-01  0.88697904096E-01  0.89116080104E+00  0.88000000000E+00 0.  1.
        -11    1    4    4    0    0  0.17591798965E-01 -0.52029404551E-01 -0.54014229430E-01  0.77034592429E-01  0.51100000000E-03 0. -1.
         11    1    4    4    0    0  0.44378112368E-01 -0.35891953764E-01 -0.19591308961E-01  0.60346745646E-01  0.51100000000E-03 0.  1.
</event>
<event>
 8    1  0.2959109E+004  0.1043930E+01  0.7957747E-01            NaN
         13   -1    0    0    0    0  0.00000000000E+00  0.00000000000E+00  0.74505805969E-08  0.10566000000E+00  0.10566000000E+00 0. -1.
     999900   -1    0    0    0    0 -0.00000000000E+00 -0.00000000000E+00 -0.74505805969E-08  0.93827000000E+00  0.93827000000E+00 0. -1.
     999902    2    1    2    0    0 -0.12930785017E-01  0.48103277434E-02  0.51133789636E-03  0.10301239897E+01  0.10300314695E+01 0.  0.
     999903    2    3    3    0    0 -0.55572463536E-01 -0.95149247302E-01 -0.72514027228E-01  0.14043700353E+00  0.48193255243E-01 0.  0.
         14    1    1    2    0    0  0.12930785017E-01 -0.48103277434E-02 -0.51133789636E-03  0.13806010307E-01  0.00000000000E+00 0.  1.
     999901    1    3    3    0    0  0.42641678519E-01  0.99959575046E-01  0.73025365124E-01  0.88968698616E+00  0.88000000000E+00 0.  1.
        -11    1    4    4    0    0 -0.34541818113E-01 -0.67741663292E-01 -0.21859230821E-01  0.79121155434E-01  0.51100000000E-03 0. -1.
         11    1    4    4    0    0 -0.21030645423E-01 -0.27407584011E-01 -0.50654796406E-01  0.61315848100E-01  0.51100000000E-03 0.  1.
</event>
<event>
 7    1  0.2959109E+004  0.1043930E+01  0.7957747E-01            NaN
         13   -1    0    0    0    0  0.00000000000E+00  0.00000000000E+00  0.74505805969E-08  0.10566000000E+00  0.10566000000E+00 0. -1.
     999900   -1    0    0    0    0 -0.00000000000E+00 -0.00000000000E+00 -0.74505805969E-08  0.93827000000E+00  0.93827000000E+00 0.  1.
     999903    2    1    2    0    0  0.20164525536E-01 -0.11326247424E+00  0.13088878034E-01  0.12402439590E+00  0.44449250711E-01 0.  0.
         14    1    1    2    0    0  0.12016032643E-02 -0.22797261729E-01  0.17349126989E-01  0.28673179106E-01  0.00000000000E+00 0.  1.
     999901    1    1    2    0    0 -0.21366128800E-01  0.13605973597E+00 -0.30438005023E-01  0.89123242499E+00  0.88000000000E+00 0.  1.
        -11    1    3    3    0    0 -0.12613533802E-01 -0.42963648008E-01  0.12359820979E-01  0.46454306375E-01  0.51100000000E-03 0. -1.
         11    1    3    3    0    0  0.32778059338E-01 -0.70298826233E-01  0.72905705504E-03  0.77570089525E-01  0.51100000000E-03 0.  1.
</event>
<event>
 8    1  0.2959109E+004  0.1043930E+01  0.7957747E-01            NaN
         13   -1    0    0    0    0  0.00000000000E+00  0.00000000000E+00  0.74505805969E-08  0.10566000000E+00  0.10566000000E+00 0.  1.
     999900   -1    0    0    0    0 -0.00000000000E+00 -0.00000000000E+00 -0.74505805969E-08  0.93827000000E+00  0.93827000000E+00 0. -1.
     999902    2    1    2    0    0  0.13226421551E-01 -0.27884608146E-02 -0.17937152289E-02  0.10302943425E+01  0.10302041065E+01 0.  0.
     999903    2    3    3    0    0  0.73046507994E-02 -0.12969759476E+00  0.30109950345E-01  0.14059841720E+00  0.44569965214E-01 0.  0.
         14    1    1    2    0    0 -0.13226421551E-01  0.27884608146E-02  0.17937152289E-02  0.13635657486E-01  0.00000000000E+00 0.  1.
     999901    1    3    3    0    0  0.59217707517E-02  0.12690913394E+00 -0.31903665573E-01  0.88969592532E+00  0.88000000000E+00 0. -1.
        -11    1    4    4    0    0 -0.63849237344E-02 -0.27300194979E-01  0.24333328163E-01  0.37127346760E-01  0.51100000000E-03 0.  1.
         11    1    4    4    0    0  0.13689574534E-01 -0.10239739978E+00  0.57766221819E-02  0.10347107044E+00  0.51100000000E-03 0. -1.
</event>
<event>
 8    1  0.2959109E+004  0.1043930E+01  0.7957747E-01            NaN
         13   -1    0    0    0    0  0.00000000000E+00  0.00000000000E+00  0.74505805969E-08  0.10566000000E+00  0.10566000000E+00 0. -1.
     999900   -1    0    0    0    0 -0.00000000000E+00 -0.00000000000E+00 -0.74505805969E-08  0.93827000000E+00  0.93827000000E+00 0.  1.
     999902    2    1    2    0    0 -0.10035772261E-01  0.66190878407E-02  0.70332729718E-02  0.10300017561E+01  0.10299075792E+01 0.  0.
     999903    2    3    3    0    0 -0.75740893789E-01  0.89624377392E-01  0.65576562198E-01  0.14172569667E+00  0.44907411104E-01 0.  0.
         14    1    1    2    0    0  0.10035772261E-01 -0.66190878407E-02 -0.70332729718E-02  0.13928243874E-01  0.00000000000E+00 0.  1.
     999901    1    3    3    0    0  0.65705121527E-01 -0.83005289552E-01 -0.58543289226E-01  0.88827605946E+00  0.88000000000E+00 0.  1.
        -11    1    4    4    0    0 -0.64265161549E-01  0.90557543759E-01  0.48617707063E-01  0.12122137716E+00  0.51100000000E-03 0. -1.
         11    1    4    4    0    0 -0.11475732240E-01 -0.93316636685E-03  0.16958855134E-01  0.20504319505E-01  0.51100000000E-03 0.  1.
</event>
<event>
 8    1  0.2959109E+004  0.1043930E+01  0.7957747E-01            NaN
         13   -1    0    0    0    0  0.00000000000E+00  0.00000000000E+00  0.74505805969E-08  0.10566000000E+00  0.10566000000E+00 0.  1.
     999900   -1    0    0    0    0 -0.00000000000E+00 -0.00000000000E+00 -0.74505805969E-08  0.93827000000E+00  0.93827000000E+00 0. -1.
     999902    2    1    2    0    0 -0.18059777961E-01  0.60044526014E-02 -0.12219521162E-02  0.10248590221E+01  0.10246815666E+01 0.  0.
     999903    2    3    3    0    0 -0.54302929512E-01  0.78416351001E-01 -0.86991099533E-01  0.13698887635E+00  0.45831960339E-01 0.  0.
         14    1    1    2    0    0  0.18059777961E-01 -0.60044526014E-02  0.12219521162E-02  0.19070977898E-01  0.00000000000E+00 0. -1.
     999901    1    3    3    0    0  0.36243151552E-01 -0.72411898399E-01  0.85769147416E-01  0.88787014575E+00  0.88000000000E+00 0.  1.
        -11    1    4    4    0    0 -0.52576122000E-01  0.40574599946E-01 -0.66208222493E-01  0.93778124379E-01  0.51100000000E-03 0. -1.
         11    1    4    4    0    0 -0.17268075124E-02  0.37841751055E-01 -0.20782877040E-01  0.43210751973E-01  0.51100000000E-03 0.  1.
</event>
<event>
 8    1  0.2959109E+004  0.1043930E+01  0.7957747E-01            NaN
         13   -1    0    0    0    0  0.00000000000E+00  0.00000000000E+00  0.74505805969E-08  0.10566000000E+00  0.10566000000E+00 0.  1.
     999900   -1    0    0    0    0 -0.00000000000E+00 -0.00000000000E+00 -0.74505805969E-08  0.93827000000E+00  0.93827000000E+00 0.  1.
     999902    2    1    2    0    0  0.97851092705E-02 -0.37071934672E-02  0.63932255030E-02  0.10316676601E+01  0.10315947828E+01 0.  0.
     999903    2    3    3    0    0  0.63798436230E-01 -0.11853158961E+00  0.12836442120E-01  0.14254247407E+00  0.45095503847E-01 0.  0.
         14    1    1    2    0    0 -0.97851092705E-02  0.37071934672E-02 -0.63932255030E-02  0.12262339873E-01  0.00000000000E+00 0.  1.
     999901    1    3    3    0    0 -0.54013326959E-01  0.11482439614E+00 -0.64432166174E-02  0.88912518606E+00  0.88000000000E+00 0. -1.
        -11    1    4    4    0    0  0.22433442359E-01 -0.83496235710E-01 -0.14860867678E-02  0.86471673331E-01  0.51100000000E-03 0. -1.
         11    1    4    4    0    0  0.41364993871E-01 -0.35035353899E-01  0.14322528888E-01  0.56070800739E-01  0.51100000000E-03 0.  1.
</event>
<event>
 8    1  0.2959109E+004  0.1043930E+01  0.7957747E-01            NaN
         13   -1    0    0    0    0  0.00000000000E+00  0.00000000000E+00  0.74505805969E-08  0.10566000000E+00  0.10566000000E+00 0. -1.
     999900   -1    0    0    0    0 -0.00000000000E+00 -0.00000000000E+00 -0.74505805969E-08  0.93827000000E+00  0.93827000000E+00 0.  1.
     999902    2    1    2    0    0  0.36866601732E-02  0.13440887430E-01  0.37610082467E-02  0.10294941384E+01  0.10293929215E+01 0.  0.
     999903    2    3    3    0    0 -0.38182020560E-01  0.12328048858E+00  0.34740598064E-01  0.14113753238E+00  0.45353592300E-01 0.  0.
         14    1    1    2    0    0 -0.36866601732E-02 -0.13440887430E-01 -0.37610082467E-02  0.14435861636E-01  0.00000000000E+00 0. -1.
     999901    1    3    3    0    0  0.41868680733E-01 -0.10983960115E+00 -0.30979589817E-01  0.88835660598E+00  0.88000000000E+00 0.  1.
        -11    1    4    4    0    0  0.51372211185E-02  0.59312202989E-01  0.14869411584E-01  0.61365209900E-01  0.51100000000E-03 0.  1.
         11    1    4    4    0    0 -0.43319241679E-01  0.63968285591E-01  0.19871186480E-01  0.79772322482E-01  0.51100000000E-03 0. -1.
</event>
<event>
 8    1  0.2959109E+004  0.1043930E+01  0.7957747E-01            NaN
         13   -1    0    0    0    0  0.00000000000E+00  0.00000000000E+00  0.74505805969E-08  0.10566000000E+00  0.10566000000E+00 0.  1.
     999900   -1    0    0    0    0 -0.00000000000E+00 -0.00000000000E+00 -0.74505805969E-08  0.93827000000E+00  0.93827000000E+00 0.  1.
     999902    2    1    2    0    0  0.16219937701E-01  0.17834305205E-02 -0.13848016144E-02  0.10275536549E+01  0.10274231499E+01 0.  0.
     999903    2    3    3    0    0  0.10864806841E-01  0.10535053641E+00  0.75769119614E-01  0.13811138560E+00  0.46011039947E-01 0.  0.
         14    1    1    2    0    0 -0.16219937701E-01 -0.17834305205E-02  0.13848016144E-02  0.16376345104E-01  0.00000000000E+00 0. -1.
     999901    1    3    3    0    0  0.53551308601E-02 -0.10356710588E+00 -0.77153921229E-01  0.88944226930E+00  0.88000000000E+00 0.  1.
        -11    1    4    4    0    0 -0.78550428237E-02  0.31204037234E-02 -0.15057193478E-02  0.86004028344E-02  0.51100000000E-03 0. -1.
         11    1    4    4    0    0  0.18719849664E-01  0.10223013268E+00  0.77274838962E-01  0.12951098277E+00  0.51100000000E-03 0.  1.
</event>
<event>
 8    1  0.2959109E+004  0.1043930E+01  0.7957747E-01            NaN
         13   -1    0    0    0    0  0.00000000000E+00  0.00000000000E+00  0.74505805969E-08  0.10566000000E+00  0.10566000000E+00 0. -1.
     999900   -1    0    0    0    0 -0.00000000000E+00 -0.00000000000E+00 -0.74505805969E-08  0.93827000000E+00  0.93827000000E+00 0.  1.
     999902    2    1    2    0    0  0.11329593196E-01  0.85093310515E-02 -0.12781645815E-02  0.10297031907E+01  0.10296049043E+01 0.  0.
     999903    2    3    3    0    0  0.45554748420E-01  0.73229387754E-01  0.10140761513E+00  0.14071251793E+00  0.45593091155E-01 0.  0.
         14    1    1    2    0    0 -0.11329593196E-01 -0.85093310515E-02  0.12781645815E-02  0.14226809256E-01  0.00000000000E+00 0. -1.
     999901    1    3    3    0    0 -0.34225155224E-01 -0.64720056703E-01 -0.10268577972E+00  0.88899067281E+00  0.88000000000E+00 0.  1.
        -11    1    4    4    0    0  0.15001150631E-01  0.62775125350E-01  0.75346516544E-01  0.99212446595E-01  0.51100000000E-03 0. -1.
         11    1    4    4    0    0  0.30553597789E-01  0.10454262404E-01  0.26061098590E-01  0.41500071337E-01  0.51100000000E-03 0.  1.
</event>
<event>
 7    1  0.2959109E+004  0.1043930E+01  0.7957747E-01            NaN
         13   -1    0    0    0    0  0.00000000000E+00  0.00000000000E+00  0.74505805969E-08  0.10566000000E+00  0.10566000000E+00 0.  1.
     999900   -1    0    0    0    0 -0.00000000000E+00 -0.00000000000E+00 -0.74505805969E-08  0.93827000000E+00  0.93827000000E+00 0.  1.
     999903    2    1    2    0    0 -0.99538761857E-02  0.62093212695E-01  0.40808770869E-01  0.87266304112E-01  0.44669960149E-01 0.  0.
         14    1    1    2    0    0 -0.28478133719E-01 -0.24091590431E-01  0.58551932443E-01  0.69424330191E-01  0.00000000000E+00 0. -1.
     999901    1    1    2    0    0  0.38432009905E-01 -0.38001622264E-01 -0.99360703312E-01  0.88723936570E+00  0.88000000000E+00 0.  1.
        -11    1    3    3    0    0 -0.16040756431E-01  0.72506154012E-02  0.23633658595E-01  0.29473517437E-01  0.51100000000E-03 0. -1.
         11    1    3    3    0    0  0.60868802453E-02  0.54842597293E-01  0.17175112274E-01  0.57792786675E-01  0.51100000000E-03 0.  1.
</event>
<event>
 8    1  0.2959109E+004  0.1043930E+01  0.7957747E-01            NaN
         13   -1    0    0    0    0  0.00000000000E+00  0.00000000000E+00  0.74505805969E-08  0.10566000000E+00  0.10566000000E+00 0.  1.
     999900   -1    0    0    0    0 -0.00000000000E+00 -0.00000000000E+00 -0.74505805969E-08  0.93827000000E+00  0.93827000000E+00 0.  1.
     999902    2    1    2    0    0  0.67263666730E-02 -0.11326483122E-01 -0.21085192139E-02  0.10305891199E+01  0.10305027681E+01 0.  0.
     999903    2    3    3    0    0 -0.55762039573E-01  0.11238523697E+00  0.37688430427E-01  0.13885306714E+00  0.46042479504E-01 0.  0.
         14    1    1    2    0    0 -0.67263666730E-02  0.11326483122E-01  0.21085192139E-02  0.13340880098E-01  0.00000000000E+00 0. -1.
     999901    1    3    3    0    0  0.62488406246E-01 -0.12371172009E+00 -0.39796949641E-01  0.89173605277E+00  0.88000000000E+00 0. -1.
        -11    1    4    4    0    0 -0.38701430278E-01  0.41600220681E-01 -0.92295826060E-04  0.56821199440E-01  0.51100000000E-03 0. -1.
         11    1    4    4    0    0 -0.17060609296E-01  0.70785016287E-01  0.37780726253E-01  0.82031867695E-01  0.51100000000E-03 0.  1.
</event>
<event>
 8    1  0.2959109E+004  0.1043930E+01  0.7957747E-01            NaN
         13   -1    0    0    0    0  0.00000000000E+00  0.00000000000E+00  0.74505805969E-08  0.10566000000E+00  0.10566000000E+00 0.  1.
     999900   -1    0    0    0    0 -0.00000000000E+00 -0.00000000000E+00 -0.74505805969E-08  0.93827000000E+00  0.93827000000E+00 0. -1.
     999902    2    1    2    0    0 -0.17046333655E-02  0.79783907952E-02  0.94750423127E-02  0.10314265236E+01  0.10313507341E+01 0.  0.
     999903    2    3    3    0    0 -0.14104881025E-01  0.86031255529E-01  0.10399614731E+00  0.14284323821E+00  0.44594477794E-01 0.  0.
         14    1    1    2    0    0  0.17046333655E-02 -0.79783907952E-02 -0.94750423127E-02  0.12503476373E-01  0.00000000000E+00 0. -1.
     999901    1    3    3    0    0  0.12400247660E-01 -0.78052864734E-01 -0.94521104998E-01  0.88858328542E+00  0.88000000000E+00 0. -1.
        -11    1    4    4    0    0 -0.12162554852E-01  0.30046504766E-02  0.26203464571E-01  0.29048895702E-01  0.51100000000E-03 0.  1.
         11    1    4    4    0    0 -0.19423261732E-02  0.83026605052E-01  0.77792682740E-01  0.11379434251E+00  0.51100000000E-03 0. -1.
</event>
<event>
 8    1  0.2959109E+004  0.1043930E+01  0.7957747E-01            NaN
         13   -1    0    0    0    0  0.00000000000E+00  0.00000000000E+00  0.74505805969E-08  0.10566000000E+00  0.10566000000E+00 0.  1.
     999900   -1    0    0    0    0 -0.00000000000E+00 -0.00000000000E+00 -0.74505805969E-08  0.93827000000E+00  0.93827000000E+00 0. -1.
     999902    2    1    2    0    0  0.60041177487E-02  0.11164381994E-01 -0.46384411886E-02  0.10304315559E+01  0.10303431387E+01 0.  0.
     999903    2    3    3    0    0  0.71466684515E-01 -0.18875689245E-01  0.11023900811E+00  0.14004704244E+00  0.44685081935E-01 0.  0.
         14    1    1    2    0    0 -0.60041177487E-02 -0.11164381994E-01  0.46384411886E-02  0.13498444055E-01  0.00000000000E+00 0.  1.
     999901    1    3    3    0    0 -0.65462566766E-01  0.30040071239E-01 -0.11487744930E+00  0.89038451350E+00  0.88000000000E+00 0. -1.
        -11    1    4    4    0    0  0.65431356042E-01 -0.29174213887E-01  0.79239802467E-01  0.10682511187E+00  0.51100000000E-03 0. -1.
         11    1    4    4    0    0  0.60353284727E-02  0.10298524642E-01  0.30999205644E-01  0.33221930575E-01  0.51100000000E-03 0.  1.
</event>
<event>
 8    1  0.2959109E+004  0.1043930E+01  0.7957747E-01            NaN
         13   -1    0    0    0    0  0.00000000000E+00  0.00000000000E+00  0.74505805969E-08  0.10566000000E+00  0.10566000000E+00 0.  1.
     999900   -1    0    0    0    0 -0.00000000000E+00 -0.00000000000E+00 -0.74505805969E-08  0.93827000000E+00  0.93827000000E+00 0.  1.
     999902    2    1    2    0    0  0.44089632487E-02 -0.18519467554E-02  0.13076722012E-01  0.10300063036E+01  0.10299121885E+01 0.  0.
     999903    2    3    3    0    0  0.11246287263E+00  0.69775983335E-01 -0.18080607601E-01  0.13996305356E+00  0.41787108289E-01 0.  0.
         14    1    1    2    0    0 -0.44089632487E-02  0.18519467554E-02 -0.13076722012E-01  0.13923696430E-01  0.00000000000E+00 0. -1.
     999901    1    3    3    0    0 -0.10805390938E+00 -0.71627930090E-01  0.31157329612E-01  0.89004325001E+00  0.88000000000E+00 0. -1.
        -11    1    4    4    0    0  0.46041041578E-01  0.55835051337E-02 -0.75488894050E-02  0.46991487435E-01  0.51100000000E-03 0.  1.
         11    1    4    4    0    0  0.66421831055E-01  0.64192478201E-01 -0.10531718196E-01  0.92971566123E-01  0.51100000000E-03 0. -1.
</event>
<event>
 8    1  0.2959109E+004  0.1043930E+01  0.7957747E-01            NaN
         13   -1    0    0    0    0  0.00000000000E+00  0.00000000000E+00  0.74505805969E-08  0.10566000000E+00  0.10566000000E+00 0. -1.
     999900   -1    0    0    0    0 -0.00000000000E+00 -0.00000000000E+00 -0.74505805969E-08  0.93827000000E+00  0.93827000000E+00 0. -1.
     999902    2    1    2    0    0 -0.84988901910E-02  0.10241407076E-01  0.11739313217E-01  0.10261837602E+01  0.10260303020E+01 0.  0.
     999903    2    3    3    0    0 -0.42583840911E-01  0.74129808099E-01 -0.96259619200E-01  0.13662921937E+00  0.45749506462E-01 0.  0.
         14    1    1    2    0    0  0.84988901910E-02 -0.10241407076E-01 -0.11739313217E-01  0.17746239832E-01  0.00000000000E+00 0.  1.
     999901    1    3    3    0    0  0.34084950720E-01 -0.63888401022E-01  0.10799893242E+00  0.88955454080E+00  0.88000000000E+00 0.  1.
        -11    1    4    4    0    0 -0.18537531810E-01  0.68107997238E-01 -0.81317550060E-01  0.10768075242E+00  0.51100000000E-03 0. -1.
         11    1    4    4    0    0 -0.24046309101E-01  0.60218108603E-02 -0.14942069140E-01  0.28948466948E-01  0.51100000000E-03 0.  1.
</event>
<event>
 8    1  0.2959109E+004  0.1043930E+01  0.7957747E-01            NaN
         13   -1    0    0    0    0  0.00000000000E+00  0.00000000000E+00  0.74505805969E-08  0.10566000000E+00  0.10566000000E+00 0. -1.
     999900   -1    0    0    0    0 -0.00000000000E+00 -0.00000000000E+00 -0.74505805969E-08  0.93827000000E+00  0.93827000000E+00 0.  1.
     999902    2    1    2    0    0  0.30417510846E-02 -0.14369630669E-01  0.15931660658E-02  0.10291558092E+01  0.10290497573E+01 0.  0.
     999903    2    3    3    0    0 -0.61057279989E-01  0.97377203513E-01 -0.62342249590E-01  0.13748110502E+00  0.42475721872E-01 0.  0.
         14    1    1    2    0    0 -0.30417510846E-02  0.14369630669E-01 -0.15931660658E-02  0.14774190785E-01  0.00000000000E+00 0. -1.
     999901    1    3    3    0    0  0.64099031074E-01 -0.11174683418E+00  0.63935415656E-01  0.89167470420E+00  0.88000000000E+00 0. -1.
        -11    1    4    4    0    0 -0.37239482071E-01  0.45415153683E-01 -0.92333359958E-02  0.59454443262E-01  0.51100000000E-03 0. -1.
         11    1    4    4    0    0 -0.23817797918E-01  0.51962049830E-01 -0.53108913595E-01  0.78026661754E-01  0.51100000000E-03 0.  1.
</event>
<event>
 8    1  0.2959109E+004  0.1043930E+01  0.7957747E-01            NaN
         13   -1    0    0    0    0  0.00000000000E+00  0.00000000000E+00  0.74505805969E-08  0.10566000000E+00  0.10566000000E+00 0. -1.
     999900   -1    0    0    0    0 -0.00000000000E+00 -0.00000000000E+00 -0.74505805969E-08  0.93827000000E+00  0.93827000000E+00 0. -1.
     999902    2    1    2    0    0  0.12406952899E-01 -0.34442119215E-02  0.51846100609E-02  0.10300492487E+01  0.10299557172E+01 0.  0.
     999903    2    3    3    0    0 -0.60642057532E-01 -0.10735314975E+00  0.48749700379E-01  0.13986323306E+00  0.44531256141E-01 0.  0.
         14    1    1    2    0    0 -0.12406952899E-01  0.34442119215E-02 -0.51846100609E-02  0.13880751329E-01  0.00000000000E+00 0.  1.
     999901    1    3    3    0    0  0.73049010431E-01  0.10390893783E+00 -0.43565090318E-01  0.89018601561E+00  0.88000000000E+00 0. -1.
        -11    1    4    4    0    0 -0.44685275691E-01 -0.82196808278E-01  0.56213275272E-01  0.10914798483E+00  0.51100000000E-03 0. -1.
         11    1    4    4    0    0 -0.15956781841E-01 -0.25156341471E-01 -0.74635748929E-02  0.30715248235E-01  0.51100000000E-03 0.  1.
</event>
<event>
 8    1  0.2959109E+004  0.1043930E+01  0.7957747E-01            NaN
         13   -1    0    0    0    0  0.00000000000E+00  0.00000000000E+00  0.74505805969E-08  0.10566000000E+00  0.10566000000E+00 0.  1.
     999900   -1    0    0    0    0 -0.00000000000E+00 -0.00000000000E+00 -0.74505805969E-08  0.93827000000E+00  0.93827000000E+00 0. -1.
     999902    2    1    2    0    0 -0.85813111830E-02  0.19633575163E-01 -0.14622740844E-02  0.10224531655E+01  0.10222275780E+01 0.  0.
     999903    2    3    3    0    0  0.92684573759E-01  0.72250307557E-01  0.44811110360E-01  0.13387873074E+00  0.45879644473E-01 0.  0.
         14    1    1    2    0    0  0.85813111830E-02 -0.19633575163E-01  0.14622740844E-02  0.21476834515E-01  0.00000000000E+00 0. -1.
     999901    1    3    3    0    0 -0.10126588494E+00 -0.52616732394E-01 -0.46273384444E-01  0.88857443475E+00  0.88000000000E+00 0.  1.
        -11    1    4    4    0    0  0.15126445697E-01  0.26865063339E-01  0.29589590677E-01  0.42735769387E-01  0.51100000000E-03 0.  1.
         11    1    4    4    0    0  0.77558128062E-01  0.45385244217E-01  0.15221519683E-01  0.91142961350E-01  0.51100000000E-03 0. -1.
</event>
<event>
 8    1  0.2959109E+004  0.1043930E+01  0.7957747E-01            NaN
         13   -1    0    0    0    0  0.00000000000E+00  0.00000000000E+00  0.74505805969E-08  0.10566000000E+00  0.10566000000E+00 0.  1.
     999900   -1    0    0    0    0 -0.00000000000E+00 -0.00000000000E+00 -0.74505805969E-08  0.93827000000E+00  0.93827000000E+00 0.  1.
     999902    2    1    2    0    0  0.64993832503E-02  0.15921178133E-02  0.13043298321E-01  0.10292703802E+01  0.10291659784E+01 0.  0.
     999903    2    3    3    0    0 -0.73329608056E-01  0.10652763137E+00  0.25873091558E-01  0.13935536546E+00  0.45001481672E-01 0.  0.
         14    1    1    2    0    0 -0.64993832503E-02 -0.15921178133E-02 -0.13043298321E-01  0.14659619806E-01  0.00000000000E+00 0. -1.
     999901    1    3    3    0    0  0.79828991306E-01 -0.10493551355E+00 -0.12829793236E-01  0.88991501474E+00  0.88000000000E+00 0. -1.
        -11    1    4    4    0    0 -0.52211353360E-01  0.43416513664E-01  0.26245077199E-01  0.72801677704E-01  0.51100000000E-03 0.  1.
         11    1    4    4    0    0 -0.21118254696E-01  0.63111117704E-01 -0.37198564159E-03  0.66553687753E-01  0.51100000000E-03 0. -1.
</event>
<event>
 8    1  0.2959109E+004  0.1043930E+01  0.7957747E-01            NaN
         13   -1    0    0    0    0  0.00000000000E+00  0.00000000000E+00  0.74505805969E-08  0.10566000000E+00  0.10566000000E+00 0.  1.
     999900   -1    0    0    0    0 -0.00000000000E+00 -0.00000000000E+00 -0.74505805969E-08  0.93827000000E+00  0.93827000000E+00 0.  1.
     999902    2    1    2    0    0  0.33849241884E-02  0.92986618529E-03 -0.16284892602E-01  0.10272710658E+01  0.10271359805E+01 0.  0.
     999903    2    3    3    0    0 -0.84980122377E-01  0.15672918218E-01 -0.98918084679E-01  0.13887139024E+00  0.45091174143E-01 0.  0.
         14    1    1    2    0    0 -0.33849241884E-02 -0.92986618529E-03  0.16284892602E-01  0.16658934238E-01  0.00000000000E+00 0.  1.
     999901    1    3    3    0    0  0.88365046565E-01 -0.14743052033E-01  0.82633192077E-01  0.88839967552E+00  0.88000000000E+00 0. -1.
        -11    1    4    4    0    0 -0.26646207702E-01 -0.15990043786E-01 -0.30402901919E-01  0.43477574119E-01  0.51100000000E-03 0. -1.
         11    1    4    4    0    0 -0.58333914675E-01  0.31662962005E-01 -0.68515182760E-01  0.95393816120E-01  0.51100000000E-03 0.  1.
</event>
<event>
 8    1  0.2959109E+004  0.1043930E+01  0.7957747E-01            NaN
         13   -1    0    0    0    0  0.00000000000E+00  0.00000000000E+00  0.74505805969E-08  0.10566000000E+00  0.10566000000E+00 0. -1.
     999900   -1    0    0    0    0 -0.00000000000E+00 -0.00000000000E+00 -0.74505805969E-08  0.93827000000E+00  0.93827000000E+00 0. -1.
     999902    2    1    2    0    0  0.32988868412E-02  0.10206259540E-01  0.74507217380E-02  0.10308699984E+01  0.10307872670E+01 0.  0.
     999903    2    3    3    0    0  0.50440901104E-02  0.92648205330E-01  0.98224917402E-01  0.14236582012E+00  0.44841493565E-01 0.  0.
         14    1    1    2    0    0 -0.32988868412E-02 -0.10206259540E-01 -0.74507217380E-02  0.13060001631E-01  0.00000000000E+00 0.  1.
     999901    1    3    3    0    0 -0.17452032691E-02 -0.82441945790E-01 -0.90774195664E-01  0.88850417824E+00  0.88000000000E+00 0. -1.
        -11    1    4    4    0    0 -0.57693398318E-02  0.36308485272E-01  0.11766409039E-01  0.38604415389E-01  0.51100000000E-03 0. -1.
         11    1    4    4    0    0  0.10813429942E-01  0.56339720058E-01  0.86458508363E-01  0.10376140474E+00  0.51100000000E-03 0.  1.
</event>
<event>
 8    1  0.2959109E+004  0.1043930E+01  0.7957747E-01            NaN
         13   -1    0    0    0    0  0.00000000000E+00  0.00000000000E+00  0.74505805969E-08  0.10566000000E+00  0.10566000000E+00 0.  1.
     999900   -1    0    0    0    0 -0.00000000000E+00 -0.00000000000E+00 -0.74505805969E-08  0.93827000000E+00  0.93827000000E+00 0. -1.
     999902    2    1    2    0    0  0.57455775642E-02  0.61584558752E-02 -0.10509525267E-01  0.10304619503E+01  0.10303739335E+01 0.  0.
     999903    2    3    3    0    0 -0.38740226658E-01 -0.53188393134E-01  0.11345855010E+00  0.13868332368E+00  0.45060085975E-01 0.  0.
         14    1    1    2    0    0 -0.57455775642E-02 -0.61584558752E-02  0.10509525267E-01  0.13468049660E-01  0.00000000000E+00 0.  1.
     999901    1    3    3    0    0  0.44485804222E-01  0.59346849009E-01 -0.12396807537E+00  0.89177862666E+00  0.88000000000E+00 0. -1.
        -11    1    4    4    0    0 -0.11350171176E-02 -0.34473245899E-01  0.32104648371E-01  0.47123905978E-01  0.51100000000E-03 0.  1.
         11    1    4    4    0    0 -0.37605209540E-01 -0.18715147235E-01  0.81353901734E-01  0.91559417697E-01  0.51100000000E-03 0. -1.
</event>
<event>
 8    1  0.2959109E+004  0.1043930E+01  0.7957747E-01            NaN
         13   -1    0    0    0    0  0.00000000000E+00  0.00000000000E+00  0.74505805969E-08  0.10566000000E+00  0.10566000000E+00 0. -1.
     999900   -1    0    0    0    0 -0.00000000000E+00 -0.00000000000E+00 -0.74505805969E-08  0.93827000000E+00  0.93827000000E+00 0.  1.
     999902    2    1    2    0    0  0.97277012735E-02 -0.85093726147E-02  0.66568515694E-03  0.10309885653E+01  0.10309073388E+01 0.  0.
     999903    2    3    3    0    0 -0.12446731366E+00 -0.38077816575E-01 -0.10507582815E-01  0.14025435311E+00  0.51174622487E-01 0.  0.
         14    1    1    2    0    0 -0.97277012735E-02  0.85093726147E-02 -0.66568515694E-03  0.12941434661E-01  0.00000000000E+00 0.  1.
     999901    1    3    3    0    0  0.13419501493E+00  0.29568443960E-01  0.11173267972E-01  0.89073421222E+00  0.88000000000E+00 0.  1.
        -11    1    4    4    0    0 -0.67188688608E-01 -0.46526488632E-01 -0.10131154489E-01  0.82352507148E-01  0.51100000000E-03 0.  1.
         11    1    4    4    0    0 -0.57278625049E-01  0.84486720564E-02 -0.37642832667E-03  0.57901845967E-01  0.51100000000E-03 0. -1.
</event>
<event>
 8    1  0.2959109E+004  0.1043930E+01  0.7957747E-01            NaN
         13   -1    0    0    0    0  0.00000000000E+00  0.00000000000E+00  0.74505805969E-08  0.10566000000E+00  0.10566000000E+00 0. -1.
     999900   -1    0    0    0    0 -0.00000000000E+00 -0.00000000000E+00 -0.74505805969E-08  0.93827000000E+00  0.93827000000E+00 0.  1.
     999902    2    1    2    0    0 -0.61935802586E-02 -0.11338392665E-01 -0.99268428705E-03  0.10309721836E+01  0.10308907499E+01 0.  0.
     999903    2    3    3    0    0 -0.11644813768E+00  0.31310309324E-01 -0.58054495765E-01  0.14123568912E+00  0.45129714874E-01 0.  0.
         14    1    1    2    0    0  0.61935802586E-02  0.11338392665E-01  0.99268428705E-03  0.12957816434E-01  0.00000000000E+00 0. -1.
     999901    1    3    3    0    0  0.11025455742E+00 -0.42648701988E-01  0.57061811477E-01  0.88973649444E+00  0.88000000000E+00 0. -1.
        -11    1    4    4    0    0 -0.38475888176E-01  0.24485350101E-01 -0.40553589827E-01  0.61030984830E-01  0.51100000000E-03 0. -1.
         11    1    4    4    0    0 -0.77972249505E-01  0.68249592223E-02 -0.17500905938E-01  0.80204704294E-01  0.51100000000E-03 0.  1.
</event>
<event>
 8    1  0.2959109E+004  0.1043930E+01  0.7957747E-01            NaN
         13   -1    0    0    0    0  0.00000000000E+00  0.00000000000E+00  0.74505805969E-08  0.10566000000E+00  0.10566000000E+00 0. -1.
     999900   -1    0    0    0    0 -0.00000000000E+00 -0.00000000000E+00 -0.74505805969E-08  0.93827000000E+00  0.93827000000E+00 0. -1.
     999902    2    1    2    0    0 -0.39648149739E-02  0.89653682288E-02 -0.39248168744E-02  0.10333705600E+01  0.10333166081E+01 0.  0.
     999903    2    3    3    0    0 -0.96921813361E-01  0.93122323757E-01  0.28330356716E-01  0.14389667455E+00  0.42872354105E-01 0.  0.
         14    1    1    2    0    0  0.39648149739E-02 -0.89653682288E-02  0.39248168744E-02  0.10559439983E-01  0.00000000000E+00 0. -1.
     999901    1    3    3    0    0  0.92956998387E-01 -0.84156955528E-01 -0.32255173590E-01  0.88947388547E+00  0.88000000000E+00 0. -1.
        -11    1    4    4    0    0 -0.14394900028E-01  0.21608025999E-02  0.14069387410E-01  0.20250703637E-01  0.51100000000E-03 0.  1.
         11    1    4    4    0    0 -0.82526913333E-01  0.90961521157E-01  0.14260969306E-01  0.12364597091E+00  0.51100000000E-03 0. -1.
</event>
<event>
 8    1  0.2959109E+004  0.1043930E+01  0.7957747E-01            NaN
         13   -1    0    0    0    0  0.00000000000E+00  0.00000000000E+00  0.74505805969E-08  0.10566000000E+00  0.10566000000E+00 0. -1.
     999900   -1    0    0    0    0 -0.00000000000E+00 -0.00000000000E+00 -0.74505805969E-08  0.93827000000E+00  0.93827000000E+00 0. -1.
     999902    2    1    2    0    0 -0.22346504301E-02 -0.10932527515E-01 -0.99988306539E-02  0.10289469951E+01  0.10288379019E+01 0.  0.
     999903    2    3    3    0    0 -0.12369611109E+00 -0.18079927406E-01 -0.43228664579E-01  0.13995419785E+00  0.45725795584E-01 0.  0.
         14    1    1    2    0    0  0.22346504301E-02  0.10932527515E-01  0.99988306539E-02  0.14983004867E-01  0.00000000000E+00 0. -1.
     999901    1    3    3    0    0  0.12146146066E+00  0.71473998908E-02  0.33229833926E-01  0.88899279728E+00  0.88000000000E+00 0. -1.
        -11    1    4    4    0    0 -0.85517452767E-01 -0.22990697952E-01 -0.10033464961E-01  0.89122042505E-01  0.51100000000E-03 0.  1.
         11    1    4    4    0    0 -0.38178658323E-01  0.49107705466E-02 -0.33195199619E-01  0.50832155349E-01  0.51100000000E-03 0. -1.
</event>
<event>
 8    1  0.2959109E+004  0.1043930E+01  0.7957747E-01            NaN
         13   -1    0    0    0    0  0.00000000000E+00  0.00000000000E+00  0.74505805969E-08  0.10566000000E+00  0.10566000000E+00 0. -1.
     999900   -1    0    0    0    0 -0.00000000000E+00 -0.00000000000E+00 -0.74505805969E-08  0.93827000000E+00  0.93827000000E+00 0.  1.
     999902    2    1    2    0    0 -0.91180738316E-03 -0.11482517403E-01 -0.72261604766E-02  0.10303323166E+01  0.10302425858E+01 0.  0.
     999903    2    3    3    0    0 -0.70997542175E-02 -0.61583695934E-01 -0.12029432410E+00  0.14166318334E+00  0.41890034486E-01 0.  0.
         14    1    1    2    0    0  0.91180738316E-03  0.11482517403E-01  0.72261604766E-02  0.13597683400E-01  0.00000000000E+00 0. -1.
     999901    1    3    3    0    0  0.61879468343E-02  0.50101178531E-01  0.11306816363E+00  0.88866913326E+00  0.88000000000E+00 0. -1.
        -11    1    4    4    0    0 -0.21966547599E-01 -0.53403984415E-01 -0.95863546821E-01  0.11191333922E+00  0.51100000000E-03 0. -1.
         11    1    4    4    0    0  0.14866793381E-01 -0.81797115184E-02 -0.24430777281E-01  0.29749844126E-01  0.51100000000E-03 0.  1.
</event>
<event>
 8    1  0.2959109E+004  0.1043930E+01  0.7957747E-01            NaN
         13   -1    0    0    0    0  0.00000000000E+00  0.00000000000E+00  0.74505805969E-08  0.10566000000E+00  0.10566000000E+00 0. -1.
     999900   -1    0    0    0    0 -0.00000000000E+00 -0.00000000000E+00 -0.74505805969E-08  0.93827000000E+00  0.93827000000E+00 0. -1.
     999902    2    1    2    0    0  0.12095984734E-01 -0.13548057517E-02  0.10122349501E-01  0.10280993239E+01  0.10279774363E+01 0.  0.
     999903    2    3    3    0    0 -0.21816325809E-01 -0.16947365583E-01 -0.12605416480E+00  0.13684334736E+00  0.45533328255E-01 0.  0.
         14    1    1    2    0    0 -0.12095984734E-01  0.13548057517E-02 -0.10122349501E-01  0.15830676067E-01  0.00000000000E+00 0. -1.
     999901    1    3    3    0    0  0.33912310543E-01  0.15592559831E-01  0.13617651430E+00  0.89125597657E+00  0.88000000000E+00 0.  1.
        -11    1    4    4    0    0 -0.25330267082E-01  0.62324208505E-02 -0.40850461013E-01  0.48471504888E-01  0.51100000000E-03 0. -1.
         11    1    4    4    0    0  0.35139412736E-02 -0.23179786433E-01 -0.85203703785E-01  0.88371842473E-01  0.51100000000E-03 0.  1.
</event>
<event>
 8    1  0.2959109E+004  0.1043930E+01  0.7957747E-01            NaN
         13   -1    0    0    0    0  0.00000000000E+00  0.00000000000E+00  0.74505805969E-08  0.10566000000E+00  0.10566000000E+00 0. -1.
     999900   -1    0    0    0    0 -0.00000000000E+00 -0.00000000000E+00 -0.74505805969E-08  0.93827000000E+00  0.93827000000E+00 0. -1.
     999902    2    1    2    0    0 -0.13288701015E-01 -0.47846198696E-04 -0.28105580112E-02  0.10303472499E+01  0.10302577174E+01 0.  0.
     999903    2    3    3    0    0 -0.10824443090E+00  0.77514234893E-01 -0.18590836945E-01  0.14170700533E+00  0.44832384601E-01 0.  0.
         14    1    1    2    0    0  0.13288701015E-01  0.47846198696E-04  0.28105580112E-02  0.13582750100E-01  0.00000000000E+00 0.  1.
     999901    1    3    3    0    0  0.94955729890E-01 -0.77562081092E-01  0.15780278934E-01  0.88864024457E+00  0.88000000000E+00 0. -1.
        -11    1    4    4    0    0 -0.15669453988E-01  0.18308996340E-01  0.12974262502E-01  0.27374143708E-01  0.51100000000E-03 0. -1.
         11    1    4    4    0    0 -0.92574976916E-01  0.59205238553E-01 -0.31565099447E-01  0.11433286162E+00  0.51100000000E-03 0.  1.
</event>
<event>
 8    1  0.2959109E+004  0.1043930E+01  0.7957747E-01            NaN
         13   -1    0    0    0    0  0.00000000000E+00  0.00000000000E+00  0.74505805969E-08  0.10566000000E+00  0.10566000000E+00 0.  1.
     999900   -1    0    0    0    0 -0.00000000000E+00 -0.00000000000E+00 -0.74505805969E-08  0.93827000000E+00  0.93827000000E+00 0. -1.
     999902    2    1    2    0    0 -0.86136697048E-02  0.33957929652E-02 -0.12345238939E-01  0.10284984855E+01  0.10283827123E+01 0.  0.
     999903    2    3    3    0    0  0.90536623592E-01  0.14095619438E-01  0.91342156995E-01  0.13681673563E+00  0.44495649297E-01 0.  0.
         14    1    1    2    0    0  0.86136697048E-02 -0.33957929652E-02  0.12345238939E-01  0.15431514511E-01  0.00000000000E+00 0.  1.
     999901    1    3    3    0    0 -0.99150293297E-01 -0.10699826473E-01 -0.10368739593E+00  0.89168174985E+00  0.88000000000E+00 0. -1.
        -11    1    4    4    0    0  0.59835950697E-01  0.28129712541E-01  0.47172938568E-01  0.81222958439E-01  0.51100000000E-03 0.  1.
         11    1    4    4    0    0  0.30700672896E-01 -0.14034093103E-01  0.44169218427E-01  0.55593777196E-01  0.51100000000E-03 0. -1.
</event>
<event>
 8    1  0.2959109E+004  0.1043930E+01  0.7957747E-01            NaN
         13   -1    0    0    0    0  0.00000000000E+00  0.00000000000E+00  0.74505805969E-08  0.10566000000E+00  0.10566000000E+00 0. -1.
     999900   -1    0    0    0    0 -0.00000000000E+00 -0.00000000000E+00 -0.74505805969E-08  0.93827000000E+00  0.93827000000E+00 0.  1.
     999902    2    1    2    0    0 -0.13251837830E-01  0.14202789683E-03  0.23963941719E-02  0.10304624805E+01  0.10303744705E+01 0.  0.
     999903    2    3    3    0    0  0.12784186297E+00 -0.21410738026E-01 -0.19793581696E-01  0.13868652812E+00  0.45168634876E-01 0.  0.
         14    1    1    2    0    0  0.13251837830E-01 -0.14202789683E-03 -0.23963941719E-02  0.13467519550E-01  0.00000000000E+00 0.  1.
     999901    1    3    3    0    0 -0.14109370080E+00  0.21552765923E-01  0.22189975867E-01  0.89177595233E+00  0.88000000000E+00 0. -1.
        -11    1    4    4    0    0  0.58318835175E-01  0.11858305593E-01 -0.18127573939E-02  0.59542028501E-01  0.51100000000E-03 0.  1.
         11    1    4    4    0    0  0.69523027792E-01 -0.33269043618E-01 -0.17980824302E-01  0.79144499620E-01  0.51100000000E-03 0. -1.
</event>
<event>
 8    1  0.2959109E+004  0.1043930E+01  0.7957747E-01            NaN
         13   -1    0    0    0    0  0.00000000000E+00  0.00000000000E+00  0.74505805969E-08  0.10566000000E+00  0.10566000000E+00 0.  1.
     999900   -1    0    0    0    0 -0.00000000000E+00 -0.00000000000E+00 -0.74505805969E-08  0.93827000000E+00  0.93827000000E+00 0.  1.
     999902    2    1    2    0    0 -0.84684009331E-03  0.13444052605E-01  0.36075941878E-02  0.10299845913E+01  0.10298901805E+01 0.  0.
     999903    2    3    3    0    0 -0.11770763705E+00  0.70934979593E-03 -0.60562624051E-01  0.13985177230E+00  0.45112035930E-01 0.  0.
         14    1    1    2    0    0  0.84684009331E-03 -0.13444052605E-01 -0.36075941878E-02  0.13945408721E-01  0.00000000000E+00 0.  1.
     999901    1    3    3    0    0  0.11686079696E+00  0.12734702809E-01  0.64170218239E-01  0.89013281898E+00  0.88000000000E+00 0. -1.
        -11    1    4    4    0    0 -0.65366386473E-01  0.90820956580E-02 -0.56165285488E-01  0.86660540946E-01  0.51100000000E-03 0.  1.
         11    1    4    4    0    0 -0.52341250576E-01 -0.83727458621E-02 -0.43973385625E-02  0.53191231350E-01  0.51100000000E-03 0. -1.
</event>
<event>
 8    1  0.2959109E+004  0.1043930E+01  0.7957747E-01            NaN
         13   -1    0    0    0    0  0.00000000000E+00  0.00000000000E+00  0.74505805969E-08  0.10566000000E+00  0.10566000000E+00 0.  1.
     999900   -1    0    0    0    0 -0.00000000000E+00 -0.00000000000E+00 -0.74505805969E-08  0.93827000000E+00  0.93827000000E+00 0. -1.
     999902    2    1    2    0    0  0.11530484834E-01 -0.60678739413E-02  0.43786488789E-02  0.10301843192E+01  0.10300926113E+01 0.  0.
     999903    2    3    3    0    0  0.30201000892E-01 -0.13013092531E+00  0.12171548853E-01  0.14125183685E+00  0.44246769787E-01 0.  0.
         14    1    1    2    0    0 -0.11530484834E-01  0.60678739413E-02 -0.43786488789E-02  0.13745680801E-01  0.00000000000E+00 0.  1.
     999901    1    3    3    0    0 -0.18670516058E-01  0.12406305136E+00 -0.77928999739E-02  0.88893248235E+00  0.88000000000E+00 0.  1.
        -11    1    4    4    0    0  0.14606401007E-01 -0.43205259406E-01  0.24996069306E-01  0.52010633456E-01  0.51100000000E-03 0.  1.
         11    1    4    4    0    0  0.15594599885E-01 -0.86925665899E-01 -0.12824520453E-01  0.89241203395E-01  0.51100000000E-03 0. -1.
</event>
<event>
 8    1  0.2959109E+004  0.1043930E+01  0.7957747E-01            NaN
         13   -1    0    0    0    0  0.00000000000E+00  0.00000000000E+00  0.74505805969E-08  0.10566000000E+00  0.10566000000E+00 0.  1.
     999900   -1    0    0    0    0 -0.00000000000E+00 -0.00000000000E+00 -0.74505805969E-08  0.93827000000E+00  0.93827000000E+00 0. -1.
     999902    2    1    2    0    0  0.13265726722E-01  0.69171925380E-03 -0.38749487397E-02  0.10300926155E+01  0.10299996715E+01 0.  0.
     999903    2    3    3    0    0  0.23356846177E-01 -0.10714102467E+00  0.74592085633E-01  0.13998767406E+00  0.44808796230E-01 0.  0.
         14    1    1    2    0    0 -0.13265726722E-01 -0.69171925380E-03  0.38749487397E-02  0.13837384461E-01  0.00000000000E+00 0. -1.
     999901    1    3    3    0    0 -0.10091119454E-01  0.10783274393E+00 -0.78467034373E-01  0.89010494147E+00  0.88000000000E+00 0. -1.
        -11    1    4    4    0    0  0.20470793132E-01 -0.89294578193E-01  0.79445988488E-01  0.12126211805E+00  0.51100000000E-03 0. -1.
         11    1    4    4    0    0  0.28860530447E-02 -0.17846446479E-01 -0.48539028548E-02  0.18725556014E-01  0.51100000000E-03 0.  1.
</event>
<event>
 8    1  0.2959109E+004  0.1043930E+01  0.7957747E-01            NaN
         13   -1    0    0    0    0  0.00000000000E+00  0.00000000000E+00  0.74505805969E-08  0.10566000000E+00  0.10566000000E+00 0. -1.
     999900   -1    0    0    0    0 -0.00000000000E+00 -0.00000000000E+00 -0.74505805969E-08  0.93827000000E+00  0.93827000000E+00 0.  1.
     999902    2    1    2    0    0 -0.91731869722E-02  0.70969286433E-02 -0.40409792706E-02  0.10316481732E+01  0.10315750627E+01 0.  0.
     999903    2    3    3    0    0  0.54517275359E-01 -0.12058021900E+00  0.97617603042E-02  0.14004935950E+00  0.44797417400E-01 0.  0.
         14    1    1    2    0    0  0.91731869722E-02 -0.70969286433E-02  0.40409792706E-02  0.12281826772E-01  0.00000000000E+00 0.  1.
     999901    1    3    3    0    0 -0.63690462331E-01  0.12767714764E+00 -0.13802739575E-01  0.89159881373E+00  0.88000000000E+00 0.  1.
        -11    1    4    4    0    0  0.25925658877E-01 -0.99454007301E-01 -0.13885869074E-02  0.10278827098E+00  0.51100000000E-03 0.  1.
         11    1    4    4    0    0  0.28591616482E-01 -0.21126211697E-01  0.11150347212E-01  0.37261088520E-01  0.51100000000E-03 0. -1.
</event>
<event>
 8    1  0.2959109E+004  0.1043930E+01  0.7957747E-01            NaN
         13   -1    0    0    0    0  0.00000000000E+00  0.00000000000E+00  0.74505805969E-08  0.10566000000E+00  0.10566000000E+00 0. -1.
     999900   -1    0    0    0    0 -0.00000000000E+00 -0.00000000000E+00 -0.74505805969E-08  0.93827000000E+00  0.93827000000E+00 0.  1.
     999902    2    1    2    0    0 -0.27509807347E-02  0.13170028304E-01 -0.22286474744E-02  0.10302923899E+01  0.10302021278E+01 0.  0.
     999903    2    3    3    0    0 -0.12304933398E+00  0.52153944711E-01 -0.55664805680E-02  0.14124650767E+00  0.45369788181E-01 0.  0.
         14    1    1    2    0    0  0.27509807347E-02 -0.13170028304E-01  0.22286474744E-02  0.13637610131E-01  0.00000000000E+00 0.  1.
     999901    1    3    3    0    0  0.12029835325E+00 -0.38983916407E-01  0.33378330936E-02  0.88904588220E+00  0.88000000000E+00 0. -1.
        -11    1    4    4    0    0 -0.80456551091E-01  0.18427161348E-01 -0.20203520148E-01  0.84977998541E-01  0.51100000000E-03 0. -1.
         11    1    4    4    0    0 -0.42592782891E-01  0.33726783363E-01  0.14637039580E-01  0.56268509125E-01  0.51100000000E-03 0.  1.
</event>
<event>
 8    1  0.2959109E+004  0.1043930E+01  0.7957747E-01            NaN
         13   -1    0    0    0    0  0.00000000000E+00  0.00000000000E+00  0.74505805969E-08  0.10566000000E+00  0.10566000000E+00 0.  1.
     999900   -1    0    0    0    0 -0.00000000000E+00 -0.00000000000E+00 -0.74505805969E-08  0.93827000000E+00  0.93827000000E+00 0.  1.
     999902    2    1    2    0    0 -0.96956289220E-02 -0.91660431599E-03  0.91446688219E-02  0.10305707204E+01  0.10304841286E+01 0.  0.
     999903    2    3    3    0    0  0.19749914196E-01  0.92233885092E-01 -0.91980444971E-01  0.13940836576E+00  0.45575668026E-01 0.  0.
         14    1    1    2    0    0  0.96956289220E-02  0.91660431599E-03 -0.91446688219E-02  0.13359279604E-01  0.00000000000E+00 0. -1.
     999901    1    3    3    0    0 -0.29445543118E-01 -0.93150489408E-01  0.10112511379E+00  0.89116235464E+00  0.88000000000E+00 0.  1.
        -11    1    4    4    0    0  0.67589107495E-02  0.64039695489E-01 -0.86566528675E-01  0.10789249502E+00  0.51100000000E-03 0.  1.
         11    1    4    4    0    0  0.12991003446E-01  0.28194189603E-01 -0.54139162958E-02  0.31515870742E-01  0.51100000000E-03 0. -1.
</event>
<event>
 8    1  0.2959109E+004  0.1043930E+01  0.7957747E-01            NaN
         13   -1    0    0    0    0  0.00000000000E+00  0.00000000000E+00  0.74505805969E-08  0.10566000000E+00  0.10566000000E+00 0.  1.
     999900   -1    0    0    0    0 -0.00000000000E+00 -0.00000000000E+00 -0.74505805969E-08  0.93827000000E+00  0.93827000000E+00 0.  1.
     999902    2    1    2    0    0  0.13712659635E-01  0.27257520481E-02 -0.13108083534E-02  0.10298877432E+01  0.10297920074E+01 0.  0.
     999903    2    3    3    0    0  0.20720772231E-01 -0.86088231725E-01  0.98187311922E-01  0.13981082891E+00  0.45450914333E-01 0.  0.
         14    1    1    2    0    0 -0.13712659635E-01 -0.27257520481E-02  0.13108083534E-02  0.14042256836E-01  0.00000000000E+00 0.  1.
     999901    1    3    3    0    0 -0.70081125959E-02  0.88813983773E-01 -0.99498120275E-01  0.89007691426E+00  0.88000000000E+00 0.  1.
        -11    1    4    4    0    0  0.25034697425E-01 -0.18009900774E-01  0.24459540950E-01  0.39365249466E-01  0.51100000000E-03 0. -1.
         11    1    4    4    0    0 -0.43139251935E-02 -0.68078330951E-01  0.73727770972E-01  0.10044557944E+00  0.51100000000E-03 0.  1.
</event>
<event>
 8    1  0.2959109E+004  0.1043930E+01  0.7957747E-01            NaN
         13   -1    0    0    0    0  0.00000000000E+00  0.00000000000E+00  0.74505805969E-08  0.10566000000E+00  0.10566000000E+00 0.  1.
     999900   -1    0    0    0    0 -0.00000000000E+00 -0.00000000000E+00 -0.74505805969E-08  0.93827000000E+00  0.93827000000E+00 0.  1.
     999902    2    1    2    0    0 -0.71310486442E-02  0.57905702045E-02 -0.11261598408E-01  0.10293970665E+01  0.10292944741E+01 0.  0.
     999903    2    3    3    0    0  0.86670275224E-01  0.96444081750E-01  0.12253454639E-01  0.13947026879E+00  0.49885982149E-01 0.  0.
         14    1    1    2    0    0  0.71310486442E-02 -0.57905702045E-02  0.11261598408E-01  0.14532933523E-01  0.00000000000E+00 0.  1.
     999901    1    3    3    0    0 -0.93801323868E-01 -0.90653511546E-01 -0.23515053048E-01  0.88992679768E+00  0.88000000000E+00 0. -1.
        -11    1    4    4    0    0  0.54539949832E-01  0.63089745250E-01 -0.16417970493E-01  0.84998429159E-01  0.51100000000E-03 0. -1.
         11    1    4    4    0    0  0.32130325392E-01  0.33354336500E-01  0.28671425132E-01  0.54471839635E-01  0.51100000000E-03 0.  1.
</event>
<event>
 8    1  0.2959109E+004  0.1043930E+01  0.7957747E-01            NaN
         13   -1    0    0    0    0  0.00000000000E+00  0.00000000000E+00  0.74505805969E-08  0.10566000000E+00  0.10566000000E+00 0. -1.
     999900   -1    0    0    0    0 -0.00000000000E+00 -0.00000000000E+00 -0.74505805969E-08  0.93827000000E+00  0.93827000000E+00 0.  1.
     999902    2    1    2    0    0 -0.79904213751E-03 -0.19954615870E-02 -0.13934416662E-01  0.10298307694E+01  0.10297342499E+01 0.  0.
     999903    2    3    3    0    0 -0.31691018917E-01  0.43042080602E-02  0.12668200432E+00  0.13810941276E+00  0.44755254303E-01 0.  0.
         14    1    1    2    0    0  0.79904213751E-03  0.19954615870E-02  0.13934416662E-01  0.14099230581E-01  0.00000000000E+00 0. -1.
     999901    1    3    3    0    0  0.30891976780E-01 -0.62996696472E-02 -0.14061642098E+00  0.89172135666E+00  0.88000000000E+00 0.  1.
        -11    1    4    4    0    0 -0.32800860349E-01 -0.42900192947E-03  0.42040085152E-01  0.53326450875E-01  0.51100000000E-03 0.  1.
         11    1    4    4    0    0  0.11098414321E-02  0.47332099897E-02  0.84641919169E-01  0.84782961887E-01  0.51100000000E-03 0. -1.
</event>
<event>
 8    1  0.2959109E+004  0.1043930E+01  0.7957747E-01            NaN
         13   -1    0    0    0    0  0.00000000000E+00  0.00000000000E+00  0.74505805969E-08  0.10566000000E+00  0.10566000000E+00 0.  1.
     999900   -1    0    0    0    0 -0.00000000000E+00 -0.00000000000E+00 -0.74505805969E-08  0.93827000000E+00  0.93827000000E+00 0. -1.
     999902    2    1    2    0    0 -0.18743757115E-01  0.77333787045E-02 -0.19028488945E-01  0.10161232208E+01  0.10157426755E+01 0.  0.
     999903    2    3    3    0    0 -0.52258521165E-01  0.63301285946E-01  0.86235214021E-01  0.12747735272E+00  0.45562676419E-01 0.  0.
         14    1    1    2    0    0  0.18743757115E-01 -0.77333787045E-02  0.19028488945E-01  0.27806779183E-01  0.00000000000E+00 0.  1.
     999901    1    3    3    0    0  0.33514764049E-01 -0.55567907242E-01 -0.10526370297E+00  0.88864586810E+00  0.88000000000E+00 0. -1.
        -11    1    4    4    0    0 -0.80978778012E-02  0.36674132487E-01  0.56806998538E-01  0.68101863575E-01  0.51100000000E-03 0.  1.
         11    1    4    4    0    0 -0.44160643363E-01  0.26627153459E-01  0.29428215483E-01  0.59375489144E-01  0.51100000000E-03 0. -1.
</event>
<event>
 8    1  0.2959109E+004  0.1043930E+01  0.7957747E-01            NaN
         13   -1    0    0    0    0  0.00000000000E+00  0.00000000000E+00  0.74505805969E-08  0.10566000000E+00  0.10566000000E+00 0. -1.
     999900   -1    0    0    0    0 -0.00000000000E+00 -0.00000000000E+00 -0.74505805969E-08  0.93827000000E+00  0.93827000000E+00 0.  1.
     999902    2    1    2    0    0  0.62204398199E-02 -0.12184879003E-01  0.18377357149E-02  0.10301262896E+01  0.10300338005E+01 0.  0.
     999903    2    3    3    0    0  0.50177161310E-01 -0.12389776671E+00  0.38258687050E-02  0.14197319734E+00  0.47679632752E-01 0.  0.
         14    1    1    2    0    0 -0.62204398199E-02  0.12184879003E-01 -0.18377357149E-02  0.13803710386E-01  0.00000000000E+00 0. -1.
     999901    1    3    3    0    0 -0.43956721490E-01  0.11171288770E+00 -0.19881329901E-02  0.88815309227E+00  0.88000000000E+00 0.  1.
        -11    1    4    4    0    0  0.11901738315E-01 -0.54196153195E-01  0.23170287702E-01  0.60133166798E-01  0.51100000000E-03 0. -1.
         11    1    4    4    0    0  0.38275422995E-01 -0.69701613512E-01 -0.19344418997E-01  0.81840030541E-01  0.51100000000E-03 0.  1.
</event>
<event>
 8    1  0.2959109E+004  0.1043930E+01  0.7957747E-01            NaN
         13   -1    0    0    0    0  0.00000000000E+00  0.00000000000E+00  0.74505805969E-08  0.10566000000E+00  0.10566000000E+00 0.  1.
     999900   -1    0    0    0    0 -0.00000000000E+00 -0.00000000000E+00 -0.74505805969E-08  0.93827000000E+00  0.93827000000E+00 0. -1.
     999902    2    1    2    0    0  0.38375766083E-02  0.13315712328E-01  0.21888037457E-02  0.10299005292E+01  0.10298049689E+01 0.  0.
     999903    2    3    3    0    0  0.11202864380E+00 -0.40099110179E-01  0.57801732319E-01  0.13992791833E+00  0.45611691485E-01 0.  0.
         14    1    1    2    0    0 -0.38375766083E-02 -0.13315712328E-01 -0.21888037457E-02  0.14029470798E-01  0.00000000000E+00 0. -1.
     999901    1    3    3    0    0 -0.10819106719E+00  0.53414822507E-01 -0.55612928573E-01  0.88997261087E+00  0.88000000000E+00 0.  1.
        -11    1    4    4    0    0  0.74959684059E-01 -0.68887564642E-02  0.21386000273E-01  0.78256190353E-01  0.51100000000E-03 0. -1.
         11    1    4    4    0    0  0.37068959739E-01 -0.33210353715E-01  0.36415732045E-01  0.61671727975E-01  0.51100000000E-03 0.  1.
</event>
<event>
 7    1  0.2959109E+004  0.1043930E+01  0.7957747E-01            NaN
         13   -1    0    0    0    0  0.00000000000E+00  0.00000000000E+00  0.74505805969E-08  0.10566000000E+00  0.10566000000E+00 0.  1.
     999900   -1    0    0    0    0 -0.00000000000E+00 -0.00000000000E+00 -0.74505805969E-08  0.93827000000E+00  0.93827000000E+00 0. -1.
     999903    2    1    2    0    0 -0.88989524412E-01 -0.61523719902E-01  0.34829235137E-01  0.12251773294E+00  0.45751674261E-01 0.  0.
         14    1    1    2    0    0  0.26996345975E-01  0.25708051810E-01 -0.78282854548E-02  0.38091845283E-01  0.00000000000E+00 0. -1.
     999901    1    1    2    0    0  0.61993178437E-01  0.35815668092E-01 -0.27000949682E-01  0.88332042178E+00  0.88000000000E+00 0. -1.
        -11    1    3    3    0    0 -0.68104992388E-01 -0.46546002269E-01  0.42957427661E-02  0.82604690195E-01  0.51100000000E-03 0.  1.
         11    1    3    3    0    0 -0.20884532024E-01 -0.14977717633E-01  0.30533492371E-01  0.39913042740E-01  0.51100000000E-03 0. -1.
</event>
<event>
 8    1  0.2959109E+004  0.1043930E+01  0.7957747E-01            NaN
         13   -1    0    0    0    0  0.00000000000E+00  0.00000000000E+00  0.74505805969E-08  0.10566000000E+00  0.10566000000E+00 0. -1.
     999900   -1    0    0    0    0 -0.00000000000E+00 -0.00000000000E+00 -0.74505805969E-08  0.93827000000E+00  0.93827000000E+00 0. -1.
     999902    2    1    2    0    0  0.49662850394E-02  0.55447931546E-02  0.12621193682E-01  0.10292772443E+01  0.10291729410E+01 0.  0.
     999903    2    3    3    0    0 -0.50493426746E-01 -0.10923497811E+00  0.55467034325E-01  0.13906044964E+00  0.42182344302E-01 0.  0.
         14    1    1    2    0    0 -0.49662850394E-02 -0.55447931546E-02 -0.12621193682E-01  0.14652755651E-01  0.00000000000E+00 0.  1.
     999901    1    3    3    0    0  0.55459711786E-01  0.11477977126E+00 -0.42845840643E-01  0.89021679471E+00  0.88000000000E+00 0.  1.
        -11    1    4    4    0    0 -0.29994196554E-01 -0.20308681969E-01  0.17197745020E-01  0.40101345925E-01  0.51100000000E-03 0. -1.
         11    1    4    4    0    0 -0.20499230192E-01 -0.88926296137E-01  0.38269289305E-01  0.98959103714E-01  0.51100000000E-03 0.  1.
</event>
<event>
 8    1  0.2959109E+004  0.1043930E+01  0.7957747E-01            NaN
         13   -1    0    0    0    0  0.00000000000E+00  0.00000000000E+00  0.74505805969E-08  0.10566000000E+00  0.10566000000E+00 0. -1.
     999900   -1    0    0    0    0 -0.00000000000E+00 -0.00000000000E+00 -0.74505805969E-08  0.93827000000E+00  0.93827000000E+00 0.  1.
     999902    2    1    2    0    0 -0.90623842807E-02 -0.37483099647E-02 -0.96066658640E-02  0.10302017567E+01  0.10301102828E+01 0.  0.
     999903    2    3    3    0    0  0.92050417985E-01  0.89976439093E-02 -0.95449855980E-01  0.14017068337E+00  0.44529859888E-01 0.  0.
         14    1    1    2    0    0  0.90623842807E-02  0.37483099647E-02  0.96066658640E-02  0.13728243350E-01  0.00000000000E+00 0. -1.
     999901    1    3    3    0    0 -0.10111280227E+00 -0.12745953874E-01  0.85843190116E-01  0.89003107328E+00  0.88000000000E+00 0. -1.
        -11    1    4    4    0    0  0.52881437575E-01  0.23715520179E-01 -0.71195433456E-01  0.91803721076E-01  0.51100000000E-03 0. -1.
         11    1    4    4    0    0  0.39168980410E-01 -0.14717876270E-01 -0.24254422524E-01  0.48366962290E-01  0.51100000000E-03 0.  1.
</event>
<event>
 8    1  0.2959109E+004  0.1043930E+01  0.7957747E-01            NaN
         13   -1    0    0    0    0  0.00000000000E+00  0.00000000000E+00  0.74505805969E-08  0.10566000000E+00  0.10566000000E+00 0.  1.
     999900   -1    0    0    0    0 -0.00000000000E+00 -0.00000000000E+00 -0.74505805969E-08  0.93827000000E+00  0.93827000000E+00 0.  1.
     999902    2    1    2    0    0 -0.27580472562E-02 -0.82797477066E-02  0.11604541435E-01  0.10294101368E+01  0.10293077301E+01 0.  0.
     999903    2    3    3    0    0 -0.88976140065E-01  0.50945737497E-01 -0.81222297633E-01  0.13836690566E+00  0.45123356254E-01 0.  0.
         14    1    1    2    0    0  0.27580472562E-02  0.82797477066E-02 -0.11604541435E-01  0.14519863246E-01  0.00000000000E+00 0. -1.
     999901    1    3    3    0    0  0.86218092809E-01 -0.59225485204E-01  0.92826839068E-01  0.89104323109E+00  0.88000000000E+00 0.  1.
        -11    1    4    4    0    0 -0.76154940970E-01  0.31860355335E-01 -0.80579485142E-01  0.11536018301E+00  0.51100000000E-03 0.  1.
         11    1    4    4    0    0 -0.12821199095E-01  0.19085382162E-01 -0.64281249116E-03  0.23006722657E-01  0.51100000000E-03 0. -1.
</event>
<event>
 8    1  0.2959109E+004  0.1043930E+01  0.7957747E-01            NaN
         13   -1    0    0    0    0  0.00000000000E+00  0.00000000000E+00  0.74505805969E-08  0.10566000000E+00  0.10566000000E+00 0.  1.
     999900   -1    0    0    0    0 -0.00000000000E+00 -0.00000000000E+00 -0.74505805969E-08  0.93827000000E+00  0.93827000000E+00 0. -1.
     999902    2    1    2    0    0 -0.12748652643E-01 -0.46636007314E-02 -0.91355257706E-02  0.10275673857E+01  0.10274371012E+01 0.  0.
     999903    2    3    3    0    0  0.79438837999E-01 -0.16811888285E-01  0.99383849324E-01  0.13603916455E+00  0.45125782142E-01 0.  0.
         14    1    1    2    0    0  0.12748652643E-01  0.46636007314E-02  0.91355257706E-02  0.16362614311E-01  0.00000000000E+00 0. -1.
     999901    1    3    3    0    0 -0.92187490642E-01  0.12148287553E-01 -0.10851937509E+00  0.89152822114E+00  0.88000000000E+00 0. -1.
        -11    1    4    4    0    0  0.15782298935E-02 -0.22176715176E-02  0.31767076704E-01  0.31887570618E-01  0.51100000000E-03 0. -1.
         11    1    4    4    0    0  0.77860608105E-01 -0.14594216767E-01  0.67616772620E-01  0.10415159393E+00  0.51100000000E-03 0.  1.
</event>
<event>
 8    1  0.2959109E+004  0.1043930E+01  0.7957747E-01            NaN
         13   -1    0    0    0    0  0.00000000000E+00  0.00000000000E+00  0.74505805969E-08  0.10566000000E+00  0.10566000000E+00 0.  1.
     999900   -1    0    0    0    0 -0.00000000000E+00 -0.00000000000E+00 -0.74505805969E-08  0.93827000000E+00  0.93827000000E+00 0. -1.
     999902    2    1    2    0    0  0.12341065642E-01  0.36498077134E-02 -0.32639550082E-02  0.10306530877E+01  0.10305675673E+01 0.  0.
     999903    2    3    3    0    0 -0.42072870815E-01 -0.87163297892E-01  0.89735471605E-01  0.13944223164E+00  0.44990156074E-01 0.  0.
         14    1    1    2    0    0 -0.12341065642E-01 -0.36498077134E-02  0.32639550082E-02  0.13276912285E-01  0.00000000000E+00 0.  1.
     999901    1    3    3    0    0  0.54413936456E-01  0.90813105605E-01 -0.92999426613E-01  0.89121085607E+00  0.88000000000E+00 0. -1.
        -11    1    4    4    0    0 -0.12522986252E-01 -0.49831386945E-01  0.20296719554E-01  0.55246812172E-01  0.51100000000E-03 0. -1.
         11    1    4    4    0    0 -0.29549884563E-01 -0.37331910947E-01  0.69438752051E-01  0.84195419471E-01  0.51100000000E-03 0.  1.
</event>
<event>
 8    1  0.2959109E+004  0.1043930E+01  0.7957747E-01            NaN
         13   -1    0    0    0    0  0.00000000000E+00  0.00000000000E+00  0.74505805969E-08  0.10566000000E+00  0.10566000000E+00 0.  1.
     999900   -1    0    0    0    0 -0.00000000000E+00 -0.00000000000E+00 -0.74505805969E-08  0.93827000000E+00  0.93827000000E+00 0.  1.
     999902    2    1    2    0    0  0.88363558476E-02 -0.90355330380E-02 -0.47305935582E-02  0.10304355360E+01  0.10303471713E+01 0.  0.
     999903    2    3    3    0    0 -0.22240322706E-01 -0.11829727919E+00 -0.58891310879E-01  0.14148262817E+00  0.45390190119E-01 0.  0.
         14    1    1    2    0    0 -0.88363558476E-02  0.90355330380E-02  0.47305935582E-02  0.13494463952E-01  0.00000000000E+00 0.  1.
     999901    1    3    3    0    0  0.31076678553E-01  0.10926174615E+00  0.54160717321E-01  0.88895290788E+00  0.88000000000E+00 0. -1.
        -11    1    4    4    0    0 -0.33221118812E-01 -0.77767973162E-01 -0.27072220577E-01  0.88795645349E-01  0.51100000000E-03 0. -1.
         11    1    4    4    0    0  0.10980796106E-01 -0.40529306029E-01 -0.31819090302E-01  0.52686982822E-01  0.51100000000E-03 0.  1.
</event>
<event>
 8    1  0.2959109E+004  0.1043930E+01  0.7957747E-01            NaN
         13   -1    0    0    0    0  0.00000000000E+00  0.00000000000E+00  0.74505805969E-08  0.10566000000E+00  0.10566000000E+00 0.  1.
     999900   -1    0    0    0    0 -0.00000000000E+00 -0.00000000000E+00 -0.74505805969E-08  0.93827000000E+00  0.93827000000E+00 0.  1.
     999902    2    1    2    0    0  0.74353343703E-03  0.12239641739E-01 -0.19469192978E-02  0.10315141969E+01  0.10314394729E+01 0.  0.
     999903    2    3    3    0    0  0.68704383193E-02 -0.11078749547E+00  0.72179202753E-01  0.13984839772E+00  0.45018495766E-01 0.  0.
         14    1    1    2    0    0 -0.74353343703E-03 -0.12239641739E-01  0.19469192978E-02  0.12415803100E-01  0.00000000000E+00 0.  1.
     999901    1    3    3    0    0 -0.61269048823E-02  0.12302713721E+00 -0.74126122051E-01  0.89166579918E+00  0.88000000000E+00 0.  1.
        -11    1    4    4    0    0 -0.54567973580E-02 -0.79907628877E-01  0.70251940623E-01  0.10653920439E+00  0.51100000000E-03 0. -1.
         11    1    4    4    0    0  0.12327235677E-01 -0.30879866590E-01  0.19272621306E-02  0.33309193331E-01  0.51100000000E-03 0.  1.
</event>
<event>
 8    1  0.2959109E+004  0.1043930E+01  0.7957747E-01            NaN
         13   -1    0    0    0    0  0.00000000000E+00  0.00000000000E+00  0.74505805969E-08  0.10566000000E+00  0.10566000000E+00 0.  1.
     999900   -1    0    0    0    0 -0.00000000000E+00 -0.00000000000E+00 -0.74505805969E-08  0.93827000000E+00  0.93827000000E+00 0. -1.
     999902    2    1    2    0    0 -0.10734964881E-01  0.26043012383E-02 -0.78003075426E-02  0.10304071803E+01  0.10303184413E+01 0.  0.
     999903    2    3    3    0    0  0.11793485998E+00  0.34790655831E-01  0.45757284111E-01  0.13885779807E+00  0.45483382738E-01 0.  0.
         14    1    1    2    0    0  0.10734964881E-01 -0.26043012383E-02  0.78003075426E-02  0.13522819739E-01  0.00000000000E+00 0.  1.
     999901    1    3    3    0    0 -0.12866982486E+00 -0.32186354593E-01 -0.53557591654E-01  0.89154938219E+00  0.88000000000E+00 0.  1.
        -11    1    4    4    0    0  0.14195020457E-01 -0.10187487655E-01  0.10616136572E-01  0.20451087678E-01  0.51100000000E-03 0.  1.
         11    1    4    4    0    0  0.10373983952E+00  0.44978143486E-01  0.35141147539E-01  0.11840671040E+00  0.51100000000E-03 0. -1.
</event>
<event>
 8    1  0.2959109E+004  0.1043930E+01  0.7957747E-01            NaN
         13   -1    0    0    0    0  0.00000000000E+00  0.00000000000E+00  0.74505805969E-08  0.10566000000E+00  0.10566000000E+00 0.  1.
     999900   -1    0    0    0    0 -0.00000000000E+00 -0.00000000000E+00 -0.74505805969E-08  0.93827000000E+00  0.93827000000E+00 0. -1.
     999902    2    1    2    0    0  0.41360281052E-02  0.37113614991E-02 -0.12296205935E-01  0.10304363862E+01  0.10303480327E+01 0.  0.
     999903    2    3    3    0    0 -0.10158685288E+00  0.12214865265E-01  0.82505181837E-01  0.13901227825E+00  0.45257229931E-01 0.  0.
         14    1    1    2    0    0 -0.41360281052E-02 -0.37113614991E-02  0.12296205935E-01  0.13493613788E-01  0.00000000000E+00 0.  1.
     999901    1    3    3    0    0  0.10572288099E+00 -0.85035037660E-02 -0.94801387772E-01  0.89142410797E+00  0.88000000000E+00 0. -1.
        -11    1    4    4    0    0 -0.43516558708E-01 -0.11922502116E-02  0.91326781759E-02  0.44483471919E-01  0.51100000000E-03 0. -1.
         11    1    4    4    0    0 -0.58070294175E-01  0.13407115477E-01  0.73372503661E-01  0.94528806326E-01  0.51100000000E-03 0.  1.
</event>
<event>
 8    1  0.2959109E+004  0.1043930E+01  0.7957747E-01            NaN
         13   -1    0    0    0    0  0.00000000000E+00  0.00000000000E+00  0.74505805969E-08  0.10566000000E+00  0.10566000000E+00 0. -1.
     999900   -1    0    0    0    0 -0.00000000000E+00 -0.00000000000E+00 -0.74505805969E-08  0.93827000000E+00  0.93827000000E+00 0.  1.
     999902    2    1    2    0    0 -0.96498127224E-02 -0.93997966092E-02  0.14503723377E-02  0.10303808804E+01  0.10302917937E+01 0.  0.
     999903    2    3    3    0    0  0.44497324539E-01  0.37769206157E-01  0.11865012747E+00  0.13971112685E+00  0.45108994589E-01 0.  0.
         14    1    1    2    0    0  0.96498127224E-02  0.93997966092E-02 -0.14503723377E-02  0.13549119595E-01  0.00000000000E+00 0. -1.
     999901    1    3    3    0    0 -0.54147137262E-01 -0.47169002766E-01 -0.11719975513E+00  0.89066975356E+00  0.88000000000E+00 0. -1.
        -11    1    4    4    0    0  0.17884085565E-01  0.13267584425E-01  0.92312028010E-01  0.94961260255E-01  0.51100000000E-03 0. -1.
         11    1    4    4    0    0  0.26613238975E-01  0.24501621733E-01  0.26338099457E-01  0.44749866595E-01  0.51100000000E-03 0.  1.
</event>
<event>
 8    1  0.2959109E+004  0.1043930E+01  0.7957747E-01            NaN
         13   -1    0    0    0    0  0.00000000000E+00  0.00000000000E+00  0.74505805969E-08  0.10566000000E+00  0.10566000000E+00 0.  1.
     999900   -1    0    0    0    0 -0.00000000000E+00 -0.00000000000E+00 -0.74505805969E-08  0.93827000000E+00  0.93827000000E+00 0.  1.
     999902    2    1    2    0    0 -0.32117318630E-02 -0.43473121489E-02  0.12118415269E-01  0.10306608503E+01  0.10305754306E+01 0.  0.
     999903    2    3    3    0    0  0.79820494942E-02 -0.63265340426E-01  0.11910860705E+00  0.14215449923E+00  0.44213402540E-01 0.  0.
         14    1    1    2    0    0  0.32117318630E-02  0.43473121489E-02 -0.12118415269E-01  0.13269149675E-01  0.00000000000E+00 0. -1.
     999901    1    3    3    0    0 -0.11193781357E-01  0.58918028277E-01 -0.10699019178E+00  0.88850635109E+00  0.88000000000E+00 0.  1.
        -11    1    4    4    0    0  0.15335308119E-01 -0.16839394445E-02  0.27258339431E-01  0.31325477118E-01  0.51100000000E-03 0. -1.
         11    1    4    4    0    0 -0.73532586243E-02 -0.61581400981E-01  0.91850267622E-01  0.11082902211E+00  0.51100000000E-03 0.  1.
</event>
<event>
 8    1  0.2959109E+004  0.1043930E+01  0.7957747E-01            NaN
         13   -1    0    0    0    0  0.00000000000E+00  0.00000000000E+00  0.74505805969E-08  0.10566000000E+00  0.10566000000E+00 0. -1.
     999900   -1    0    0    0    0 -0.00000000000E+00 -0.00000000000E+00 -0.74505805969E-08  0.93827000000E+00  0.93827000000E+00 0. -1.
     999902    2    1    2    0    0  0.11813156777E-02 -0.10889859614E-01 -0.85781359195E-02  0.10300170936E+01  0.10299231253E+01 0.  0.
     999903    2    3    3    0    0  0.33565991584E-01  0.15299008890E-01  0.12626848316E+00  0.13877176555E+00  0.44194316484E-01 0.  0.
         14    1    1    2    0    0 -0.11813156777E-02  0.10889859614E-01  0.85781359195E-02  0.13912906418E-01  0.00000000000E+00 0. -1.
     999901    1    3    3    0    0 -0.32384675906E-01 -0.26188868505E-01 -0.13484661908E+00  0.89124532803E+00  0.88000000000E+00 0. -1.
        -11    1    4    4    0    0  0.24604337115E-01 -0.75005390092E-02  0.98193399572E-01  0.10150781414E+00  0.51100000000E-03 0. -1.
         11    1    4    4    0    0  0.89616544682E-02  0.22799547899E-01  0.28075083587E-01  0.37263951410E-01  0.51100000000E-03 0.  1.
</event>
<event>
 7    1  0.2959109E+004  0.1043930E+01  0.7957747E-01            NaN
         13   -1    0    0    0    0  0.00000000000E+00  0.00000000000E+00  0.74505805969E-08  0.10566000000E+00  0.10566000000E+00 0.  1.
     999900   -1    0    0    0    0 -0.00000000000E+00 -0.00000000000E+00 -0.74505805969E-08  0.93827000000E+00  0.93827000000E+00 0.  1.
     999902    2    1    2    0    0 -0.13442830099E-01  0.98840032445E-03  0.34193585734E-02  0.10300239355E+01  0.10299300603E+01 0.  0.
         14    1    1    2    0    0  0.13442830099E-01 -0.98840032445E-03 -0.34193585734E-02  0.13906064480E-01  0.00000000000E+00 0. -1.
     999901    1    3    3    0    0  0.93200800207E-01  0.15819524646E-01 -0.84417544407E-01  0.88907984362E+00  0.88000000000E+00 0.  1.
        -11    1    3    3    0    0 -0.39829945629E-01 -0.85646130332E-02  0.19514241634E-01  0.45175700468E-01  0.51100000000E-03 0.  1.
         11    1    3    3    0    0 -0.66813684677E-01 -0.62665112888E-02  0.68322661347E-01  0.95768391437E-01  0.51100000000E-03 0. -1.
</event>
<event>
 8    1  0.2959109E+004  0.1043930E+01  0.7957747E-01            NaN
         13   -1    0    0    0    0  0.00000000000E+00  0.00000000000E+00  0.74505805969E-08  0.10566000000E+00  0.10566000000E+00 0. -1.
     999900   -1    0    0    0    0 -0.00000000000E+00 -0.00000000000E+00 -0.74505805969E-08  0.93827000000E+00  0.93827000000E+00 0. -1.
     999902    2    1    2    0    0 -0.12471226947E-01  0.25848264799E-02  0.25959450319E-02  0.10309318555E+01  0.10308499110E+01 0.  0.
     999903    2    3    3    0    0  0.13032129231E+00  0.81379981177E-02  0.98907319160E-02  0.13937492789E+00  0.47725021780E-01 0.  0.
         14    1    1    2    0    0  0.12471226947E-01 -0.25848264799E-02 -0.25959450319E-02  0.12998144487E-01  0.00000000000E+00 0. -1.
     999901    1    3    3    0    0 -0.14279251926E+00 -0.55531716378E-02 -0.72947868841E-02  0.89155692762E+00  0.88000000000E+00 0.  1.
        -11    1    4    4    0    0  0.52164277822E-01  0.74794290995E-03 -0.19283980409E-01  0.55621976958E-01  0.51100000000E-03 0. -1.
         11    1    4    4    0    0  0.78157014491E-01  0.73900552077E-02  0.29174712325E-01  0.83752950935E-01  0.51100000000E-03 0.  1.
</event>
<event>
 8    1  0.2959109E+004  0.1043930E+01  0.7957747E-01            NaN
         13   -1    0    0    0    0  0.00000000000E+00  0.00000000000E+00  0.74505805969E-08  0.10566000000E+00  0.10566000000E+00 0. -1.
     999900   -1    0    0    0    0 -0.00000000000E+00 -0.00000000000E+00 -0.74505805969E-08  0.93827000000E+00  0.93827000000E+00 0. -1.
     999902    2    1    2    0    0  0.17563815743E-02 -0.43592282210E-03 -0.15867112018E-01  0.10279600235E+01  0.10278359644E+01 0.  0.
     999903    2    3    3    0    0  0.12285750492E+00 -0.71121296922E-03  0.42632327630E-01  0.13774221742E+00  0.45397475272E-01 0.  0.
         14    1    1    2    0    0 -0.17563815743E-02  0.43592282210E-03  0.15867112018E-01  0.15969976479E-01  0.00000000000E+00 0. -1.
     999901    1    3    3    0    0 -0.12110112335E+00  0.27529014712E-03 -0.58499439648E-01  0.89021780610E+00  0.88000000000E+00 0. -1.
        -11    1    4    4    0    0  0.75722156918E-01  0.18876297615E-01  0.14233653810E-01  0.79328542667E-01  0.51100000000E-03 0.  1.
         11    1    4    4    0    0  0.47135348004E-01 -0.19587510584E-01  0.28398673820E-01  0.58413674752E-01  0.51100000000E-03 0. -1.
</event>
<event>
 8    1  0.2959109E+004  0.1043930E+01  0.7957747E-01            NaN
         13   -1    0    0    0    0  0.00000000000E+00  0.00000000000E+00  0.74505805969E-08  0.10566000000E+00  0.10566000000E+00 0. -1.
     999900   -1    0    0    0    0 -0.00000000000E+00 -0.00000000000E+00 -0.74505805969E-08  0.93827000000E+00  0.93827000000E+00 0. -1.
     999902    2    1    2    0    0 -0.14650540609E-02 -0.12245306275E-01 -0.58828736273E-02  0.10302661019E+01  0.10301754892E+01 0.  0.
     999903    2    3    3    0    0  0.11526204639E+00  0.18822528743E-01 -0.61889154136E-01  0.14025086057E+00  0.46908523349E-01 0.  0.
         14    1    1    2    0    0  0.14650540609E-02  0.12245306275E-01  0.58828736273E-02  0.13663898100E-01  0.00000000000E+00 0.  1.
     999901    1    3    3    0    0 -0.11672710045E+00 -0.31067835018E-01  0.56006280509E-01  0.89001524134E+00  0.88000000000E+00 0.  1.
        -11    1    4    4    0    0  0.89052528711E-01 -0.18484231078E-02 -0.58785726582E-01  0.10672296992E+00  0.51100000000E-03 0. -1.
         11    1    4    4    0    0  0.26209517681E-01  0.20670951851E-01 -0.31034275539E-02  0.33527890645E-01  0.51100000000E-03 0.  1.
</event>
<event>
 8    1  0.2959109E+004  0.1043930E+01  0.7957747E-01            NaN
         13   -1    0    0    0    0  0.00000000000E+00  0.00000000000E+00  0.74505805969E-08  0.10566000000E+00  0.10566000000E+00 0. -1.
     999900   -1    0    0    0    0 -0.00000000000E+00 -0.00000000000E+00 -0.74505805969E-08  0.93827000000E+00  0.93827000000E+00 0.  1.
     999902    2    1    2    0    0  0.98084129080E-02 -0.10012705997E-01  0.64136051539E-02  0.10285159293E+01  0.10284004197E+01 0.  0.
     999903    2    3    3    0    0 -0.32403195011E-01  0.49427270023E-01 -0.11524596383E+00  0.13715966980E+00  0.45145550962E-01 0.  0.
         14    1    1    2    0    0 -0.98084129080E-02  0.10012705997E-01 -0.64136051539E-02  0.15414070722E-01  0.00000000000E+00 0.  1.
     999901    1    3    3    0    0  0.42211607919E-01 -0.59439976020E-01  0.12165956898E+00  0.89135625948E+00  0.88000000000E+00 0. -1.
        -11    1    4    4    0    0 -0.21662030249E-01  0.26375121238E-01 -0.10379585954E+00  0.10926450546E+00  0.51100000000E-03 0. -1.
         11    1    4    4    0    0 -0.10741164762E-01  0.23052148785E-01 -0.11450104282E-01  0.27895164332E-01  0.51100000000E-03 0.  1.
</event>
<event>
 8    1  0.2959109E+004  0.1043930E+01  0.7957747E-01            NaN
         13   -1    0    0    0    0  0.00000000000E+00  0.00000000000E+00  0.74505805969E-08  0.10566000000E+00  0.10566000000E+00 0. -1.
     999900   -1    0    0    0    0 -0.00000000000E+00 -0.00000000000E+00 -0.74505805969E-08  0.93827000000E+00  0.93827000000E+00 0. -1.
     999902    2    1    2    0    0 -0.11234900358E-01 -0.38871871261E-02  0.69451277398E-02  0.10301616301E+01  0.10300696171E+01 0.  0.
     999903    2    3    3    0    0  0.89733035088E-02 -0.15103697808E-01 -0.13018097844E+00  0.13924202061E+00  0.46180204566E-01 0.  0.
         14    1    1    2    0    0  0.11234900358E-01  0.38871871261E-02 -0.69451277398E-02  0.13768369880E-01  0.00000000000E+00 0. -1.
     999901    1    3    3    0    0 -0.20208203867E-01  0.11216510682E-01  0.13712610618E+00  0.89091960951E+00  0.88000000000E+00 0.  1.
        -11    1    4    4    0    0  0.27225312327E-02  0.98023586305E-02 -0.95732670310E-01  0.96273068388E-01  0.51100000000E-03 0. -1.
         11    1    4    4    0    0  0.62507722761E-02 -0.24906056439E-01 -0.34448308125E-01  0.42968952222E-01  0.51100000000E-03 0.  1.
</event>
<event>
 8    1  0.2959109E+004  0.1043930E+01  0.7957747E-01            NaN
         13   -1    0    0    0    0  0.00000000000E+00  0.00000000000E+00  0.74505805969E-08  0.10566000000E+00  0.10566000000E+00 0.  1.
     999900   -1    0    0    0    0 -0.00000000000E+00 -0.00000000000E+00 -0.74505805969E-08  0.93827000000E+00  0.93827000000E+00 0.  1.
     999902    2    1    2    0    0 -0.66890411196E-02  0.54461097938E-02  0.13757820589E-01  0.10276917424E+01  0.10275634464E+01 0.  0.
     999903    2    3    3    0    0 -0.55248255613E-01 -0.32316398648E-01  0.11602829143E+00  0.13963585813E+00  0.44032818381E-01 0.  0.
         14    1    1    2    0    0  0.66890411196E-02 -0.54461097938E-02 -0.13757820589E-01  0.16238257614E-01  0.00000000000E+00 0. -1.
     999901    1    3    3    0    0  0.48559214493E-01  0.37762508442E-01 -0.10227047084E+00  0.88805588426E+00  0.88000000000E+00 0.  1.
        -11    1    4    4    0    0 -0.42627609458E-01 -0.36844199365E-01  0.61195052760E-01  0.83184756526E-01  0.51100000000E-03 0.  1.
         11    1    4    4    0    0 -0.12620646155E-01  0.45278007171E-02  0.54833238666E-01  0.56451101604E-01  0.51100000000E-03 0. -1.
</event>
<event>
 8    1  0.2959109E+004  0.1043930E+01  0.7957747E-01            NaN
         13   -1    0    0    0    0  0.00000000000E+00  0.00000000000E+00  0.74505805969E-08  0.10566000000E+00  0.10566000000E+00 0.  1.
     999900   -1    0    0    0    0 -0.00000000000E+00 -0.00000000000E+00 -0.74505805969E-08  0.93827000000E+00  0.93827000000E+00 0. -1.
     999902    2    1    2    0    0 -0.81824234254E-02  0.68618276910E-02 -0.79802843807E-02  0.10305987708E+01  0.10305125447E+01 0.  0.
     999903    2    3    3    0    0  0.12735492857E+00 -0.17553777813E-01 -0.29957286282E-01  0.13961645665E+00  0.45474201680E-01 0.  0.
         14    1    1    2    0    0  0.81824234254E-02 -0.68618276910E-02  0.79802843807E-02  0.13331229170E-01  0.00000000000E+00 0.  1.
     999901    1    3    3    0    0 -0.13553735199E+00  0.24415605504E-01  0.21977001902E-01  0.89098231418E+00  0.88000000000E+00 0. -1.
        -11    1    4    4    0    0  0.35367537418E-01 -0.18045912268E-01 -0.26153528039E-01  0.47547721317E-01  0.51100000000E-03 0. -1.
         11    1    4    4    0    0  0.91987391152E-01  0.49213445490E-03 -0.38037582434E-02  0.92068735328E-01  0.51100000000E-03 0.  1.
</event>
<event>
 8    1  0.2959109E+004  0.1043930E+01  0.7957747E-01            NaN
         13   -1    0    0    0    0  0.00000000000E+00  0.00000000000E+00  0.74505805969E-08  0.10566000000E+00  0.10566000000E+00 0.  1.
     999900   -1    0    0    0    0 -0.00000000000E+00 -0.00000000000E+00 -0.74505805969E-08  0.93827000000E+00  0.93827000000E+00 0. -1.
     999902    2    1    2    0    0  0.43669458066E-02  0.96919900701E-02 -0.84661722094E-02  0.10303402627E+01  0.10302506375E+01 0.  0.
     999903    2    3    3    0    0 -0.10539596857E+00  0.60070910147E-01 -0.51744903307E-01  0.14103773742E+00  0.49972831820E-01 0.  0.
         14    1    1    2    0    0 -0.43669458066E-02 -0.96919900701E-02  0.84661722094E-02  0.13589737270E-01  0.00000000000E+00 0.  1.
     999901    1    3    3    0    0  0.10976291438E+00 -0.50378920077E-01  0.43278731097E-01  0.88930252531E+00  0.88000000000E+00 0. -1.
        -11    1    4    4    0    0 -0.27514316438E-01  0.15183385851E-01 -0.39246294003E-01  0.50280269778E-01  0.51100000000E-03 0. -1.
         11    1    4    4    0    0 -0.77881652136E-01  0.44887524296E-01 -0.12498609304E-01  0.90757467640E-01  0.51100000000E-03 0.  1.
</event>
<event>
 8    1  0.2959109E+004  0.1043930E+01  0.7957747E-01            NaN
         13   -1    0    0    0    0  0.00000000000E+00  0.00000000000E+00  0.74505805969E-08  0.10566000000E+00  0.10566000000E+00 0. -1.
     999900   -1    0    0    0    0 -0.00000000000E+00 -0.00000000000E+00 -0.74505805969E-08  0.93827000000E+00  0.93827000000E+00 0. -1.
     999902    2    1    2    0    0  0.55069081691E-02  0.48755765102E-02 -0.95073082967E-02  0.10319097589E+01  0.10318397475E+01 0.  0.
     999903    2    3    3    0    0 -0.95290621493E-01 -0.88048862422E-01  0.29669541130E-01  0.14043350079E+00  0.44814972428E-01 0.  0.
         14    1    1    2    0    0 -0.55069081691E-02 -0.48755765102E-02  0.95073082967E-02  0.12020241052E-01  0.00000000000E+00 0. -1.
     999901    1    3    3    0    0  0.10079752966E+00  0.92924438932E-01 -0.39176849427E-01  0.89147625816E+00  0.88000000000E+00 0.  1.
        -11    1    4    4    0    0 -0.62806404161E-01 -0.79035326540E-01  0.33811590968E-01  0.10646460468E+00  0.51100000000E-03 0. -1.
         11    1    4    4    0    0 -0.32484217332E-01 -0.90135358824E-02 -0.41420498382E-02  0.33968896106E-01  0.51100000000E-03 0.  1.
</event>
<event>
 8    1  0.2959109E+004  0.1043930E+01  0.7957747E-01            NaN
         13   -1    0    0    0    0  0.00000000000E+00  0.00000000000E+00  0.74505805969E-08  0.10566000000E+00  0.10566000000E+00 0.  1.
     999900   -1    0    0    0    0 -0.00000000000E+00 -0.00000000000E+00 -0.74505805969E-08  0.93827000000E+00  0.93827000000E+00 0.  1.
     999902    2    1    2    0    0 -0.80538039386E-02 -0.83080923605E-02  0.73147132338E-02  0.10302408369E+01  0.10301498866E+01 0.  0.
     999903    2    3    3    0    0 -0.95710690150E-01 -0.87981989313E-02  0.95638778744E-01  0.14148602794E+00  0.40417515882E-01 0.  0.
         14    1    1    2    0    0  0.80538039386E-02  0.83080923605E-02 -0.73147132338E-02  0.13689163095E-01  0.00000000000E+00 0.  1.
     999901    1    3    3    0    0  0.87656886212E-01  0.49010657080E-03 -0.88324065510E-01  0.88875480896E+00  0.88000000000E+00 0. -1.
        -11    1    4    4    0    0 -0.65441339383E-01  0.58184155240E-02  0.41347361979E-01  0.77629171856E-01  0.51100000000E-03 0. -1.
         11    1    4    4    0    0 -0.30269350767E-01 -0.14616614455E-01  0.54291416765E-01  0.63856856087E-01  0.51100000000E-03 0.  1.
</event>
<event>
 7    1  0.2959109E+004  0.1043930E+01  0.7957747E-01            NaN
         13   -1    0    0    0    0  0.00000000000E+00  0.00000000000E+00  0.74505805969E-08  0.10566000000E+00  0.10566000000E+00 0.  1.
     999900   -1    0    0    0    0 -0.00000000000E+00 -0.00000000000E+00 -0.74505805969E-08  0.93827000000E+00  0.93827000000E+00 0.  1.
     999903    2    1    2    0    0 -0.26324905308E-01 -0.21616214386E-01  0.61782576339E-01  0.83514197697E-01  0.44690861638E-01 0.  0.
         14    1    1    2    0    0 -0.21679769360E-01  0.11320263492E-01  0.65487781310E-01  0.69905724129E-01  0.00000000000E+00 0.  1.
     999901    1    1    2    0    0  0.48004674668E-01  0.10295950894E-01 -0.12727035765E+00  0.89051007817E+00  0.88000000000E+00 0.  1.
        -11    1    3    3    0    0 -0.32125760815E-01  0.16169834183E-02  0.33348853200E-01  0.46336662311E-01  0.51100000000E-03 0. -1.
         11    1    3    3    0    0  0.58008555072E-02 -0.23233197804E-01  0.28433723139E-01  0.37177535386E-01  0.51100000000E-03 0.  1.
</event>
<event>
 8    1  0.2959109E+004  0.1043930E+01  0.7957747E-01            NaN
         13   -1    0    0    0    0  0.00000000000E+00  0.00000000000E+00  0.74505805969E-08  0.10566000000E+00  0.10566000000E+00 0. -1.
     999900   -1    0    0    0    0 -0.00000000000E+00 -0.00000000000E+00 -0.74505805969E-08  0.93827000000E+00  0.93827000000E+00 0. -1.
     999902    2    1    2    0    0  0.13040756516E-01 -0.53553968100E-03  0.31709955226E-02  0.10304985687E+01  0.10304110329E+01 0.  0.
     999903    2    3    3    0    0 -0.12176712067E+00  0.44692306586E-01  0.19972999647E-01  0.13892634554E+00  0.45573839265E-01 0.  0.
         14    1    1    2    0    0 -0.13040756516E-01  0.53553968100E-03 -0.31709955226E-02  0.13431431266E-01  0.00000000000E+00 0.  1.
     999901    1    3    3    0    0  0.13480787719E+00 -0.45227846267E-01 -0.16802004124E-01  0.89157222319E+00  0.88000000000E+00 0. -1.
        -11    1    4    4    0    0 -0.44879796682E-01 -0.61515708624E-02  0.68889031859E-02  0.45823095513E-01  0.51100000000E-03 0.  1.
         11    1    4    4    0    0 -0.76887323990E-01  0.50843877448E-01  0.13084096461E-01  0.93103250026E-01  0.51100000000E-03 0. -1.
</event>
<event>
 8    1  0.2959109E+004  0.1043930E+01  0.7957747E-01            NaN
         13   -1    0    0    0    0  0.00000000000E+00  0.00000000000E+00  0.74505805969E-08  0.10566000000E+00  0.10566000000E+00 0. -1.
     999900   -1    0    0    0    0 -0.00000000000E+00 -0.00000000000E+00 -0.74505805969E-08  0.93827000000E+00  0.93827000000E+00 0. -1.
     999902    2    1    2    0    0 -0.75390465533E-02  0.17218340487E-02 -0.11588999351E-01  0.10299977769E+01  0.10299035457E+01 0.  0.
     999903    2    3    3    0    0 -0.31102852216E-01 -0.11224876352E+00 -0.68562736803E-01  0.14050884675E+00  0.38402015684E-01 0.  0.
         14    1    1    2    0    0  0.75390465533E-02 -0.17218340487E-02  0.11588999351E-01  0.13932223131E-01  0.00000000000E+00 0. -1.
     999901    1    3    3    0    0  0.23563805662E-01  0.11397059757E+00  0.56973737452E-01  0.88948893012E+00  0.88000000000E+00 0.  1.
        -11    1    4    4    0    0 -0.36123781759E-01 -0.10031207256E+00 -0.49727547068E-01  0.11764578007E+00  0.51100000000E-03 0. -1.
         11    1    4    4    0    0  0.50209295433E-02 -0.11936690961E-01 -0.18835189735E-01  0.22863066678E-01  0.51100000000E-03 0.  1.
</event>
<event>
 8    1  0.2959109E+004  0.1043930E+01  0.7957747E-01            NaN
         13   -1    0    0    0    0  0.00000000000E+00  0.00000000000E+00  0.74505805969E-08  0.10566000000E+00  0.10566000000E+00 0.  1.
     999900   -1    0    0    0    0 -0.00000000000E+00 -0.00000000000E+00 -0.74505805969E-08  0.93827000000E+00  0.93827000000E+00 0.  1.
     999902    2    1    2    0    0  0.37840345858E-02  0.21653806131E-02 -0.18889333613E-01  0.10245440588E+01  0.10243606366E+01 0.  0.
     999903    2    3    3    0    0  0.10298675203E+00  0.32792267478E-01  0.65969741828E-01  0.13438663003E+00  0.45012838118E-01 0.  0.
         14    1    1    2    0    0 -0.37840345858E-02 -0.21653806131E-02  0.18889333613E-01  0.19385941177E-01  0.00000000000E+00 0.  1.
     999901    1    3    3    0    0 -0.99202717440E-01 -0.30626886865E-01 -0.84859075442E-01  0.89015742879E+00  0.88000000000E+00 0.  1.
        -11    1    4    4    0    0  0.58346996392E-01  0.20896031496E-01  0.62556528208E-01  0.88060186592E-01  0.51100000000E-03 0.  1.
         11    1    4    4    0    0  0.44639755634E-01  0.11896235982E-01  0.34132136205E-02  0.46326443441E-01  0.51100000000E-03 0. -1.
</event>
<event>
 8    1  0.2959109E+004  0.1043930E+01  0.7957747E-01            NaN
         13   -1    0    0    0    0  0.00000000000E+00  0.00000000000E+00  0.74505805969E-08  0.10566000000E+00  0.10566000000E+00 0. -1.
     999900   -1    0    0    0    0 -0.00000000000E+00 -0.00000000000E+00 -0.74505805969E-08  0.93827000000E+00  0.93827000000E+00 0.  1.
     999902    2    1    2    0    0  0.96549573220E-02  0.65755489502E-02  0.10027094932E-01  0.10285352386E+01  0.10284200204E+01 0.  0.
     999903    2    3    3    0    0 -0.23863072733E-01 -0.86803085915E-01  0.95826355022E-01  0.13881363002E+00  0.44523158007E-01 0.  0.
         14    1    1    2    0    0 -0.96549573220E-02 -0.65755489502E-02 -0.10027094932E-01  0.15394761371E-01  0.00000000000E+00 0.  1.
     999901    1    3    3    0    0  0.33518030055E-01  0.93378634866E-01 -0.85799260090E-01  0.88972160861E+00  0.88000000000E+00 0.  1.
        -11    1    4    4    0    0 -0.63077715699E-02 -0.45754444419E-01  0.18978200441E-01  0.49936863931E-01  0.51100000000E-03 0.  1.
         11    1    4    4    0    0 -0.17555301163E-01 -0.41048641496E-01  0.76848154581E-01  0.88876766093E-01  0.51100000000E-03 0. -1.
</event>
<event>
 8    1  0.2959109E+004  0.1043930E+01  0.7957747E-01            NaN
         13   -1    0    0    0    0  0.00000000000E+00  0.00000000000E+00  0.74505805969E-08  0.10566000000E+00  0.10566000000E+00 0. -1.
     999900   -1    0    0    0    0 -0.00000000000E+00 -0.00000000000E+00 -0.74505805969E-08  0.93827000000E+00  0.93827000000E+00 0.  1.
     999902    2    1    2    0    0  0.10019448863E-01 -0.64979979121E-02  0.65759500786E-02  0.10302970821E+01  0.10302068825E+01 0.  0.
     999903    2    3    3    0    0 -0.21217369954E-01 -0.10744915460E+00 -0.75109959169E-01  0.14021873569E+00  0.44992113312E-01 0.  0.
         14    1    1    2    0    0 -0.10019448863E-01  0.64979979121E-02 -0.65759500786E-02  0.13632917950E-01  0.00000000000E+00 0.  1.
     999901    1    3    3    0    0  0.31236818817E-01  0.10095115669E+00  0.81685909247E-01  0.89007834636E+00  0.88000000000E+00 0. -1.
        -11    1    4    4    0    0 -0.17638885655E-01 -0.53721242364E-01 -0.13009510440E-01  0.58022501248E-01  0.51100000000E-03 0. -1.
         11    1    4    4    0    0 -0.35784842988E-02 -0.53727912238E-01 -0.62100448729E-01  0.82196234443E-01  0.51100000000E-03 0.  1.
</event>
<event>
 8    1  0.2959109E+004  0.1043930E+01  0.7957747E-01            NaN
         13   -1    0    0    0    0  0.00000000000E+00  0.00000000000E+00  0.74505805969E-08  0.10566000000E+00  0.10566000000E+00 0.  1.
     999900   -1    0    0    0    0 -0.00000000000E+00 -0.00000000000E+00 -0.74505805969E-08  0.93827000000E+00  0.93827000000E+00 0.  1.
     999902    2    1    2    0    0 -0.92282310783E-02  0.12742387311E-01  0.45117905023E-02  0.10275628091E+01  0.10274324512E+01 0.  0.
     999903    2    3    3    0    0  0.21888176743E-01 -0.11792103091E+00  0.39050176112E-01  0.13670139467E+00  0.52705723025E-01 0.  0.
         14    1    1    2    0    0  0.92282310783E-02 -0.12742387311E-01 -0.45117905023E-02  0.16367190863E-01  0.00000000000E+00 0.  1.
     999901    1    3    3    0    0 -0.31116407821E-01  0.13066341822E+00 -0.34538385610E-01  0.89086141446E+00  0.88000000000E+00 0.  1.
        -11    1    4    4    0    0  0.37528171167E-01 -0.58339557318E-01  0.22226113761E-01  0.72843179729E-01  0.51100000000E-03 0. -1.
         11    1    4    4    0    0 -0.15639994424E-01 -0.59581473592E-01  0.16824062351E-01  0.63858214945E-01  0.51100000000E-03 0.  1.
</event>
<event>
 8    1  0.2959109E+004  0.1043930E+01  0.7957747E-01            NaN
         13   -1    0    0    0    0  0.00000000000E+00  0.00000000000E+00  0.74505805969E-08  0.10566000000E+00  0.10566000000E+00 0. -1.
     999900   -1    0    0    0    0 -0.00000000000E+00 -0.00000000000E+00 -0.74505805969E-08  0.93827000000E+00  0.93827000000E+00 0. -1.
     999902    2    1    2    0    0  0.11588730577E-01  0.90522068862E-02 -0.46181286954E-03  0.10292176108E+01  0.10291124506E+01 0.  0.
     999903    2    3    3    0    0  0.48408127378E-01 -0.46993794595E-01 -0.11312883374E+00  0.13950379169E+00  0.45950096237E-01 0.  0.
         14    1    1    2    0    0 -0.11588730577E-01 -0.90522068862E-02  0.46181286954E-03  0.14712389236E-01  0.00000000000E+00 0. -1.
     999901    1    3    3    0    0 -0.36819396800E-01  0.56046001482E-01  0.11266702087E+00  0.88971381908E+00  0.88000000000E+00 0.  1.
        -11    1    4    4    0    0  0.14574427279E-01 -0.41153001228E-01 -0.42303144151E-01  0.60793096373E-01  0.51100000000E-03 0.  1.
         11    1    4    4    0    0  0.33833700099E-01 -0.58407933676E-02 -0.70825689593E-01  0.78710695315E-01  0.51100000000E-03 0. -1.
</event>
<event>
 8    1  0.2959109E+004  0.1043930E+01  0.7957747E-01            NaN
         13   -1    0    0    0    0  0.00000000000E+00  0.00000000000E+00  0.74505805969E-08  0.10566000000E+00  0.10566000000E+00 0.  1.
     999900   -1    0    0    0    0 -0.00000000000E+00 -0.00000000000E+00 -0.74505805969E-08  0.93827000000E+00  0.93827000000E+00 0. -1.
     999902    2    1    2    0    0 -0.81802130620E-02 -0.87627567008E-02  0.53428537966E-02  0.10308056761E+01  0.10307221226E+01 0.  0.
     999903    2    3    3    0    0 -0.50538459968E-01 -0.86158531682E-01 -0.89381053240E-01  0.14133563973E+00  0.44825906143E-01 0.  0.
         14    1    1    2    0    0  0.81802130620E-02  0.87627567008E-02 -0.53428537966E-02  0.13124323885E-01  0.00000000000E+00 0. -1.
     999901    1    3    3    0    0  0.42358246906E-01  0.77395774981E-01  0.94723907037E-01  0.88947003639E+00  0.88000000000E+00 0.  1.
        -11    1    4    4    0    0  0.62735593892E-02 -0.24406989412E-01 -0.15925914309E-01  0.29815340802E-01  0.51100000000E-03 0. -1.
         11    1    4    4    0    0 -0.56812019357E-01 -0.61751542270E-01 -0.73455138932E-01  0.11152029893E+00  0.51100000000E-03 0.  1.
</event>
<event>
 8    1  0.2959109E+004  0.1043930E+01  0.7957747E-01            NaN
         13   -1    0    0    0    0  0.00000000000E+00  0.00000000000E+00  0.74505805969E-08  0.10566000000E+00  0.10566000000E+00 0.  1.
     999900   -1    0    0    0    0 -0.00000000000E+00 -0.00000000000E+00 -0.74505805969E-08  0.93827000000E+00  0.93827000000E+00 0.  1.
     999902    2    1    2    0    0 -0.81030350838E-02 -0.37852711344E-02  0.11021133308E-01  0.10297365919E+01  0.10296387696E+01 0.  0.
     999903    2    3    3    0    0  0.42310012239E-01  0.93784580011E-01  0.83399228444E-01  0.13996137314E+00  0.45255608312E-01 0.  0.
         14    1    1    2    0    0  0.81030350838E-02  0.37852711344E-02 -0.11021133308E-01  0.14193408136E-01  0.00000000000E+00 0. -1.
     999901    1    3    3    0    0 -0.50413047323E-01 -0.97569851145E-01 -0.72378095136E-01  0.88977521872E+00  0.88000000000E+00 0.  1.
        -11    1    4    4    0    0  0.12758726955E-01  0.49114624118E-01  0.14669305997E-01  0.52825004261E-01  0.51100000000E-03 0.  1.
         11    1    4    4    0    0  0.29551285284E-01  0.44669955892E-01  0.68729922447E-01  0.87136368882E-01  0.51100000000E-03 0. -1.
</event>
<event>
 8    1  0.2959109E+004  0.1043930E+01  0.7957747E-01            NaN
         13   -1    0    0    0    0  0.00000000000E+00  0.00000000000E+00  0.74505805969E-08  0.10566000000E+00  0.10566000000E+00 0. -1.
     999900   -1    0    0    0    0 -0.00000000000E+00 -0.00000000000E+00 -0.74505805969E-08  0.93827000000E+00  0.93827000000E+00 0.  1.
     999902    2    1    2    0    0 -0.42226510300E-02 -0.10942323724E-01 -0.62480853598E-02  0.10306407637E+01  0.10305550835E+01 0.  0.
     999903    2    3    3    0    0  0.93665162138E-01  0.50619381457E-01  0.77412404102E-01  0.13914149563E+00  0.45079830523E-01 0.  0.
         14    1    1    2    0    0  0.42226510300E-02  0.10942323724E-01  0.62480853598E-02  0.13289236278E-01  0.00000000000E+00 0. -1.
     999901    1    3    3    0    0 -0.97887813168E-01 -0.61561705181E-01 -0.83660489461E-01  0.89149926809E+00  0.88000000000E+00 0. -1.
        -11    1    4    4    0    0  0.35106085414E-01  0.44581412647E-01  0.37905271025E-01  0.68242290988E-01  0.51100000000E-03 0. -1.
         11    1    4    4    0    0  0.58559076723E-01  0.60379688100E-02  0.39507133076E-01  0.70899204642E-01  0.51100000000E-03 0.  1.
</event>
<event>
 8    1  0.2959109E+004  0.1043930E+01  0.7957747E-01            NaN
         13   -1    0    0    0    0  0.00000000000E+00  0.00000000000E+00  0.74505805969E-08  0.10566000000E+00  0.10566000000E+00 0.  1.
     999900   -1    0    0    0    0 -0.00000000000E+00 -0.00000000000E+00 -0.74505805969E-08  0.93827000000E+00  0.93827000000E+00 0.  1.
     999902    2    1    2    0    0  0.12885979248E-02 -0.13844354396E-01  0.61122443073E-03  0.10300123771E+01  0.10299183447E+01 0.  0.
     999903    2    3    3    0    0 -0.67387257658E-01 -0.91921510837E-01 -0.70579846166E-01  0.14103510848E+00  0.43803886708E-01 0.  0.
         14    1    1    2    0    0 -0.12885979248E-02  0.13844354396E-01 -0.61122443073E-03  0.13917622950E-01  0.00000000000E+00 0.  1.
     999901    1    3    3    0    0  0.68675855583E-01  0.78077156440E-01  0.71191070596E-01  0.88897726857E+00  0.88000000000E+00 0.  1.
        -11    1    4    4    0    0 -0.39249085924E-01 -0.79064846947E-01 -0.64935928362E-01  0.10958410780E+00  0.51100000000E-03 0.  1.
         11    1    4    4    0    0 -0.28138171734E-01 -0.12856663890E-01 -0.56439178039E-02  0.31451000685E-01  0.51100000000E-03 0. -1.
</event>
<event>
 8    1  0.2959109E+004  0.1043930E+01  0.7957747E-01            NaN
         13   -1    0    0    0    0  0.00000000000E+00  0.00000000000E+00  0.74505805969E-08  0.10566000000E+00  0.10566000000E+00 0.  1.
     999900   -1    0    0    0    0 -0.00000000000E+00 -0.00000000000E+00 -0.74505805969E-08  0.93827000000E+00  0.93827000000E+00 0. -1.
     999902    2    1    2    0    0  0.87626213631E-02 -0.69597145964E-02 -0.25018459270E-03  0.10327369775E+01  0.10326763195E+01 0.  0.
     999903    2    3    3    0    0  0.46388541401E-01  0.12361096976E+00 -0.28141458744E-01  0.14187091762E+00  0.43633094644E-01 0.  0.
         14    1    1    2    0    0 -0.87626213631E-02  0.69597145964E-02  0.25018459270E-03  0.11193022503E-01  0.00000000000E+00 0. -1.
     999901    1    3    3    0    0 -0.37625920038E-01 -0.13057068435E+00  0.27891274151E-01  0.89086605988E+00  0.88000000000E+00 0. -1.
        -11    1    4    4    0    0  0.19527439972E-01  0.87317555512E-01 -0.35231779838E-01  0.96162445081E-01  0.51100000000E-03 0.  1.
         11    1    4    4    0    0  0.26861101429E-01  0.36293414244E-01  0.70903210937E-02  0.45708472537E-01  0.51100000000E-03 0. -1.
</event>
<event>
 8    1  0.2959109E+004  0.1043930E+01  0.7957747E-01            NaN
         13   -1    0    0    0    0  0.00000000000E+00  0.00000000000E+00  0.74505805969E-08  0.10566000000E+00  0.10566000000E+00 0. -1.
     999900   -1    0    0    0    0 -0.00000000000E+00 -0.00000000000E+00 -0.74505805969E-08  0.93827000000E+00  0.93827000000E+00 0. -1.
     999902    2    1    2    0    0  0.11658885245E-01  0.25520758837E-02 -0.73704642821E-02  0.10299026538E+01  0.10298071227E+01 0.  0.
     999903    2    3    3    0    0 -0.53337408401E-01 -0.10516373193E+00 -0.59137502860E-01  0.13944937617E+00  0.45217193851E-01 0.  0.
         14    1    1    2    0    0 -0.11658885245E-01 -0.25520758837E-02  0.73704642821E-02  0.14027346157E-01  0.00000000000E+00 0. -1.
     999901    1    3    3    0    0  0.64996293645E-01  0.10771580782E+00  0.51767038578E-01  0.89045327768E+00  0.88000000000E+00 0.  1.
        -11    1    4    4    0    0 -0.47975430552E-01 -0.44764867014E-01 -0.32297010636E-01  0.73136128366E-01  0.51100000000E-03 0.  1.
         11    1    4    4    0    0 -0.53619778486E-02 -0.60398864920E-01 -0.26840492225E-01  0.66313247801E-01  0.51100000000E-03 0. -1.
</event>
<event>
 8    1  0.2959109E+004  0.1043930E+01  0.7957747E-01            NaN
         13   -1    0    0    0    0  0.00000000000E+00  0.00000000000E+00  0.74505805969E-08  0.10566000000E+00  0.10566000000E+00 0. -1.
     999900   -1    0    0    0    0 -0.00000000000E+00 -0.00000000000E+00 -0.74505805969E-08  0.93827000000E+00  0.93827000000E+00 0.  1.
     999902    2    1    2    0    0 -0.62469456284E-02 -0.10976249092E-01 -0.46601558249E-02  0.10304682235E+01  0.10303802891E+01 0.  0.
     999903    2    3    3    0    0 -0.10370022766E+00 -0.37602369102E-01  0.74472177699E-01  0.14116061720E+00  0.47037636182E-01 0.  0.
         14    1    1    2    0    0  0.62469456284E-02  0.10976249092E-01  0.46601558249E-02  0.13461776485E-01  0.00000000000E+00 0.  1.
     999901    1    3    3    0    0  0.97453282032E-01  0.26626120010E-01 -0.79132333524E-01  0.88930760632E+00  0.88000000000E+00 0.  1.
        -11    1    4    4    0    0 -0.51806065672E-01 -0.32702046473E-01  0.62815068914E-01  0.87745577026E-01  0.51100000000E-03 0. -1.
         11    1    4    4    0    0 -0.51894161988E-01 -0.49003226285E-02  0.11657108785E-01  0.53415040172E-01  0.51100000000E-03 0.  1.
</event>
<event>
 8    1  0.2959109E+004  0.1043930E+01  0.7957747E-01            NaN
         13   -1    0    0    0    0  0.00000000000E+00  0.00000000000E+00  0.74505805969E-08  0.10566000000E+00  0.10566000000E+00 0. -1.
     999900   -1    0    0    0    0 -0.00000000000E+00 -0.00000000000E+00 -0.74505805969E-08  0.93827000000E+00  0.93827000000E+00 0.  1.
     999902    2    1    2    0    0 -0.91912281025E-02 -0.65349773465E-02  0.29085851902E-03  0.10326486348E+01  0.10325870102E+01 0.  0.
     999903    2    3    3    0    0  0.11976349276E-01  0.62343281533E-01 -0.11852635987E+00  0.14174470489E+00  0.44865863266E-01 0.  0.
         14    1    1    2    0    0  0.91912281025E-02  0.65349773465E-02 -0.29085851902E-03  0.11281365238E-01  0.00000000000E+00 0.  1.
     999901    1    3    3    0    0 -0.21167577379E-01 -0.68878258879E-01  0.11881721839E+00  0.89090392987E+00  0.88000000000E+00 0. -1.
        -11    1    4    4    0    0  0.14255392989E-02  0.76712414908E-02 -0.61667107750E-01  0.62160867172E-01  0.51100000000E-03 0. -1.
         11    1    4    4    0    0  0.10550809977E-01  0.54672040042E-01 -0.56859252117E-01  0.79583837717E-01  0.51100000000E-03 0.  1.
</event>
<event>
 8    1  0.2959109E+004  0.1043930E+01  0.7957747E-01            NaN
         13   -1    0    0    0    0  0.00000000000E+00  0.00000000000E+00  0.74505805969E-08  0.10566000000E+00  0.10566000000E+00 0. -1.
     999900   -1    0    0    0    0 -0.00000000000E+00 -0.00000000000E+00 -0.74505805969E-08  0.93827000000E+00  0.93827000000E+00 0.  1.
     999902    2    1    2    0    0  0.60699337091E-02 -0.96346217356E-02  0.69879684901E-02  0.10305695459E+01  0.10304829388E+01 0.  0.
     999903    2    3    3    0    0  0.19602239463E-02  0.33556167265E-02  0.13394573568E+00  0.14135421161E+00  0.44993892824E-01 0.  0.
         14    1    1    2    0    0 -0.60699337091E-02  0.96346217356E-02 -0.69879684901E-02  0.13360454140E-01  0.00000000000E+00 0.  1.
     999901    1    3    3    0    0  0.41097097628E-02 -0.12990238462E-01 -0.12695776719E+00  0.88921533425E+00  0.88000000000E+00 0.  1.
        -11    1    4    4    0    0  0.17674537973E-01 -0.12991540545E-01  0.55005521087E-01  0.59220248981E-01  0.51100000000E-03 0. -1.
         11    1    4    4    0    0 -0.15714314027E-01  0.16347157271E-01  0.78940214595E-01  0.82133962631E-01  0.51100000000E-03 0.  1.
</event>
<event>
 7    1  0.2959109E+004  0.1043930E+01  0.7957747E-01            NaN
         13   -1    0    0    0    0  0.00000000000E+00  0.00000000000E+00  0.74505805969E-08  0.10566000000E+00  0.10566000000E+00 0.  1.
     999900   -1    0    0    0    0 -0.00000000000E+00 -0.00000000000E+00 -0.74505805969E-08  0.93827000000E+00  0.93827000000E+00 0. -1.
     999902    2    1    2    0    0 -0.29909331892E-02 -0.66896645839E-02  0.11540937507E-01  0.10302592088E+01  0.10301685041E+01 0.  0.
         14    1    1    2    0    0  0.29909331892E-02  0.66896645839E-02 -0.11540937507E-01  0.13670791204E-01  0.00000000000E+00 0. -1.
     999901    1    3    3    0    0  0.55699647832E-01 -0.13113461710E+00  0.15981717244E-01  0.89160201540E+00  0.88000000000E+00 0.  1.
        -11    1    3    3    0    0 -0.16744558647E-01  0.54387184199E-01 -0.64853773746E-03  0.56912457086E-01  0.51100000000E-03 0.  1.
         11    1    3    3    0    0 -0.41946022374E-01  0.70057768319E-01 -0.37922419991E-02  0.81744736315E-01  0.51100000000E-03 0. -1.
</event>
<event>
 8    1  0.2959109E+004  0.1043930E+01  0.7957747E-01            NaN
         13   -1    0    0    0    0  0.00000000000E+00  0.00000000000E+00  0.74505805969E-08  0.10566000000E+00  0.10566000000E+00 0. -1.
     999900   -1    0    0    0    0 -0.00000000000E+00 -0.00000000000E+00 -0.74505805969E-08  0.93827000000E+00  0.93827000000E+00 0. -1.
     999902    2    1    2    0    0  0.12166760000E-01  0.76994088424E-03 -0.64582635416E-02  0.10301339127E+01  0.10300415263E+01 0.  0.
     999903    2    3    3    0    0 -0.81449736087E-01  0.79167096321E-01  0.66439461512E-01  0.13871692795E+00  0.43894138611E-01 0.  0.
         14    1    1    2    0    0 -0.12166760000E-01 -0.76994088424E-03  0.64582635416E-02  0.13796087338E-01  0.00000000000E+00 0. -1.
     999901    1    3    3    0    0  0.93616496088E-01 -0.78397155437E-01 -0.72897725054E-01  0.89141698471E+00  0.88000000000E+00 0. -1.
        -11    1    4    4    0    0 -0.74702416069E-01  0.75806292926E-01  0.44224584988E-01  0.11525241886E+00  0.51100000000E-03 0. -1.
         11    1    4    4    0    0 -0.67473200180E-02  0.33608033947E-02  0.22214876524E-01  0.23464509091E-01  0.51100000000E-03 0.  1.
</event>
<event>
 8    1  0.2959109E+004  0.1043930E+01  0.7957747E-01            NaN
         13   -1    0    0    0    0  0.00000000000E+00  0.00000000000E+00  0.74505805969E-08  0.10566000000E+00  0.10566000000E+00 0.  1.
     999900   -1    0    0    0    0 -0.00000000000E+00 -0.00000000000E+00 -0.74505805969E-08  0.93827000000E+00  0.93827000000E+00 0. -1.
     999902    2    1    2    0    0  0.37876077273E-02 -0.67589114079E-03  0.12010161869E-01  0.10313186246E+01  0.10312415133E+01 0.  0.
     999903    2    3    3    0    0 -0.79675255966E-01 -0.86086871861E-01 -0.62335522215E-01  0.14014615758E+00  0.44678095701E-01 0.  0.
         14    1    1    2    0    0 -0.37876077273E-02  0.67589114079E-03 -0.12010161869E-01  0.12611375391E-01  0.00000000000E+00 0. -1.
     999901    1    3    3    0    0  0.83462863693E-01  0.85410980721E-01  0.74345684084E-01  0.89117246703E+00  0.88000000000E+00 0.  1.
        -11    1    4    4    0    0 -0.73584916983E-01 -0.74945558065E-01 -0.69125307181E-01  0.12573840263E+00  0.51100000000E-03 0. -1.
         11    1    4    4    0    0 -0.60903389831E-02 -0.11141313796E-01  0.67897849658E-02  0.14407754958E-01  0.51100000000E-03 0.  1.
</event>
<event>
 8    1  0.2959109E+004  0.1043930E+01  0.7957747E-01            NaN
         13   -1    0    0    0    0  0.00000000000E+00  0.00000000000E+00  0.74505805969E-08  0.10566000000E+00  0.10566000000E+00 0. -1.
     999900   -1    0    0    0    0 -0.00000000000E+00 -0.00000000000E+00 -0.74505805969E-08  0.93827000000E+00  0.93827000000E+00 0.  1.
     999902    2    1    2    0    0  0.54118932722E-02 -0.91673921790E-02 -0.84299576509E-02  0.10303508301E+01  0.10302613452E+01 0.  0.
     999903    2    3    3    0    0 -0.18366198834E-01 -0.96220054702E-01  0.90226226150E-01  0.14025161863E+00  0.43978727334E-01 0.  0.
         14    1    1    2    0    0 -0.54118932722E-02  0.91673921790E-02  0.84299576509E-02  0.13579169862E-01  0.00000000000E+00 0. -1.
     999901    1    3    3    0    0  0.23778092106E-01  0.87052662523E-01 -0.98656183800E-01  0.89009921150E+00  0.88000000000E+00 0.  1.
        -11    1    4    4    0    0 -0.49342101890E-03 -0.84171729427E-01  0.80940313556E-01  0.11677636310E+00  0.51100000000E-03 0. -1.
         11    1    4    4    0    0 -0.17872777815E-01 -0.12048325275E-01  0.92859125932E-02  0.23475255535E-01  0.51100000000E-03 0.  1.
</event>
<event>
 7    1  0.2959109E+004  0.1043930E+01  0.7957747E-01            NaN
         13   -1    0    0    0    0  0.00000000000E+00  0.00000000000E+00  0.74505805969E-08  0.10566000000E+00  0.10566000000E+00 0. -1.
     999900   -1    0    0    0    0 -0.00000000000E+00 -0.00000000000E+00 -0.74505805969E-08  0.93827000000E+00  0.93827000000E+00 0. -1.
     999903    2    1    2    0    0  0.88908224542E-01  0.47159983912E-01 -0.56198236942E-01  0.12199059335E+00  0.39934027555E-01 0.  0.
         14    1    1    2    0    0 -0.87239446702E-02 -0.18826721702E-02  0.35804022842E-01  0.36899589656E-01  0.00000000000E+00 0. -1.
     999901    1    1    2    0    0 -0.80184279871E-01 -0.45277311742E-01  0.20394214100E-01  0.88503981699E+00  0.88000000000E+00 0.  1.
        -11    1    3    3    0    0  0.32898967573E-01  0.16514429214E-01  0.17900567707E-03  0.36815236026E-01  0.51100000000E-03 0.  1.
         11    1    3    3    0    0  0.56009256969E-01  0.30645554698E-01 -0.56377242619E-01  0.85175357324E-01  0.51100000000E-03 0. -1.
</event>
<event>
 8    1  0.2959109E+004  0.1043930E+01  0.7957747E-01            NaN
         13   -1    0    0    0    0  0.00000000000E+00  0.00000000000E+00  0.74505805969E-08  0.10566000000E+00  0.10566000000E+00 0. -1.
     999900   -1    0    0    0    0 -0.00000000000E+00 -0.00000000000E+00 -0.74505805969E-08  0.93827000000E+00  0.93827000000E+00 0.  1.
     999902    2    1    2    0    0 -0.20296116323E-02 -0.13736883057E-01 -0.88612966472E-03  0.10300157445E+01  0.10299217579E+01 0.  0.
     999903    2    3    3    0    0 -0.58058076632E-01 -0.41264855174E-01  0.11193811699E+00  0.14061915764E+00  0.46584084475E-01 0.  0.
         14    1    1    2    0    0  0.20296116323E-02  0.13736883057E-01  0.88612966472E-03  0.13914255470E-01  0.00000000000E+00 0. -1.
     999901    1    3    3    0    0  0.56028465000E-01  0.27527972117E-01 -0.11282424665E+00  0.88939658689E+00  0.88000000000E+00 0. -1.
        -11    1    4    4    0    0 -0.50560687785E-01 -0.51480455705E-01  0.90964777546E-01  0.11610974267E+00  0.51100000000E-03 0.  1.
         11    1    4    4    0    0 -0.74973888470E-02  0.10215600531E-01  0.20973339440E-01  0.24509414966E-01  0.51100000000E-03 0. -1.
</event>
<event>
 8    1  0.2959109E+004  0.1043930E+01  0.7957747E-01            NaN
         13   -1    0    0    0    0  0.00000000000E+00  0.00000000000E+00  0.74505805969E-08  0.10566000000E+00  0.10566000000E+00 0.  1.
     999900   -1    0    0    0    0 -0.00000000000E+00 -0.00000000000E+00 -0.74505805969E-08  0.93827000000E+00  0.93827000000E+00 0.  1.
     999902    2    1    2    0    0 -0.10329820164E-02 -0.58237569098E-02  0.12565700599E-01  0.10300418746E+01  0.10299482430E+01 0.  0.
     999903    2    3    3    0    0  0.55085249957E-01  0.99003510204E-01 -0.65994016095E-01  0.13857698969E+00  0.44858579061E-01 0.  0.
         14    1    1    2    0    0  0.10329820164E-02  0.58237569098E-02 -0.12565700599E-01  0.13888125429E-01  0.00000000000E+00 0. -1.
     999901    1    3    3    0    0 -0.56118231973E-01 -0.10482726711E+00  0.78559716694E-01  0.89146488488E+00  0.88000000000E+00 0. -1.
        -11    1    4    4    0    0  0.52797460049E-01  0.60693062635E-01 -0.29701760390E-01  0.85753573283E-01  0.51100000000E-03 0.  1.
         11    1    4    4    0    0  0.22877899081E-02  0.38310447569E-01 -0.36292255705E-01  0.52823416406E-01  0.51100000000E-03 0. -1.
</event>
<event>
 8    1  0.2959109E+004  0.1043930E+01  0.7957747E-01            NaN
         13   -1    0    0    0    0  0.00000000000E+00  0.00000000000E+00  0.74505805969E-08  0.10566000000E+00  0.10566000000E+00 0.  1.
     999900   -1    0    0    0    0 -0.00000000000E+00 -0.00000000000E+00 -0.74505805969E-08  0.93827000000E+00  0.93827000000E+00 0.  1.
     999902    2    1    2    0    0 -0.11372139497E-01 -0.54677182367E-02  0.40684438087E-03  0.10313051427E+01  0.10312278654E+01 0.  0.
     999903    2    3    3    0    0  0.66283480212E-01  0.58803166244E-01  0.10033189901E+00  0.13993195575E+00  0.40781738223E-01 0.  0.
         14    1    1    2    0    0  0.11372139497E-01  0.54677182367E-02 -0.40684438087E-03  0.12624857299E-01  0.00000000000E+00 0. -1.
     999901    1    3    3    0    0 -0.77655619710E-01 -0.64270884480E-01 -0.99925054632E-01  0.89137318695E+00  0.88000000000E+00 0. -1.
        -11    1    4    4    0    0  0.71346989132E-01  0.51892054993E-01  0.95768149034E-01  0.13021128108E+00  0.51100000000E-03 0. -1.
         11    1    4    4    0    0 -0.50635089194E-02  0.69111112512E-02  0.45637499785E-02  0.97206746766E-02  0.51100000000E-03 0.  1.
</event>
<event>
 8    1  0.2959109E+004  0.1043930E+01  0.7957747E-01            NaN
         13   -1    0    0    0    0  0.00000000000E+00  0.00000000000E+00  0.74505805969E-08  0.10566000000E+00  0.10566000000E+00 0.  1.
     999900   -1    0    0    0    0 -0.00000000000E+00 -0.00000000000E+00 -0.74505805969E-08  0.93827000000E+00  0.93827000000E+00 0.  1.
     999902    2    1    2    0    0  0.81815798542E-02  0.72538201806E-02  0.89973198940E-02  0.10297699180E+01  0.10296725577E+01 0.  0.
     999903    2    3    3    0    0 -0.92544395192E-01  0.46886925215E-01 -0.80228881706E-01  0.13865947588E+00  0.45021416601E-01 0.  0.
         14    1    1    2    0    0 -0.81815798542E-02 -0.72538201806E-02 -0.89973198940E-02  0.14160081970E-01  0.00000000000E+00 0.  1.
     999901    1    3    3    0    0  0.10072597505E+00 -0.39633105035E-01  0.89226201600E-01  0.89111044215E+00  0.88000000000E+00 0. -1.
        -11    1    4    4    0    0 -0.74962974426E-01  0.18173300330E-01 -0.42423558355E-01  0.88032583764E-01  0.51100000000E-03 0. -1.
         11    1    4    4    0    0 -0.17581420766E-01  0.28713624886E-01 -0.37805323351E-01  0.50626892112E-01  0.51100000000E-03 0.  1.
</event>
<event>
 8    1  0.2959109E+004  0.1043930E+01  0.7957747E-01            NaN
         13   -1    0    0    0    0  0.00000000000E+00  0.00000000000E+00  0.74505805969E-08  0.10566000000E+00  0.10566000000E+00 0.  1.
     999900   -1    0    0    0    0 -0.00000000000E+00 -0.00000000000E+00 -0.74505805969E-08  0.93827000000E+00  0.93827000000E+00 0. -1.
     999902    2    1    2    0    0  0.12838867225E-01 -0.11219862975E-01  0.11261901733E-01  0.10234959043E+01  0.10232919006E+01 0.  0.
     999903    2    3    3    0    0  0.79281143316E-01 -0.11201078275E-01  0.10082234097E+00  0.13645833537E+00  0.45219122191E-01 0.  0.
         14    1    1    2    0    0 -0.12838867225E-01  0.11219862975E-01 -0.11261901733E-01  0.20434095709E-01  0.00000000000E+00 0. -1.
     999901    1    3    3    0    0 -0.66442276091E-01 -0.18784700014E-04 -0.89560439241E-01  0.88703756892E+00  0.88000000000E+00 0. -1.
        -11    1    4    4    0    0  0.49670167985E-01 -0.11078353407E-01  0.28551908572E-01  0.58355189194E-01  0.51100000000E-03 0. -1.
         11    1    4    4    0    0  0.29610975331E-01 -0.12272486725E-03  0.72270432402E-01  0.78103146173E-01  0.51100000000E-03 0.  1.
</event>
<event>
 8    1  0.2959109E+004  0.1043930E+01  0.7957747E-01            NaN
         13   -1    0    0    0    0  0.00000000000E+00  0.00000000000E+00  0.74505805969E-08  0.10566000000E+00  0.10566000000E+00 0. -1.
     999900   -1    0    0    0    0 -0.00000000000E+00 -0.00000000000E+00 -0.74505805969E-08  0.93827000000E+00  0.93827000000E+00 0.  1.
     999902    2    1    2    0    0  0.12434064686E-01 -0.56716052696E-02 -0.19091431486E-02  0.10301308008E+01  0.10300383725E+01 0.  0.
     999903    2    3    3    0    0 -0.36269811308E-01 -0.76883488046E-01  0.10141737474E+00  0.13989511904E+00  0.45371692554E-01 0.  0.
         14    1    1    2    0    0 -0.12434064686E-01  0.56716052696E-02  0.19091431486E-02  0.13799199198E-01  0.00000000000E+00 0. -1.
     999901    1    3    3    0    0  0.48703875994E-01  0.71211882777E-01 -0.10332651789E+00  0.89023568176E+00  0.88000000000E+00 0.  1.
        -11    1    4    4    0    0  0.70668941645E-02 -0.19950843879E-01  0.41421815187E-01  0.46518867775E-01  0.51100000000E-03 0.  1.
         11    1    4    4    0    0 -0.43336705473E-01 -0.56932644167E-01  0.59995559552E-01  0.93376251264E-01  0.51100000000E-03 0. -1.
</event>
<event>
 8    1  0.2959109E+004  0.1043930E+01  0.7957747E-01            NaN
         13   -1    0    0    0    0  0.00000000000E+00  0.00000000000E+00  0.74505805969E-08  0.10566000000E+00  0.10566000000E+00 0.  1.
     999900   -1    0    0    0    0 -0.00000000000E+00 -0.00000000000E+00 -0.74505805969E-08  0.93827000000E+00  0.93827000000E+00 0. -1.
     999902    2    1    2    0    0 -0.14410143014E-02  0.15625949140E-02 -0.13428308507E-01  0.10303344973E+01  0.10302447955E+01 0.  0.
     999903    2    3    3    0    0  0.10600891303E+00 -0.17358954912E-01 -0.79687430544E-01  0.14112485766E+00  0.45021282782E-01 0.  0.
         14    1    1    2    0    0  0.14410143014E-02 -0.15625949140E-02  0.13428308507E-01  0.13595502729E-01  0.00000000000E+00 0.  1.
     999901    1    3    3    0    0 -0.10744992734E+00  0.18921549826E-01  0.66259122037E-01  0.88920963962E+00  0.88000000000E+00 0. -1.
        -11    1    4    4    0    0  0.10268367526E+00 -0.16493052819E-01 -0.85311125151E-01  0.13451470980E+00  0.51100000000E-03 0. -1.
         11    1    4    4    0    0  0.33252377765E-02 -0.86590209222E-03  0.56236946072E-02  0.66101478606E-02  0.51100000000E-03 0.  1.
</event>
<event>
 8    1  0.2959109E+004  0.1043930E+01  0.7957747E-01            NaN
         13   -1    0    0    0    0  0.00000000000E+00  0.00000000000E+00  0.74505805969E-08  0.10566000000E+00  0.10566000000E+00 0. -1.
     999900   -1    0    0    0    0 -0.00000000000E+00 -0.00000000000E+00 -0.74505805969E-08  0.93827000000E+00  0.93827000000E+00 0.  1.
     999902    2    1    2    0    0  0.66599605338E-02 -0.55755865567E-02  0.10031250727E-01  0.10306609295E+01  0.10305755108E+01 0.  0.
     999903    2    3    3    0    0 -0.12025888461E+00 -0.14139523809E-01  0.55144735463E-01  0.14037054951E+00  0.44730569602E-01 0.  0.
         14    1    1    2    0    0 -0.66599605338E-02  0.55755865567E-02 -0.10031250727E-01  0.13269070461E-01  0.00000000000E+00 0.  1.
     999901    1    3    3    0    0  0.12691884515E+00  0.85639372528E-02 -0.45113484736E-01  0.89029038003E+00  0.88000000000E+00 0.  1.
        -11    1    4    4    0    0 -0.72000719667E-01 -0.94321569688E-02  0.85449718421E-02  0.73118717729E-01  0.51100000000E-03 0.  1.
         11    1    4    4    0    0 -0.48258164948E-01 -0.47073668407E-02  0.46599763621E-01  0.67251831776E-01  0.51100000000E-03 0. -1.
</event>
<event>
 8    1  0.2959109E+004  0.1043930E+01  0.7957747E-01            NaN
         13   -1    0    0    0    0  0.00000000000E+00  0.00000000000E+00  0.74505805969E-08  0.10566000000E+00  0.10566000000E+00 0. -1.
     999900   -1    0    0    0    0 -0.00000000000E+00 -0.00000000000E+00 -0.74505805969E-08  0.93827000000E+00  0.93827000000E+00 0.  1.
     999902    2    1    2    0    0 -0.13826068402E-01 -0.37551553539E-02  0.20285550406E-02  0.10294601557E+01  0.10293584583E+01 0.  0.
     999903    2    3    3    0    0 -0.33191987610E-01  0.11944169105E+00  0.46832357458E-01  0.13953887685E+00  0.43701291112E-01 0.  0.
         14    1    1    2    0    0  0.13826068402E-01  0.37551553539E-02 -0.20285550406E-02  0.14469844323E-01  0.00000000000E+00 0.  1.
     999901    1    3    3    0    0  0.19365919208E-01 -0.12319684641E+00 -0.44803802417E-01  0.88992127882E+00  0.88000000000E+00 0.  1.
        -11    1    4    4    0    0 -0.39258802989E-01  0.60222499444E-01  0.26921859651E-01  0.76766208057E-01  0.51100000000E-03 0. -1.
         11    1    4    4    0    0  0.60668153785E-02  0.59219191611E-01  0.19910497807E-01  0.62772668797E-01  0.51100000000E-03 0.  1.
</event>
<event>
 8    1  0.2959109E+004  0.1043930E+01  0.7957747E-01            NaN
         13   -1    0    0    0    0  0.00000000000E+00  0.00000000000E+00  0.74505805969E-08  0.10566000000E+00  0.10566000000E+00 0.  1.
     999900   -1    0    0    0    0 -0.00000000000E+00 -0.00000000000E+00 -0.74505805969E-08  0.93827000000E+00  0.93827000000E+00 0.  1.
     999902    2    1    2    0    0 -0.10911504950E-02 -0.13164123956E-01 -0.53839011239E-03  0.10307097643E+01  0.10306249771E+01 0.  0.
     999903    2    3    3    0    0 -0.29483970483E-01 -0.13095407685E+00  0.14111929653E-01  0.14228685985E+00  0.45034755099E-01 0.  0.
         14    1    1    2    0    0  0.10911504950E-02  0.13164123956E-01  0.53839011239E-03  0.13220235733E-01  0.00000000000E+00 0. -1.
     999901    1    3    3    0    0  0.28392819988E-01  0.11778995290E+00 -0.14650319765E-01  0.88842290442E+00  0.88000000000E+00 0.  1.
        -11    1    4    4    0    0 -0.31579188018E-01 -0.96298252378E-01  0.27600012799E-01  0.10503628113E+00  0.51100000000E-03 0. -1.
         11    1    4    4    0    0  0.20952175342E-02 -0.34655824474E-01 -0.13488083146E-01  0.37250578713E-01  0.51100000000E-03 0.  1.
</event>
<event>
 8    1  0.2959109E+004  0.1043930E+01  0.7957747E-01            NaN
         13   -1    0    0    0    0  0.00000000000E+00  0.00000000000E+00  0.74505805969E-08  0.10566000000E+00  0.10566000000E+00 0. -1.
     999900   -1    0    0    0    0 -0.00000000000E+00 -0.00000000000E+00 -0.74505805969E-08  0.93827000000E+00  0.93827000000E+00 0.  1.
     999902    2    1    2    0    0 -0.84889982060E-02 -0.83901286638E-02 -0.28120180875E-02  0.10316676676E+01  0.10315947904E+01 0.  0.
     999903    2    3    3    0    0 -0.11211724096E+00 -0.62505844541E-01  0.47448029732E-01  0.14251447733E+00  0.39771904687E-01 0.  0.
         14    1    1    2    0    0  0.84889982060E-02  0.83901286638E-02  0.28120180875E-02  0.12262332374E-01  0.00000000000E+00 0.  1.
     999901    1    3    3    0    0  0.10362824275E+00  0.54115715877E-01 -0.50260047820E-01  0.88915319029E+00  0.88000000000E+00 0.  1.
        -11    1    4    4    0    0 -0.32742952798E-01 -0.13245044733E-01  0.32318938681E-01  0.47878043887E-01  0.51100000000E-03 0.  1.
         11    1    4    4    0    0 -0.79374288159E-01 -0.49260799808E-01  0.15129091051E-01  0.94636433446E-01  0.51100000000E-03 0. -1.
</event>
<event>
 8    1  0.2959109E+004  0.1043930E+01  0.7957747E-01            NaN
         13   -1    0    0    0    0  0.00000000000E+00  0.00000000000E+00  0.74505805969E-08  0.10566000000E+00  0.10566000000E+00 0.  1.
     999900   -1    0    0    0    0 -0.00000000000E+00 -0.00000000000E+00 -0.74505805969E-08  0.93827000000E+00  0.93827000000E+00 0.  1.
     999902    2    1    2    0    0  0.11814466615E-01  0.25469226095E-02 -0.69450972988E-02  0.10299907456E+01  0.10298964187E+01 0.  0.
     999903    2    3    3    0    0 -0.54511204100E-01  0.80905308673E-01 -0.89181490615E-01  0.14021439414E+00  0.46793137452E-01 0.  0.
         14    1    1    2    0    0 -0.11814466615E-01 -0.25469226095E-02  0.69450972988E-02  0.13939254380E-01  0.00000000000E+00 0.  1.
     999901    1    3    3    0    0  0.66325670715E-01 -0.78358386064E-01  0.82236393317E-01  0.88977635148E+00  0.88000000000E+00 0. -1.
        -11    1    4    4    0    0 -0.33121538577E-01  0.80219546033E-01 -0.71283986478E-01  0.11231152983E+00  0.51100000000E-03 0.  1.
         11    1    4    4    0    0 -0.21389665523E-01  0.68576264091E-03 -0.17897504137E-01  0.27902864314E-01  0.51100000000E-03 0. -1.
</event>
<event>
 8    1  0.2959109E+004  0.1043930E+01  0.7957747E-01            NaN
         13   -1    0    0    0    0  0.00000000000E+00  0.00000000000E+00  0.74505805969E-08  0.10566000000E+00  0.10566000000E+00 0.  1.
     999900   -1    0    0    0    0 -0.00000000000E+00 -0.00000000000E+00 -0.74505805969E-08  0.93827000000E+00  0.93827000000E+00 0. -1.
     999902    2    1    2    0    0  0.16804497790E-02 -0.13775875188E-01 -0.15841137718E-02  0.10299618911E+01  0.10298671706E+01 0.  0.
     999903    2    3    3    0    0  0.71707233384E-01 -0.59498968671E-01 -0.95728866400E-01  0.14099755769E+00  0.45102558908E-01 0.  0.
         14    1    1    2    0    0 -0.16804497790E-02  0.13775875188E-01  0.15841137718E-02  0.13968108859E-01  0.00000000000E+00 0.  1.
     999901    1    3    3    0    0 -0.70026783605E-01  0.45723093483E-01  0.94144752628E-01  0.88896433345E+00  0.88000000000E+00 0.  1.
        -11    1    4    4    0    0  0.37696285077E-01 -0.20167740301E-01 -0.15675593486E-01  0.45538258745E-01  0.51100000000E-03 0. -1.
         11    1    4    4    0    0  0.34010948307E-01 -0.39331228370E-01 -0.80053272914E-01  0.95459298945E-01  0.51100000000E-03 0.  1.
</event>
<event>
 8    1  0.2959109E+004  0.1043930E+01  0.7957747E-01            NaN
         13   -1    0    0    0    0  0.00000000000E+00  0.00000000000E+00  0.74505805969E-08  0.10566000000E+00  0.10566000000E+00 0.  1.
     999900   -1    0    0    0    0 -0.00000000000E+00 -0.00000000000E+00 -0.74505805969E-08  0.93827000000E+00  0.93827000000E+00 0.  1.
     999902    2    1    2    0    0 -0.16205549904E-02  0.10087536752E-01 -0.10252511621E-01  0.10294559339E+01  0.10293541767E+01 0.  0.
     999903    2    3    3    0    0  0.38478676294E-01 -0.44112928424E-01 -0.11906534309E+00  0.14019451500E+00  0.45292241349E-01 0.  0.
         14    1    1    2    0    0  0.16205549904E-02 -0.10087536752E-01  0.10252511621E-01  0.14474066144E-01  0.00000000000E+00 0.  1.
     999901    1    3    3    0    0 -0.40099231284E-01  0.54200465176E-01  0.10881283147E+00  0.88926141886E+00  0.88000000000E+00 0. -1.
        -11    1    4    4    0    0  0.68248769952E-02 -0.27655689464E-01 -0.89282310832E-01  0.93717705127E-01  0.51100000000E-03 0. -1.
         11    1    4    4    0    0  0.31653799299E-01 -0.16457238959E-01 -0.29783032262E-01  0.46476809872E-01  0.51100000000E-03 0.  1.
</event>
<event>
 8    1  0.2959109E+004  0.1043930E+01  0.7957747E-01            NaN
         13   -1    0    0    0    0  0.00000000000E+00  0.00000000000E+00  0.74505805969E-08  0.10566000000E+00  0.10566000000E+00 0. -1.
     999900   -1    0    0    0    0 -0.00000000000E+00 -0.00000000000E+00 -0.74505805969E-08  0.93827000000E+00  0.93827000000E+00 0. -1.
     999902    2    1    2    0    0 -0.11529703974E-02  0.93562675005E-02 -0.10749574136E-01  0.10296323629E+01  0.10295330885E+01 0.  0.
     999903    2    3    3    0    0 -0.17776900127E-01 -0.12350506046E+00 -0.43630304032E-01  0.13889691963E+00  0.42652464359E-01 0.  0.
         14    1    1    2    0    0  0.11529703974E-02 -0.93562675005E-02  0.10749574136E-01  0.14297637091E-01  0.00000000000E+00 0. -1.
     999901    1    3    3    0    0  0.16623929729E-01  0.13286132796E+00  0.32880729896E-01  0.89073544327E+00  0.88000000000E+00 0.  1.
        -11    1    4    4    0    0  0.88143935438E-02 -0.56986374083E-01 -0.33093757908E-01  0.66487580029E-01  0.51100000000E-03 0. -1.
         11    1    4    4    0    0 -0.26591293671E-01 -0.66518686380E-01 -0.10536546123E-01  0.72409339605E-01  0.51100000000E-03 0.  1.
</event>
<event>
 8    1  0.2959109E+004  0.1043930E+01  0.7957747E-01            NaN
         13   -1    0    0    0    0  0.00000000000E+00  0.00000000000E+00  0.74505805969E-08  0.10566000000E+00  0.10566000000E+00 0.  1.
     999900   -1    0    0    0    0 -0.00000000000E+00 -0.00000000000E+00 -0.74505805969E-08  0.93827000000E+00  0.93827000000E+00 0.  1.
     999902    2    1    2    0    0 -0.28149031659E-02 -0.13848748246E-01 -0.39290470695E-03  0.10297926070E+01  0.10296955606E+01 0.  0.
     999903    2    3    3    0    0 -0.19775427221E-01  0.66314794519E-01 -0.11199830368E+00  0.13896736145E+00  0.44492561476E-01 0.  0.
         14    1    1    2    0    0  0.28149031659E-02  0.13848748246E-01  0.39290470695E-03  0.14137393039E-01  0.00000000000E+00 0. -1.
     999901    1    3    3    0    0  0.16960524055E-01 -0.80163542765E-01  0.11160539897E+00  0.89082524551E+00  0.88000000000E+00 0. -1.
        -11    1    4    4    0    0  0.37141032391E-02  0.55589207611E-01 -0.84749383329E-01  0.10142324024E+00  0.51100000000E-03 0. -1.
         11    1    4    4    0    0 -0.23489530460E-01  0.10725586908E-01 -0.27248920351E-01  0.37544121204E-01  0.51100000000E-03 0.  1.
</event>
<event>
 8    1  0.2959109E+004  0.1043930E+01  0.7957747E-01            NaN
         13   -1    0    0    0    0  0.00000000000E+00  0.00000000000E+00  0.74505805969E-08  0.10566000000E+00  0.10566000000E+00 0. -1.
     999900   -1    0    0    0    0 -0.00000000000E+00 -0.00000000000E+00 -0.74505805969E-08  0.93827000000E+00  0.93827000000E+00 0. -1.
     999902    2    1    2    0    0 -0.11985577657E-01 -0.87071724460E-03 -0.57969668925E-02  0.10305876971E+01  0.10305013268E+01 0.  0.
     999903    2    3    3    0    0 -0.87712496654E-01  0.83939694572E-01 -0.57622322683E-01  0.14176080752E+00  0.45126933025E-01 0.  0.
         14    1    1    2    0    0  0.11985577657E-01  0.87071724460E-03  0.57969668925E-02  0.13342302854E-01  0.00000000000E+00 0.  1.
     999901    1    3    3    0    0  0.75726918998E-01 -0.84810411817E-01  0.51825355790E-01  0.88882688962E+00  0.88000000000E+00 0. -1.
        -11    1    4    4    0    0 -0.28228729899E-01  0.20632219937E-02 -0.13261698766E-01  0.31261027684E-01  0.51100000000E-03 0. -1.
         11    1    4    4    0    0 -0.59483766755E-01  0.81876472579E-01 -0.44360623917E-01  0.11049977984E+00  0.51100000000E-03 0.  1.
</event>
<event>
 8    1  0.2959109E+004  0.1043930E+01  0.7957747E-01            NaN
         13   -1    0    0    0    0  0.00000000000E+00  0.00000000000E+00  0.74505805969E-08  0.10566000000E+00  0.10566000000E+00 0.  1.
     999900   -1    0    0    0    0 -0.00000000000E+00 -0.00000000000E+00 -0.74505805969E-08  0.93827000000E+00  0.93827000000E+00 0.  1.
     999902    2    1    2    0    0  0.48118503486E-02 -0.10638127839E-01 -0.81445145525E-02  0.10296942427E+01  0.10295958317E+01 0.  0.
     999903    2    3    3    0    0 -0.40838740397E-02  0.80360247510E-01  0.10184978580E+00  0.13814582322E+00  0.47291037187E-01 0.  0.
         14    1    1    2    0    0 -0.48118503486E-02  0.10638127839E-01  0.81445145525E-02  0.14235757268E-01  0.00000000000E+00 0.  1.
     999901    1    3    3    0    0  0.88957243883E-02 -0.90998375349E-01 -0.10999430035E+00  0.89154841951E+00  0.88000000000E+00 0.  1.
        -11    1    4    4    0    0 -0.20946969149E-01  0.38222706944E-01  0.70834640377E-01  0.83171859670E-01  0.51100000000E-03 0. -1.
         11    1    4    4    0    0  0.16863095109E-01  0.42137540566E-01  0.31015145422E-01  0.54973963548E-01  0.51100000000E-03 0.  1.
</event>
<event>
 8    1  0.2959109E+004  0.1043930E+01  0.7957747E-01            NaN
         13   -1    0    0    0    0  0.00000000000E+00  0.00000000000E+00  0.74505805969E-08  0.10566000000E+00  0.10566000000E+00 0. -1.
     999900   -1    0    0    0    0 -0.00000000000E+00 -0.00000000000E+00 -0.74505805969E-08  0.93827000000E+00  0.93827000000E+00 0.  1.
     999902    2    1    2    0    0  0.13229406303E-01  0.69539103587E-02 -0.68806661842E-03  0.10289684661E+01  0.10288596876E+01 0.  0.
     999903    2    3    3    0    0 -0.32965711558E-01 -0.30080048850E-01 -0.12283726491E+00  0.13856073384E+00  0.46027555173E-01 0.  0.
         14    1    1    2    0    0 -0.13229406303E-01 -0.69539103587E-02  0.68806661842E-03  0.14961533881E-01  0.00000000000E+00 0. -1.
     999901    1    3    3    0    0  0.46195117862E-01  0.37033959209E-01  0.12214919829E+00  0.89040773227E+00  0.88000000000E+00 0. -1.
        -11    1    4    4    0    0 -0.94212982930E-02 -0.12838313554E-01 -0.43274848183E-02  0.16509736590E-01  0.51100000000E-03 0.  1.
         11    1    4    4    0    0 -0.23544413265E-01 -0.17241735297E-01 -0.11850978009E+00  0.12205099725E+00  0.51100000000E-03 0. -1.
</event>
<event>
 6    1  0.2959109E+004  0.1043930E+01  0.7957747E-01            NaN
         13   -1    0    0    0    0  0.00000000000E+00  0.00000000000E+00  0.74505805969E-08  0.10566000000E+00  0.10566000000E+00 0.  1.
     999900   -1    0    0    0    0 -0.00000000000E+00 -0.00000000000E+00 -0.74505805969E-08  0.93827000000E+00  0.93827000000E+00 0.  1.
         14    1    1    2    0    0 -0.43464637261E-02  0.29582853294E-01 -0.17665876516E-01  0.34729240548E-01  0.00000000000E+00 0. -1.
     999901    1    1    2    0    0  0.34770642515E-01 -0.21639187817E-01 -0.10018503919E+00  0.88663086688E+00  0.88000000000E+00 0.  1.
        -11    1    1    2    0    0 -0.13200271967E-01 -0.79962514660E-02  0.41017041249E-01  0.43827457276E-01  0.51100000000E-03 0.  1.
         11    1    1    2    0    0 -0.17223906822E-01  0.52585989287E-04  0.76833874454E-01  0.78742435295E-01  0.51100000000E-03 0. -1.
</event>
<event>
 8    1  0.2959109E+004  0.1043930E+01  0.7957747E-01            NaN
         13   -1    0    0    0    0  0.00000000000E+00  0.00000000000E+00  0.74505805969E-08  0.10566000000E+00  0.10566000000E+00 0. -1.
     999900   -1    0    0    0    0 -0.00000000000E+00 -0.00000000000E+00 -0.74505805969E-08  0.93827000000E+00  0.93827000000E+00 0. -1.
     999902    2    1    2    0    0 -0.10946134131E-01  0.64647081327E-02 -0.34598680087E-02  0.10307549861E+01  0.10306707818E+01 0.  0.
     999903    2    3    3    0    0  0.72124409229E-01  0.10464706658E+00 -0.40607737854E-01  0.14063114368E+00  0.44443123745E-01 0.  0.
         14    1    1    2    0    0  0.10946134131E-01 -0.64647081327E-02  0.34598680087E-02  0.13175013863E-01  0.00000000000E+00 0. -1.
     999901    1    3    3    0    0 -0.83070543360E-01 -0.98182358444E-01  0.37147869845E-01  0.89012384246E+00  0.88000000000E+00 0.  1.
        -11    1    4    4    0    0  0.63942524601E-01  0.95638332209E-01 -0.20114284542E-01  0.11679119232E+00  0.51100000000E-03 0. -1.
         11    1    4    4    0    0  0.81818846280E-02  0.90087343683E-02 -0.20493453312E-01  0.23839951355E-01  0.51100000000E-03 0.  1.
</event>
<event>
 8    1  0.2959109E+004  0.1043930E+01  0.7957747E-01            NaN
         13   -1    0    0    0    0  0.00000000000E+00  0.00000000000E+00  0.74505805969E-08  0.10566000000E+00  0.10566000000E+00 0. -1.
     999900   -1    0    0    0    0 -0.00000000000E+00 -0.00000000000E+00 -0.74505805969E-08  0.93827000000E+00  0.93827000000E+00 0.  1.
     999902    2    1    2    0    0  0.54964181808E-02  0.91192597136E-02 -0.10825207677E-01  0.10287459086E+01  0.10286338454E+01 0.  0.
     999903    2    3    3    0    0  0.99188488443E-01  0.42947661549E-01 -0.78111801162E-01  0.14057359960E+00  0.44459257214E-01 0.  0.
         14    1    1    2    0    0 -0.54964181808E-02 -0.91192597136E-02  0.10825207677E-01  0.15184091405E-01  0.00000000000E+00 0. -1.
     999901    1    3    3    0    0 -0.93692070262E-01 -0.33828401836E-01  0.67286593485E-01  0.88817230899E+00  0.88000000000E+00 0. -1.
        -11    1    4    4    0    0  0.39968661359E-01  0.40263523487E-01 -0.46697885673E-01  0.73481962833E-01  0.51100000000E-03 0. -1.
         11    1    4    4    0    0  0.59219827084E-01  0.26841380623E-02 -0.31413915489E-01  0.67091636768E-01  0.51100000000E-03 0.  1.
</event>
<event>
 8    1  0.2959109E+004  0.1043930E+01  0.7957747E-01            NaN
         13   -1    0    0    0    0  0.00000000000E+00  0.00000000000E+00  0.74505805969E-08  0.10566000000E+00  0.10566000000E+00 0.  1.
     999900   -1    0    0    0    0 -0.00000000000E+00 -0.00000000000E+00 -0.74505805969E-08  0.93827000000E+00  0.93827000000E+00 0. -1.
     999902    2    1    2    0    0 -0.74732372965E-02  0.76696554162E-02  0.87387583437E-02  0.10301083218E+01  0.10300155901E+01 0.  0.
     999903    2    3    3    0    0  0.76223397499E-01  0.10702400802E+00 -0.19192335641E-01  0.14013272663E+00  0.44773772520E-01 0.  0.
         14    1    1    2    0    0  0.74732372965E-02 -0.76696554162E-02 -0.87387583437E-02  0.13821678164E-01  0.00000000000E+00 0. -1.
     999901    1    3    3    0    0 -0.83696634796E-01 -0.99354352602E-01  0.27931093985E-01  0.88997559521E+00  0.88000000000E+00 0.  1.
        -11    1    4    4    0    0  0.36183599245E-01  0.76571851844E-01  0.38936882824E-02  0.84781621113E-01  0.51100000000E-03 0.  1.
         11    1    4    4    0    0  0.40039798254E-01  0.30452156174E-01 -0.23086023924E-01  0.55351105513E-01  0.51100000000E-03 0. -1.
</event>
<event>
 7    1  0.2959109E+004  0.1043930E+01  0.7957747E-01            NaN
         13   -1    0    0    0    0  0.00000000000E+00  0.00000000000E+00  0.74505805969E-08  0.10566000000E+00  0.10566000000E+00 0. -1.
     999900   -1    0    0    0    0 -0.00000000000E+00 -0.00000000000E+00 -0.74505805969E-08  0.93827000000E+00  0.93827000000E+00 0. -1.
     999903    2    1    2    0    0  0.32510162216E-01 -0.10470547945E+00  0.23506986101E-02  0.11858860415E+00  0.45139596564E-01 0.  0.
         14    1    1    2    0    0 -0.16712381090E-01 -0.30170563613E-01 -0.54606915046E-02  0.34919704210E-01  0.00000000000E+00 0.  1.
     999901    1    1    2    0    0 -0.15797781125E-01  0.13487604306E+00  0.31099928945E-02  0.89042169164E+00  0.88000000000E+00 0.  1.
        -11    1    3    3    0    0 -0.12328008878E-02 -0.34897771797E-01 -0.16751993130E-01  0.38733250177E-01  0.51100000000E-03 0.  1.
         11    1    3    3    0    0  0.33742963103E-01 -0.69807707649E-01  0.19102691740E-01  0.79855353977E-01  0.51100000000E-03 0. -1.
</event>
<event>
 8    1  0.2959109E+004  0.1043930E+01  0.7957747E-01            NaN
         13   -1    0    0    0    0  0.00000000000E+00  0.00000000000E+00  0.74505805969E-08  0.10566000000E+00  0.10566000000E+00 0. -1.
     999900   -1    0    0    0    0 -0.00000000000E+00 -0.00000000000E+00 -0.74505805969E-08  0.93827000000E+00  0.93827000000E+00 0. -1.
     999902    2    1    2    0    0  0.11925265412E-01  0.51290399028E-02 -0.63108454090E-02  0.10294958123E+01  0.10293946190E+01 0.  0.
     999903    2    3    3    0    0 -0.11550290779E+00 -0.10153292910E-01  0.60209016195E-01  0.13770190054E+00  0.43504904514E-01 0.  0.
         14    1    1    2    0    0 -0.11925265412E-01 -0.51290399028E-02  0.63108454090E-02  0.14434187724E-01  0.00000000000E+00 0. -1.
     999901    1    3    3    0    0  0.12742817320E+00  0.15282332813E-01 -0.66519861604E-01  0.89179391174E+00  0.88000000000E+00 0.  1.
        -11    1    4    4    0    0 -0.79750476020E-02 -0.12834990016E-01  0.15886081994E-02  0.15202734951E-01  0.51100000000E-03 0. -1.
         11    1    4    4    0    0 -0.10752786019E+00  0.26816971057E-02  0.58620407996E-01  0.12249916559E+00  0.51100000000E-03 0.  1.
</event>
<event>
 8    1  0.2959109E+004  0.1043930E+01  0.7957747E-01            NaN
         13   -1    0    0    0    0  0.00000000000E+00  0.00000000000E+00  0.74505805969E-08  0.10566000000E+00  0.10566000000E+00 0. -1.
     999900   -1    0    0    0    0 -0.00000000000E+00 -0.00000000000E+00 -0.74505805969E-08  0.93827000000E+00  0.93827000000E+00 0.  1.
     999902    2    1    2    0    0 -0.58405847054E-02  0.33309374921E-02 -0.13038836408E-01  0.10292596616E+01  0.10291551060E+01 0.  0.
     999903    2    3    3    0    0  0.63471264460E-01  0.34978908194E-01  0.10768814935E+00  0.13775490469E+00  0.46125381563E-01 0.  0.
         14    1    1    2    0    0  0.58405847054E-02 -0.33309374921E-02  0.13038836408E-01  0.14670338413E-01  0.00000000000E+00 0. -1.
     999901    1    3    3    0    0 -0.69311849165E-01 -0.31647970702E-01 -0.12072698576E+00  0.89150475690E+00  0.88000000000E+00 0.  1.
        -11    1    4    4    0    0 -0.58330609995E-02  0.11092830089E-01  0.17521411230E-01  0.21548467521E-01  0.51100000000E-03 0.  1.
         11    1    4    4    0    0  0.69304325459E-01  0.23886078105E-01  0.90166738121E-01  0.11620643717E+00  0.51100000000E-03 0. -1.
</event>
<event>
 8    1  0.2959109E+004  0.1043930E+01  0.7957747E-01            NaN
         13   -1    0    0    0    0  0.00000000000E+00  0.00000000000E+00  0.74505805969E-08  0.10566000000E+00  0.10566000000E+00 0. -1.
     999900   -1    0    0    0    0 -0.00000000000E+00 -0.00000000000E+00 -0.74505805969E-08  0.93827000000E+00  0.93827000000E+00 0. -1.
     999902    2    1    2    0    0 -0.88305314594E-03  0.51300010425E-02  0.12920158627E-01  0.10300006356E+01  0.10299064434E+01 0.  0.
     999903    2    3    3    0    0 -0.13137107639E+00  0.25767757622E-01  0.92209687180E-02  0.14013169851E+00  0.40367432644E-01 0.  0.
         14    1    1    2    0    0  0.88305314594E-03 -0.51300010425E-02 -0.12920158627E-01  0.13929364397E-01  0.00000000000E+00 0.  1.
     999901    1    3    3    0    0  0.13048802324E+00 -0.20637756580E-01  0.36991899090E-02  0.88986893710E+00  0.88000000000E+00 0.  1.
        -11    1    4    4    0    0 -0.80140883226E-01  0.80461544361E-02  0.23811561082E-01  0.83991388413E-01  0.51100000000E-03 0. -1.
         11    1    4    4    0    0 -0.51230193160E-01  0.17721603186E-01 -0.14590592364E-01  0.56140310092E-01  0.51100000000E-03 0.  1.
</event>
<event>
 8    1  0.2959109E+004  0.1043930E+01  0.7957747E-01            NaN
         13   -1    0    0    0    0  0.00000000000E+00  0.00000000000E+00  0.74505805969E-08  0.10566000000E+00  0.10566000000E+00 0.  1.
     999900   -1    0    0    0    0 -0.00000000000E+00 -0.00000000000E+00 -0.74505805969E-08  0.93827000000E+00  0.93827000000E+00 0. -1.
     999902    2    1    2    0    0 -0.25152964254E-02 -0.21029155513E-02 -0.11545111851E-01  0.10319283927E+01  0.10318585994E+01 0.  0.
     999903    2    3    3    0    0  0.45356004154E-01  0.12605521166E+00 -0.33788803610E-02  0.14132025535E+00  0.44865512816E-01 0.  0.
         14    1    1    2    0    0  0.25152964254E-02  0.21029155513E-02  0.11545111851E-01  0.12001607291E-01  0.00000000000E+00 0.  1.
     999901    1    3    3    0    0 -0.47871300579E-01 -0.12815812721E+00 -0.81662314900E-02  0.89060813736E+00  0.88000000000E+00 0. -1.
        -11    1    4    4    0    0  0.36816929254E-02  0.55451589253E-01 -0.17199187451E-01  0.58176514020E-01  0.51100000000E-03 0. -1.
         11    1    4    4    0    0  0.41674311228E-01  0.70603622409E-01  0.13820307090E-01  0.83143741332E-01  0.51100000000E-03 0.  1.
</event>
<event>
 8    1  0.2959109E+004  0.1043930E+01  0.7957747E-01            NaN
         13   -1    0    0    0    0  0.00000000000E+00  0.00000000000E+00  0.74505805969E-08  0.10566000000E+00  0.10566000000E+00 0.  1.
     999900   -1    0    0    0    0 -0.00000000000E+00 -0.00000000000E+00 -0.74505805969E-08  0.93827000000E+00  0.93827000000E+00 0.  1.
     999902    2    1    2    0    0  0.33294651139E-02 -0.14747420916E-01 -0.28892485521E-02  0.10285378098E+01  0.10284226304E+01 0.  0.
     999903    2    3    3    0    0 -0.60175045995E-01 -0.66025338465E-01  0.96808630991E-01  0.13915492548E+00  0.44853102127E-01 0.  0.
         14    1    1    2    0    0 -0.33294651139E-02  0.14747420916E-01  0.28892485521E-02  0.15392190189E-01  0.00000000000E+00 0.  1.
     999901    1    3    3    0    0  0.63504511109E-01  0.51277917549E-01 -0.99697879543E-01  0.88938288433E+00  0.88000000000E+00 0. -1.
        -11    1    4    4    0    0 -0.20571032484E-01 -0.95358989955E-03  0.36827408933E-01  0.42197107494E-01  0.51100000000E-03 0.  1.
         11    1    4    4    0    0 -0.39604013511E-01 -0.65071748565E-01  0.59981222058E-01  0.96957817984E-01  0.51100000000E-03 0. -1.
</event>
<event>
 8    1  0.2959109E+004  0.1043930E+01  0.7957747E-01            NaN
         13   -1    0    0    0    0  0.00000000000E+00  0.00000000000E+00  0.74505805969E-08  0.10566000000E+00  0.10566000000E+00 0. -1.
     999900   -1    0    0    0    0 -0.00000000000E+00 -0.00000000000E+00 -0.74505805969E-08  0.93827000000E+00  0.93827000000E+00 0.  1.
     999902    2    1    2    0    0  0.66377333475E-02 -0.38344858300E-03  0.12168157131E-01  0.10300638331E+01  0.10299704994E+01 0.  0.
     999903    2    3    3    0    0  0.16808149603E-01 -0.10009829963E+00 -0.83325723349E-01  0.13924085960E+00  0.46288846694E-01 0.  0.
         14    1    1    2    0    0 -0.66377333475E-02  0.38344858300E-03 -0.12168157131E-01  0.13866166910E-01  0.00000000000E+00 0.  1.
     999901    1    3    3    0    0 -0.10170416256E-01  0.99714851050E-01  0.95493880480E-01  0.89082297349E+00  0.88000000000E+00 0.  1.
        -11    1    4    4    0    0  0.26163456588E-01 -0.97937386655E-01 -0.71766362580E-01  0.12420519347E+00  0.51100000000E-03 0. -1.
         11    1    4    4    0    0 -0.93553069847E-02 -0.21609129782E-02 -0.11559360769E-01  0.15035666133E-01  0.51100000000E-03 0.  1.
</event>
<event>
 8    1  0.2959109E+004  0.1043930E+01  0.7957747E-01            NaN
         13   -1    0    0    0    0  0.00000000000E+00  0.00000000000E+00  0.74505805969E-08  0.10566000000E+00  0.10566000000E+00 0. -1.
     999900   -1    0    0    0    0 -0.00000000000E+00 -0.00000000000E+00 -0.74505805969E-08  0.93827000000E+00  0.93827000000E+00 0. -1.
     999902    2    1    2    0    0 -0.13932773336E-02 -0.90310593184E-02 -0.10812384217E-01  0.10297734147E+01  0.10296761028E+01 0.  0.
     999903    2    3    3    0    0 -0.50779341625E-01 -0.12177258286E+00  0.22020978147E-01  0.14060095442E+00  0.43319757999E-01 0.  0.
         14    1    1    2    0    0  0.13932773336E-02  0.90310593184E-02  0.10812384217E-01  0.14156585273E-01  0.00000000000E+00 0. -1.
     999901    1    3    3    0    0  0.49386064292E-01  0.11274152355E+00 -0.32833362364E-01  0.88917246030E+00  0.88000000000E+00 0. -1.
        -11    1    4    4    0    0 -0.39460745134E-01 -0.87124475809E-01 -0.41342614478E-02  0.95734935787E-01  0.51100000000E-03 0.  1.
         11    1    4    4    0    0 -0.11318596491E-01 -0.34648107055E-01  0.26155239594E-01  0.44866018636E-01  0.51100000000E-03 0. -1.
</event>
<event>
 8    1  0.2959109E+004  0.1043930E+01  0.7957747E-01            NaN
         13   -1    0    0    0    0  0.00000000000E+00  0.00000000000E+00  0.74505805969E-08  0.10566000000E+00  0.10566000000E+00 0. -1.
     999900   -1    0    0    0    0 -0.00000000000E+00 -0.00000000000E+00 -0.74505805969E-08  0.93827000000E+00  0.93827000000E+00 0. -1.
     999902    2    1    2    0    0  0.78507793345E-02 -0.10458657966E-01 -0.21004708650E-02  0.10306849919E+01  0.10305998846E+01 0.  0.
     999903    2    3    3    0    0 -0.10499921492E+00 -0.28820487806E-01 -0.76306598109E-01  0.14019140552E+00  0.44446345374E-01 0.  0.
         14    1    1    2    0    0 -0.78507793345E-02  0.10458657966E-01  0.21004708650E-02  0.13245008134E-01  0.00000000000E+00 0. -1.
     999901    1    3    3    0    0  0.11284999425E+00  0.18361829840E-01  0.74206127244E-01  0.89049358634E+00  0.88000000000E+00 0.  1.
        -11    1    4    4    0    0 -0.10524322346E-01 -0.19857636246E-01 -0.11292152577E-01  0.25156726912E-01  0.51100000000E-03 0.  1.
         11    1    4    4    0    0 -0.94474892571E-01 -0.89628515606E-02 -0.65014445532E-01  0.11503467861E+00  0.51100000000E-03 0. -1.
</event>
<event>
 8    1  0.2959109E+004  0.1043930E+01  0.7957747E-01            NaN
         13   -1    0    0    0    0  0.00000000000E+00  0.00000000000E+00  0.74505805969E-08  0.10566000000E+00  0.10566000000E+00 0. -1.
     999900   -1    0    0    0    0 -0.00000000000E+00 -0.00000000000E+00 -0.74505805969E-08  0.93827000000E+00  0.93827000000E+00 0. -1.
     999902    2    1    2    0    0 -0.12434422597E-01  0.82401725149E-02  0.26796257442E-02  0.10287742848E+01  0.10286626431E+01 0.  0.
     999903    2    3    3    0    0 -0.11037895444E+00  0.33534947710E-01 -0.65976039144E-01  0.14032250938E+00  0.45049557099E-01 0.  0.
         14    1    1    2    0    0  0.12434422597E-01 -0.82401725149E-02 -0.26796257442E-02  0.15155715177E-01  0.00000000000E+00 0.  1.
     999901    1    3    3    0    0  0.97944531848E-01 -0.25294775195E-01  0.68655664888E-01  0.88845177545E+00  0.88000000000E+00 0.  1.
        -11    1    4    4    0    0 -0.24725324865E-01 -0.56230233621E-03 -0.35410912718E-01  0.43195505948E-01  0.51100000000E-03 0. -1.
         11    1    4    4    0    0 -0.85653629579E-01  0.34097250046E-01 -0.30565126426E-01  0.97127003429E-01  0.51100000000E-03 0.  1.
</event>
<event>
 8    1  0.2959109E+004  0.1043930E+01  0.7957747E-01            NaN
         13   -1    0    0    0    0  0.00000000000E+00  0.00000000000E+00  0.74505805969E-08  0.10566000000E+00  0.10566000000E+00 0.  1.
     999900   -1    0    0    0    0 -0.00000000000E+00 -0.00000000000E+00 -0.74505805969E-08  0.93827000000E+00  0.93827000000E+00 0. -1.
     999902    2    1    2    0    0 -0.40317239655E-02 -0.10173872317E-01 -0.84592262041E-02  0.10300981171E+01  0.10300052475E+01 0.  0.
     999903    2    3    3    0    0 -0.28191397214E-01 -0.11911601584E+00  0.53040186482E-01  0.14092194886E+00  0.45413149876E-01 0.  0.
         14    1    1    2    0    0  0.40317239655E-02  0.10173872317E-01  0.84592262041E-02  0.13831882881E-01  0.00000000000E+00 0.  1.
     999901    1    3    3    0    0  0.24159673249E-01  0.10894214352E+00 -0.61499412686E-01  0.88917616826E+00  0.88000000000E+00 0.  1.
        -11    1    4    4    0    0 -0.21733599259E-01 -0.74257670768E-01  0.55982065645E-01  0.95502899430E-01  0.51100000000E-03 0.  1.
         11    1    4    4    0    0 -0.64577979546E-02 -0.44858345069E-01 -0.29418791634E-02  0.45419049426E-01  0.51100000000E-03 0. -1.
</event>
<event>
 8    1  0.2959109E+004  0.1043930E+01  0.7957747E-01            NaN
         13   -1    0    0    0    0  0.00000000000E+00  0.00000000000E+00  0.74505805969E-08  0.10566000000E+00  0.10566000000E+00 0. -1.
     999900   -1    0    0    0    0 -0.00000000000E+00 -0.00000000000E+00 -0.74505805969E-08  0.93827000000E+00  0.93827000000E+00 0.  1.
     999902    2    1    2    0    0 -0.31516556673E-02  0.12941447886E-01  0.23729610018E-02  0.10304005894E+01  0.10303117634E+01 0.  0.
     999903    2    3    3    0    0  0.66813309655E-01  0.67476251472E-01 -0.93758091299E-01  0.14073193177E+00  0.44697137236E-01 0.  0.
         14    1    1    2    0    0  0.31516556673E-02 -0.12941447886E-01 -0.23729610018E-02  0.13529410584E-01  0.00000000000E+00 0.  1.
     999901    1    3    3    0    0 -0.69964965322E-01 -0.54534803586E-01  0.96131052300E-01  0.88966865764E+00  0.88000000000E+00 0. -1.
        -11    1    4    4    0    0  0.54006432314E-01  0.66842683653E-01 -0.60533514650E-01  0.10511520635E+00  0.51100000000E-03 0.  1.
         11    1    4    4    0    0  0.12806877340E-01  0.63356781949E-03 -0.33224576649E-01  0.35616725423E-01  0.51100000000E-03 0. -1.
</event>
<event>
 8    1  0.2959109E+004  0.1043930E+01  0.7957747E-01            NaN
         13   -1    0    0    0    0  0.00000000000E+00  0.00000000000E+00  0.74505805969E-08  0.10566000000E+00  0.10566000000E+00 0. -1.
     999900   -1    0    0    0    0 -0.00000000000E+00 -0.00000000000E+00 -0.74505805969E-08  0.93827000000E+00  0.93827000000E+00 0. -1.
     999902    2    1    2    0    0  0.61843476018E-02 -0.54412853107E-03 -0.11784269118E-01  0.10306104193E+01  0.10305243448E+01 0.  0.
     999903    2    3    3    0    0  0.66464940932E-01 -0.10210221392E+00  0.50432503537E-01  0.14054372437E+00  0.48648233127E-01 0.  0.
         14    1    1    2    0    0 -0.61843476018E-02  0.54412853107E-03  0.11784269118E-01  0.13319580690E-01  0.00000000000E+00 0. -1.
     999901    1    3    3    0    0 -0.60280593330E-01  0.10155808539E+00 -0.62216772655E-01  0.89006669494E+00  0.88000000000E+00 0.  1.
        -11    1    4    4    0    0  0.69751810313E-01 -0.86609210130E-01  0.54984861344E-01  0.12405670647E+00  0.51100000000E-03 0.  1.
         11    1    4    4    0    0 -0.32868693806E-02 -0.15493003791E-01 -0.45523578069E-02  0.16487017905E-01  0.51100000000E-03 0. -1.
</event>
<event>
 8    1  0.2959109E+004  0.1043930E+01  0.7957747E-01            NaN
         13   -1    0    0    0    0  0.00000000000E+00  0.00000000000E+00  0.74505805969E-08  0.10566000000E+00  0.10566000000E+00 0.  1.
     999900   -1    0    0    0    0 -0.00000000000E+00 -0.00000000000E+00 -0.74505805969E-08  0.93827000000E+00  0.93827000000E+00 0. -1.
     999902    2    1    2    0    0 -0.14671238643E-02 -0.13566607218E-02 -0.13912558047E-01  0.10298746718E+01  0.10297787565E+01 0.  0.
     999903    2    3    3    0    0 -0.54177213553E-01  0.24804854501E-01  0.11638279094E+00  0.13833686751E+00  0.45184993186E-01 0.  0.
         14    1    1    2    0    0  0.14671238643E-02  0.13566607218E-02  0.13912558047E-01  0.14055328248E-01  0.00000000000E+00 0.  1.
     999901    1    3    3    0    0  0.52710089689E-01 -0.26161515222E-01 -0.13029534899E+00  0.89153780425E+00  0.88000000000E+00 0. -1.
        -11    1    4    4    0    0 -0.25206654667E-01  0.55144234387E-02  0.12302861214E-01  0.28590309904E-01  0.51100000000E-03 0. -1.
         11    1    4    4    0    0 -0.28970558886E-01  0.19290431062E-01  0.10407992973E+00  0.10974655760E+00  0.51100000000E-03 0.  1.
</event>
<event>
 8    1  0.2959109E+004  0.1043930E+01  0.7957747E-01            NaN
         13   -1    0    0    0    0  0.00000000000E+00  0.00000000000E+00  0.74505805969E-08  0.10566000000E+00  0.10566000000E+00 0.  1.
     999900   -1    0    0    0    0 -0.00000000000E+00 -0.00000000000E+00 -0.74505805969E-08  0.93827000000E+00  0.93827000000E+00 0. -1.
     999902    2    1    2    0    0 -0.37572682229E-02  0.33990191456E-02 -0.12955282857E-01  0.10300192218E+01  0.10299252825E+01 0.  0.
     999903    2    3    3    0    0  0.54145012846E-01  0.97333544333E-01 -0.73957790937E-01  0.14103234050E+00  0.44887247153E-01 0.  0.
         14    1    1    2    0    0  0.37572682229E-02 -0.33990191456E-02  0.12955282857E-01  0.13910778179E-01  0.00000000000E+00 0.  1.
     999901    1    3    3    0    0 -0.57902281069E-01 -0.93934525188E-01  0.61002508081E-01  0.88898688132E+00  0.88000000000E+00 0.  1.
        -11    1    4    4    0    0  0.29390965427E-01  0.69610092066E-01 -0.71097880721E-01  0.10375241457E+00  0.51100000000E-03 0. -1.
         11    1    4    4    0    0  0.24754047420E-01  0.27723452267E-01 -0.28599102165E-02  0.37279925922E-01  0.51100000000E-03 0.  1.
</event>
<event>
 8    1  0.2959109E+004  0.1043930E+01  0.7957747E-01            NaN
         13   -1    0    0    0    0  0.00000000000E+00  0.00000000000E+00  0.74505805969E-08  0.10566000000E+00  0.10566000000E+00 0. -1.
     999900   -1    0    0    0    0 -0.00000000000E+00 -0.00000000000E+00 -0.74505805969E-08  0.93827000000E+00  0.93827000000E+00 0. -1.
     999902    2    1    2    0    0 -0.10283986062E-02  0.11897838217E-01 -0.65931653929E-02  0.10302886662E+01  0.10301983545E+01 0.  0.
     999903    2    3    3    0    0  0.28754224697E-01  0.11854536641E+00  0.55122612510E-01  0.14120512842E+00  0.44950823648E-01 0.  0.
         14    1    1    2    0    0  0.10283986062E-02 -0.11897838217E-01  0.65931653929E-02  0.13641333799E-01  0.00000000000E+00 0. -1.
     999901    1    3    3    0    0 -0.29782623303E-01 -0.10664752819E+00 -0.61715777903E-01  0.88908353779E+00  0.88000000000E+00 0. -1.
        -11    1    4    4    0    0  0.12896683040E-01  0.53904147295E-01  0.49662348588E-01  0.74421714018E-01  0.51100000000E-03 0.  1.
         11    1    4    4    0    0  0.15857541657E-01  0.64641219110E-01  0.54602639217E-02  0.66783414397E-01  0.51100000000E-03 0. -1.
</event>
<event>
 8    1  0.2959109E+004  0.1043930E+01  0.7957747E-01            NaN
         13   -1    0    0    0    0  0.00000000000E+00  0.00000000000E+00  0.74505805969E-08  0.10566000000E+00  0.10566000000E+00 0.  1.
     999900   -1    0    0    0    0 -0.00000000000E+00 -0.00000000000E+00 -0.74505805969E-08  0.93827000000E+00  0.93827000000E+00 0.  1.
     999902    2    1    2    0    0 -0.96231555034E-02 -0.42870562674E-02 -0.88943977083E-02  0.10301425316E+01  0.10300502615E+01 0.  0.
     999903    2    3    3    0    0  0.11340264684E+00  0.44352719703E-01  0.46894961231E-01  0.13850716423E+00  0.46451836327E-01 0.  0.
         14    1    1    2    0    0  0.96231555034E-02  0.42870562674E-02  0.88943977083E-02  0.13787468364E-01  0.00000000000E+00 0.  1.
     999901    1    3    3    0    0 -0.12302580234E+00 -0.48639775970E-01 -0.55789358940E-01  0.89163536741E+00  0.88000000000E+00 0.  1.
        -11    1    4    4    0    0  0.62188291951E-01  0.47418498162E-01  0.35810955201E-01  0.86015017625E-01  0.51100000000E-03 0. -1.
         11    1    4    4    0    0  0.51214354886E-01 -0.30657784592E-02  0.11084006031E-01  0.52492146600E-01  0.51100000000E-03 0.  1.
</event>
<event>
 8    1  0.2959109E+004  0.1043930E+01  0.7957747E-01            NaN
         13   -1    0    0    0    0  0.00000000000E+00  0.00000000000E+00  0.74505805969E-08  0.10566000000E+00  0.10566000000E+00 0.  1.
     999900   -1    0    0    0    0 -0.00000000000E+00 -0.00000000000E+00 -0.74505805969E-08  0.93827000000E+00  0.93827000000E+00 0. -1.
     999902    2    1    2    0    0  0.51336589612E-03 -0.18638957073E-02 -0.14255387545E-01  0.10295441137E+01  0.10294436013E+01 0.  0.
     999903    2    3    3    0    0  0.30872929102E-01 -0.12885827342E+00 -0.36550776079E-02  0.13984661360E+00  0.44565943975E-01 0.  0.
         14    1    1    2    0    0 -0.51336589612E-03  0.18638957073E-02  0.14255387545E-01  0.14385886340E-01  0.00000000000E+00 0.  1.
     999901    1    3    3    0    0 -0.30359563206E-01  0.12699437771E+00 -0.10600309937E-01  0.88969750006E+00  0.88000000000E+00 0. -1.
        -11    1    4    4    0    0  0.39010401458E-01 -0.80676248024E-01  0.68059692221E-02  0.89872413761E-01  0.51100000000E-03 0. -1.
         11    1    4    4    0    0 -0.81374723554E-02 -0.48182025394E-01 -0.10461046830E-01  0.49974199836E-01  0.51100000000E-03 0.  1.
</event>
<event>
 8    1  0.2959109E+004  0.1043930E+01  0.7957747E-01            NaN
         13   -1    0    0    0    0  0.00000000000E+00  0.00000000000E+00  0.74505805969E-08  0.10566000000E+00  0.10566000000E+00 0. -1.
     999900   -1    0    0    0    0 -0.00000000000E+00 -0.00000000000E+00 -0.74505805969E-08  0.93827000000E+00  0.93827000000E+00 0.  1.
     999902    2    1    2    0    0  0.10979402979E-01  0.84690344769E-02  0.78266318291E-02  0.10280074374E+01  0.10278841196E+01 0.  0.
     999903    2    3    3    0    0  0.10753571148E-01 -0.12233814562E+00 -0.39213842776E-01  0.13709589541E+00  0.46640089034E-01 0.  0.
         14    1    1    2    0    0 -0.10979402979E-01 -0.84690344769E-02 -0.78266318291E-02  0.15922562624E-01  0.00000000000E+00 0. -1.
     999901    1    3    3    0    0  0.22583183079E-03  0.13080718010E+00  0.47040474605E-01  0.89091154197E+00  0.88000000000E+00 0. -1.
        -11    1    4    4    0    0 -0.54214334948E-02 -0.51035721045E-01  0.51344277976E-02  0.51581588125E-01  0.51100000000E-03 0.  1.
         11    1    4    4    0    0  0.16175004643E-01 -0.71302424577E-01 -0.44348270573E-01  0.85514307280E-01  0.51100000000E-03 0. -1.
</event>
<event>
 8    1  0.2959109E+004  0.1043930E+01  0.7957747E-01            NaN
         13   -1    0    0    0    0  0.00000000000E+00  0.00000000000E+00  0.74505805969E-08  0.10566000000E+00  0.10566000000E+00 0. -1.
     999900   -1    0    0    0    0 -0.00000000000E+00 -0.00000000000E+00 -0.74505805969E-08  0.93827000000E+00  0.93827000000E+00 0.  1.
     999902    2    1    2    0    0  0.11664756052E-01 -0.84875420405E-03  0.22375476847E-02  0.10320222909E+01  0.10319535916E+01 0.  0.
     999903    2    3    3    0    0  0.78830074508E-01  0.95392163807E-01  0.55437729968E-01  0.14263837280E+00  0.44255145779E-01 0.  0.
         14    1    1    2    0    0 -0.11664756052E-01  0.84875420405E-03 -0.22375476847E-02  0.11907709145E-01  0.00000000000E+00 0.  1.
     999901    1    3    3    0    0 -0.67165318456E-01 -0.96240918011E-01 -0.53200182283E-01  0.88938391806E+00  0.88000000000E+00 0.  1.
        -11    1    4    4    0    0  0.33371881703E-01  0.71033421747E-01  0.23300302150E-01  0.81869375805E-01  0.51100000000E-03 0.  1.
         11    1    4    4    0    0  0.45458192804E-01  0.24358742060E-01  0.32137427817E-01  0.60768996993E-01  0.51100000000E-03 0. -1.
</event>
<event>
 8    1  0.2959109E+004  0.1043930E+01  0.7957747E-01            NaN
         13   -1    0    0    0    0  0.00000000000E+00  0.00000000000E+00  0.74505805969E-08  0.10566000000E+00  0.10566000000E+00 0.  1.
     999900   -1    0    0    0    0 -0.00000000000E+00 -0.00000000000E+00 -0.74505805969E-08  0.93827000000E+00  0.93827000000E+00 0. -1.
     999902    2    1    2    0    0  0.12141091676E-01  0.39808352949E-02 -0.51466968496E-02  0.10301553260E+01  0.10300632281E+01 0.  0.
     999903    2    3    3    0    0  0.62580379766E-02  0.13280993365E+00 -0.88556683180E-02  0.14074804952E+00  0.45320514840E-01 0.  0.
         14    1    1    2    0    0 -0.12141091676E-01 -0.39808352949E-02  0.51466968496E-02  0.13774674050E-01  0.00000000000E+00 0. -1.
     999901    1    3    3    0    0  0.58830536989E-02 -0.12882909836E+00  0.37089714684E-02  0.88940727643E+00  0.88000000000E+00 0.  1.
        -11    1    4    4    0    0  0.14493686803E-01  0.11824175266E+00 -0.19776830803E-01  0.12075828414E+00  0.51100000000E-03 0. -1.
         11    1    4    4    0    0 -0.82356488261E-02  0.14568180989E-01  0.10921162485E-01  0.19989765380E-01  0.51100000000E-03 0.  1.
</event>
<event>
 8    1  0.2959109E+004  0.1043930E+01  0.7957747E-01            NaN
         13   -1    0    0    0    0  0.00000000000E+00  0.00000000000E+00  0.74505805969E-08  0.10566000000E+00  0.10566000000E+00 0. -1.
     999900   -1    0    0    0    0 -0.00000000000E+00 -0.00000000000E+00 -0.74505805969E-08  0.93827000000E+00  0.93827000000E+00 0.  1.
     999902    2    1    2    0    0 -0.11010082731E-01 -0.54553509204E-02 -0.62940138884E-02  0.10301242988E+01  0.10300317828E+01 0.  0.
     999903    2    3    3    0    0  0.66905776664E-01  0.10196968330E-01  0.11220024079E+00  0.13863298383E+00  0.45275258766E-01 0.  0.
         14    1    1    2    0    0  0.11010082731E-01  0.54553509204E-02  0.62940138884E-02  0.13805701222E-01  0.00000000000E+00 0. -1.
     999901    1    3    3    0    0 -0.77915859395E-01 -0.15652319250E-01 -0.11849425468E+00  0.89149131495E+00  0.88000000000E+00 0.  1.
        -11    1    4    4    0    0  0.61800448748E-01  0.17510649996E-01  0.68013813318E-01  0.93552435840E-01  0.51100000000E-03 0. -1.
         11    1    4    4    0    0  0.51053279161E-02 -0.73136816659E-02  0.44186427475E-01  0.45080547985E-01  0.51100000000E-03 0.  1.
</event>
<event>
 8    1  0.2959109E+004  0.1043930E+01  0.7957747E-01            NaN
         13   -1    0    0    0    0  0.00000000000E+00  0.00000000000E+00  0.74505805969E-08  0.10566000000E+00  0.10566000000E+00 0.  1.
     999900   -1    0    0    0    0 -0.00000000000E+00 -0.00000000000E+00 -0.74505805969E-08  0.93827000000E+00  0.93827000000E+00 0. -1.
     999902    2    1    2    0    0 -0.14763277585E-02  0.12824778533E-01  0.44302493455E-02  0.10302814983E+01  0.10301910911E+01 0.  0.
     999903    2    3    3    0    0  0.92237104958E-01 -0.71835258176E-01  0.61846133947E-01  0.13941331894E+00  0.44081077164E-01 0.  0.
         14    1    1    2    0    0  0.14763277585E-02 -0.12824778533E-01 -0.44302493455E-02  0.13648501651E-01  0.00000000000E+00 0. -1.
     999901    1    3    3    0    0 -0.93713432717E-01  0.84660036709E-01 -0.57415884602E-01  0.89086817941E+00  0.88000000000E+00 0. -1.
        -11    1    4    4    0    0  0.17034890444E-01 -0.38909165207E-01  0.26234615248E-01  0.49926213433E-01  0.51100000000E-03 0. -1.
         11    1    4    4    0    0  0.75202214514E-01 -0.32926092969E-01  0.35611518699E-01  0.89487105502E-01  0.51100000000E-03 0.  1.
</event>
<event>
 8    1  0.2959109E+004  0.1043930E+01  0.7957747E-01            NaN
         13   -1    0    0    0    0  0.00000000000E+00  0.00000000000E+00  0.74505805969E-08  0.10566000000E+00  0.10566000000E+00 0.  1.
     999900   -1    0    0    0    0 -0.00000000000E+00 -0.00000000000E+00 -0.74505805969E-08  0.93827000000E+00  0.93827000000E+00 0. -1.
     999902    2    1    2    0    0  0.63576817723E-02  0.82513316458E-02  0.10259108672E-01  0.10293096750E+01  0.10292058362E+01 0.  0.
     999903    2    3    3    0    0 -0.36361775707E-01 -0.55220512053E-01 -0.11181184922E+00  0.13759506500E+00  0.45376520364E-01 0.  0.
         14    1    1    2    0    0 -0.63576817723E-02 -0.82513316458E-02 -0.10259108672E-01  0.14620324968E-01  0.00000000000E+00 0.  1.
     999901    1    3    3    0    0  0.42719457480E-01  0.63471843698E-01  0.12207095790E+00  0.89171461004E+00  0.88000000000E+00 0.  1.
        -11    1    4    4    0    0 -0.42935062284E-01 -0.37343860299E-01 -0.61461597178E-01  0.83760208476E-01  0.51100000000E-03 0.  1.
         11    1    4    4    0    0  0.65732865765E-02 -0.17876651754E-01 -0.50350252046E-01  0.53834856519E-01  0.51100000000E-03 0. -1.
</event>
<event>
 8    1  0.2959109E+004  0.1043930E+01  0.7957747E-01            NaN
         13   -1    0    0    0    0  0.00000000000E+00  0.00000000000E+00  0.74505805969E-08  0.10566000000E+00  0.10566000000E+00 0.  1.
     999900   -1    0    0    0    0 -0.00000000000E+00 -0.00000000000E+00 -0.74505805969E-08  0.93827000000E+00  0.93827000000E+00 0.  1.
     999902    2    1    2    0    0 -0.11062835100E-01 -0.21247142994E-01  0.12204894763E-01  0.10170453043E+01  0.10166899056E+01 0.  0.
     999903    2    3    3    0    0 -0.21077469454E-01  0.43083587133E-01 -0.10800273845E+00  0.12649007817E+00  0.45107573242E-01 0.  0.
         14    1    1    2    0    0  0.11062835100E-01  0.21247142994E-01 -0.12204894763E-01  0.26884695684E-01  0.00000000000E+00 0. -1.
     999901    1    3    3    0    0  0.10014634353E-01 -0.64330730126E-01  0.12020763321E+00  0.89055522615E+00  0.88000000000E+00 0. -1.
        -11    1    4    4    0    0 -0.69122193922E-02  0.74143409767E-02  0.16780639229E-02  0.10287285773E-01  0.51100000000E-03 0. -1.
         11    1    4    4    0    0 -0.14165250061E-01  0.35669246156E-01 -0.10968080237E+00  0.11620279239E+00  0.51100000000E-03 0.  1.
</event>
<event>
 8    1  0.2959109E+004  0.1043930E+01  0.7957747E-01            NaN
         13   -1    0    0    0    0  0.00000000000E+00  0.00000000000E+00  0.74505805969E-08  0.10566000000E+00  0.10566000000E+00 0. -1.
     999900   -1    0    0    0    0 -0.00000000000E+00 -0.00000000000E+00 -0.74505805969E-08  0.93827000000E+00  0.93827000000E+00 0. -1.
     999902    2    1    2    0    0 -0.13127043694E-01  0.11139130874E-02 -0.31789784341E-02  0.10303776577E+01  0.10302885283E+01 0.  0.
     999903    2    3    3    0    0  0.82873433006E-01  0.92155542643E-01 -0.45613148469E-01  0.13947624415E+00  0.44859931242E-01 0.  0.
         14    1    1    2    0    0  0.13127043694E-01 -0.11139130874E-02  0.31789784341E-02  0.13552342322E-01  0.00000000000E+00 0.  1.
     999901    1    3    3    0    0 -0.96000476700E-01 -0.91041629556E-01  0.42434170035E-01  0.89090141353E+00  0.88000000000E+00 0.  1.
        -11    1    4    4    0    0  0.62863218073E-01  0.87860088457E-01 -0.49169116920E-01  0.11869727255E+00  0.51100000000E-03 0. -1.
         11    1    4    4    0    0  0.20010214933E-01  0.42954541857E-02  0.35559684503E-02  0.20778971605E-01  0.51100000000E-03 0.  1.
</event>
<event>
 8    1  0.2959109E+004  0.1043930E+01  0.7957747E-01            NaN
         13   -1    0    0    0    0  0.00000000000E+00  0.00000000000E+00  0.74505805969E-08  0.10566000000E+00  0.10566000000E+00 0. -1.
     999900   -1    0    0    0    0 -0.00000000000E+00 -0.00000000000E+00 -0.74505805969E-08  0.93827000000E+00  0.93827000000E+00 0.  1.
     999902    2    1    2    0    0 -0.76464445455E-02 -0.38112182376E-02  0.11268127511E-01  0.10297891303E+01  0.10296920358E+01 0.  0.
     999903    2    3    3    0    0 -0.11842029330E+00  0.59857875090E-01 -0.10557746896E-01  0.14029434795E+00  0.44325015193E-01 0.  0.
         14    1    1    2    0    0  0.76464445455E-02  0.38112182376E-02 -0.11268127511E-01  0.14140869713E-01  0.00000000000E+00 0.  1.
     999901    1    3    3    0    0  0.11077384875E+00 -0.63669093328E-01  0.21825874406E-01  0.88949478234E+00  0.88000000000E+00 0.  1.
        -11    1    4    4    0    0 -0.10619574222E-01  0.23824682387E-01  0.49153430608E-03  0.26093937504E-01  0.51100000000E-03 0. -1.
         11    1    4    4    0    0 -0.10780071908E+00  0.36033192703E-01 -0.11049281202E-01  0.11420041045E+00  0.51100000000E-03 0.  1.
</event>
<event>
 8    1  0.2959109E+004  0.1043930E+01  0.7957747E-01            NaN
         13   -1    0    0    0    0  0.00000000000E+00  0.00000000000E+00  0.74505805969E-08  0.10566000000E+00  0.10566000000E+00 0. -1.
     999900   -1    0    0    0    0 -0.00000000000E+00 -0.00000000000E+00 -0.74505805969E-08  0.93827000000E+00  0.93827000000E+00 0. -1.
     999902    2    1    2    0    0  0.37380323544E-02  0.16442147763E-01 -0.13209848469E-02  0.10270166293E+01  0.10268773513E+01 0.  0.
     999903    2    3    3    0    0 -0.66243336282E-01 -0.10852549625E+00 -0.12381190551E-01  0.13536836219E+00  0.44780985524E-01 0.  0.
         14    1    1    2    0    0 -0.37380323544E-02 -0.16442147763E-01  0.13209848469E-02  0.16913370744E-01  0.00000000000E+00 0.  1.
     999901    1    3    3    0    0  0.69981368636E-01  0.12496764402E+00  0.11060205704E-01  0.89164826706E+00  0.88000000000E+00 0. -1.
        -11    1    4    4    0    0 -0.22589438399E-01 -0.63546568434E-02 -0.51229269203E-02  0.24024360387E-01  0.51100000000E-03 0. -1.
         11    1    4    4    0    0 -0.43653897882E-01 -0.10217083941E+00 -0.72582636303E-02  0.11134400181E+00  0.51100000000E-03 0.  1.
</event>
<event>
 8    1  0.2959109E+004  0.1043930E+01  0.7957747E-01            NaN
         13   -1    0    0    0    0  0.00000000000E+00  0.00000000000E+00  0.74505805969E-08  0.10566000000E+00  0.10566000000E+00 0.  1.
     999900   -1    0    0    0    0 -0.00000000000E+00 -0.00000000000E+00 -0.74505805969E-08  0.93827000000E+00  0.93827000000E+00 0.  1.
     999902    2    1    2    0    0 -0.36457181431E-02  0.19531431446E-02 -0.12829843066E-01  0.10304499814E+01  0.10303618070E+01 0.  0.
     999903    2    3    3    0    0  0.43553407013E-01  0.32684637298E-01  0.11937819631E+00  0.13879357456E+00  0.45247296136E-01 0.  0.
         14    1    1    2    0    0  0.36457181431E-02 -0.19531431446E-02  0.12829843066E-01  0.13480018621E-01  0.00000000000E+00 0.  1.
     999901    1    3    3    0    0 -0.47199125156E-01 -0.30731494154E-01 -0.13220803937E+00  0.89165640682E+00  0.88000000000E+00 0.  1.
        -11    1    4    4    0    0 -0.20388082572E-02  0.21544427351E-01  0.55125593675E-01  0.59223401524E-01  0.51100000000E-03 0. -1.
         11    1    4    4    0    0  0.45592215270E-01  0.11140209947E-01  0.64252602632E-01  0.79570173035E-01  0.51100000000E-03 0.  1.
</event>
<event>
 8    1  0.2959109E+004  0.1043930E+01  0.7957747E-01            NaN
         13   -1    0    0    0    0  0.00000000000E+00  0.00000000000E+00  0.74505805969E-08  0.10566000000E+00  0.10566000000E+00 0. -1.
     999900   -1    0    0    0    0 -0.00000000000E+00 -0.00000000000E+00 -0.74505805969E-08  0.93827000000E+00  0.93827000000E+00 0. -1.
     999902    2    1    2    0    0 -0.24061301605E-02  0.49139579104E-02  0.11953364710E-01  0.10307839218E+01  0.10307000893E+01 0.  0.
     999903    2    3    3    0    0  0.61764650622E-01 -0.10347084444E+00  0.51980382048E-01  0.14091465239E+00  0.51321451896E-01 0.  0.
         14    1    1    2    0    0  0.24061301605E-02 -0.49139579104E-02 -0.11953364710E-01  0.13146078221E-01  0.00000000000E+00 0.  1.
     999901    1    3    3    0    0 -0.64170780783E-01  0.10838480235E+00 -0.40027017338E-01  0.88986926939E+00  0.88000000000E+00 0.  1.
        -11    1    4    4    0    0  0.24908875754E-01 -0.23033845531E-01  0.38659262119E-01  0.51437435783E-01  0.51100000000E-03 0.  1.
         11    1    4    4    0    0  0.36855774868E-01 -0.80436998909E-01  0.13321119928E-01  0.89477216607E-01  0.51100000000E-03 0. -1.
</event>
<event>
 8    1  0.2959109E+004  0.1043930E+01  0.7957747E-01            NaN
         13   -1    0    0    0    0  0.00000000000E+00  0.00000000000E+00  0.74505805969E-08  0.10566000000E+00  0.10566000000E+00 0.  1.
     999900   -1    0    0    0    0 -0.00000000000E+00 -0.00000000000E+00 -0.74505805969E-08  0.93827000000E+00  0.93827000000E+00 0.  1.
     999902    2    1    2    0    0 -0.10794851227E-01  0.64303257251E-02 -0.67556199413E-02  0.10296640860E+01  0.10295652547E+01 0.  0.
     999903    2    3    3    0    0 -0.35136071824E-01 -0.11163929442E+00 -0.61624775509E-01  0.13975198108E+00  0.45112389190E-01 0.  0.
         14    1    1    2    0    0  0.10794851227E-01 -0.64303257251E-02  0.67556199413E-02  0.14265914017E-01  0.00000000000E+00 0.  1.
     999901    1    3    3    0    0  0.24341220597E-01  0.11806962014E+00  0.54869155568E-01  0.88991210490E+00  0.88000000000E+00 0.  1.
        -11    1    4    4    0    0  0.38494858293E-02 -0.62093244462E-01 -0.34239950614E-01  0.71014258343E-01  0.51100000000E-03 0. -1.
         11    1    4    4    0    0 -0.38985557654E-01 -0.49546049953E-01 -0.27384824895E-01  0.68737722737E-01  0.51100000000E-03 0.  1.
</event>
<event>
 8    1  0.2959109E+004  0.1043930E+01  0.7957747E-01            NaN
         13   -1    0    0    0    0  0.00000000000E+00  0.00000000000E+00  0.74505805969E-08  0.10566000000E+00  0.10566000000E+00 0. -1.
     999900   -1    0    0    0    0 -0.00000000000E+00 -0.00000000000E+00 -0.74505805969E-08  0.93827000000E+00  0.93827000000E+00 0.  1.
     999902    2    1    2    0    0  0.41277411325E-03 -0.17258314923E-02  0.16702582587E-01  0.10271334187E+01  0.10269960734E+01 0.  0.
     999903    2    3    3    0    0  0.11221138076E+00  0.63433567615E-01  0.18108512252E-01  0.13766916855E+00  0.44829346204E-01 0.  0.
         14    1    1    2    0    0 -0.41277411325E-03  0.17258314923E-02 -0.16702582587E-01  0.16796581256E-01  0.00000000000E+00 0.  1.
     999901    1    3    3    0    0 -0.11179860664E+00 -0.65159399108E-01 -0.14059296647E-02  0.88946425020E+00  0.88000000000E+00 0.  1.
        -11    1    4    4    0    0  0.88021355965E-01  0.26031264683E-01  0.93072023071E-02  0.92261969319E-01  0.51100000000E-03 0. -1.
         11    1    4    4    0    0  0.24190024791E-01  0.37402302932E-01  0.88013099450E-02  0.45407199228E-01  0.51100000000E-03 0.  1.
</event>
<event>
 8    1  0.2959109E+004  0.1043930E+01  0.7957747E-01            NaN
         13   -1    0    0    0    0  0.00000000000E+00  0.00000000000E+00  0.74505805969E-08  0.10566000000E+00  0.10566000000E+00 0.  1.
     999900   -1    0    0    0    0 -0.00000000000E+00 -0.00000000000E+00 -0.74505805969E-08  0.93827000000E+00  0.93827000000E+00 0. -1.
     999902    2    1    2    0    0 -0.47939401404E-02  0.12289000484E-01 -0.47669384403E-02  0.10299041276E+01  0.10298086166E+01 0.  0.
     999903    2    3    3    0    0 -0.12943336573E+00  0.10249560841E-01 -0.30768069506E-01  0.14073867361E+00  0.44750983068E-01 0.  0.
         14    1    1    2    0    0  0.47939401404E-02 -0.12289000484E-01  0.47669384403E-02  0.14025872417E-01  0.00000000000E+00 0. -1.
     999901    1    3    3    0    0  0.12463942559E+00  0.20394396430E-02  0.26001131066E-01  0.88916545398E+00  0.88000000000E+00 0. -1.
        -11    1    4    4    0    0 -0.69776361488E-01 -0.99893433967E-03  0.55309020664E-02  0.70004217665E-01  0.51100000000E-03 0. -1.
         11    1    4    4    0    0 -0.59657004244E-01  0.11248495181E-01 -0.36298971572E-01  0.70734455942E-01  0.51100000000E-03 0.  1.
</event>
<event>
 8    1  0.2959109E+004  0.1043930E+01  0.7957747E-01            NaN
         13   -1    0    0    0    0  0.00000000000E+00  0.00000000000E+00  0.74505805969E-08  0.10566000000E+00  0.10566000000E+00 0.  1.
     999900   -1    0    0    0    0 -0.00000000000E+00 -0.00000000000E+00 -0.74505805969E-08  0.93827000000E+00  0.93827000000E+00 0.  1.
     999902    2    1    2    0    0 -0.12946468153E-02 -0.38980551049E-02  0.13470834648E-01  0.10298468778E+01  0.10297505802E+01 0.  0.
     999903    2    3    3    0    0 -0.42182567209E-01  0.60491950567E-01  0.11165127409E+00  0.14110771837E+00  0.44796608326E-01 0.  0.
         14    1    1    2    0    0  0.12946468153E-02  0.38980551049E-02 -0.13470834648E-01  0.14083122171E-01  0.00000000000E+00 0. -1.
     999901    1    3    3    0    0  0.40887920394E-01 -0.64390005672E-01 -0.98180439445E-01  0.88873915946E+00  0.88000000000E+00 0.  1.
        -11    1    4    4    0    0  0.33722035345E-02  0.19397161432E-01  0.51709103947E-01  0.55332758654E-01  0.51100000000E-03 0.  1.
         11    1    4    4    0    0 -0.45554770744E-01  0.41094789135E-01  0.59942170146E-01  0.85774959717E-01  0.51100000000E-03 0. -1.
</event>
<event>
 8    1  0.2959109E+004  0.1043930E+01  0.7957747E-01            NaN
         13   -1    0    0    0    0  0.00000000000E+00  0.00000000000E+00  0.74505805969E-08  0.10566000000E+00  0.10566000000E+00 0. -1.
     999900   -1    0    0    0    0 -0.00000000000E+00 -0.00000000000E+00 -0.74505805969E-08  0.93827000000E+00  0.93827000000E+00 0. -1.
     999902    2    1    2    0    0 -0.10151730017E-01  0.72750285517E-02 -0.39554018260E-02  0.10308292799E+01  0.10307460286E+01 0.  0.
     999903    2    3    3    0    0 -0.11682132003E+00  0.39251698815E-01  0.53127072676E-01  0.14197646997E+00  0.46334819546E-01 0.  0.
         14    1    1    2    0    0  0.10151730017E-01 -0.72750285517E-02  0.39554018260E-02  0.13100720071E-01  0.00000000000E+00 0. -1.
     999901    1    3    3    0    0  0.10666959001E+00 -0.31976670263E-01 -0.57082474502E-01  0.88885280996E+00  0.88000000000E+00 0. -1.
        -11    1    4    4    0    0 -0.40476378984E-01  0.22344278566E-01 -0.20345010268E-02  0.46281792918E-01  0.51100000000E-03 0. -1.
         11    1    4    4    0    0 -0.76344941042E-01  0.16907420248E-01  0.55161573703E-01  0.95694677054E-01  0.51100000000E-03 0.  1.
</event>
<event>
 8    1  0.2959109E+004  0.1043930E+01  0.7957747E-01            NaN
         13   -1    0    0    0    0  0.00000000000E+00  0.00000000000E+00  0.74505805969E-08  0.10566000000E+00  0.10566000000E+00 0.  1.
     999900   -1    0    0    0    0 -0.00000000000E+00 -0.00000000000E+00 -0.74505805969E-08  0.93827000000E+00  0.93827000000E+00 0.  1.
     999902    2    1    2    0    0  0.59347055821E-02 -0.12254800500E-01  0.58086937265E-03  0.10303014170E+01  0.10302112752E+01 0.  0.
     999903    2    3    3    0    0  0.68066503349E-01  0.63540903354E-01 -0.93943211820E-01  0.13982954717E+00  0.45348428167E-01 0.  0.
         14    1    1    2    0    0 -0.59347055821E-02  0.12254800500E-01 -0.58086937265E-03  0.13628583011E-01  0.00000000000E+00 0. -1.
     999901    1    3    3    0    0 -0.62131797767E-01 -0.75795703854E-01  0.94524081193E-01  0.89047186982E+00  0.88000000000E+00 0. -1.
        -11    1    4    4    0    0  0.21101760013E-01  0.13174690385E-01 -0.20107605462E-02  0.24963193332E-01  0.51100000000E-03 0. -1.
         11    1    4    4    0    0  0.46964743336E-01  0.50366212969E-01 -0.91932451274E-01  0.11486635384E+00  0.51100000000E-03 0.  1.
</event>
<event>
 8    1  0.2959109E+004  0.1043930E+01  0.7957747E-01            NaN
         13   -1    0    0    0    0  0.00000000000E+00  0.00000000000E+00  0.74505805969E-08  0.10566000000E+00  0.10566000000E+00 0. -1.
     999900   -1    0    0    0    0 -0.00000000000E+00 -0.00000000000E+00 -0.74505805969E-08  0.93827000000E+00  0.93827000000E+00 0.  1.
     999902    2    1    2    0    0  0.19602570966E-03 -0.10286624792E-01 -0.83893188418E-02  0.10306546941E+01  0.10305691946E+01 0.  0.
     999903    2    3    3    0    0  0.24583495264E-01  0.12984193774E+00 -0.45326109492E-02  0.13922570822E+00  0.43588716790E-01 0.  0.
         14    1    1    2    0    0 -0.19602570966E-03  0.10286624792E-01  0.83893188418E-02  0.13275305884E-01  0.00000000000E+00 0. -1.
     999901    1    3    3    0    0 -0.24387469555E-01 -0.14012856253E+00 -0.38567078926E-02  0.89142898590E+00  0.88000000000E+00 0.  1.
        -11    1    4    4    0    0  0.10678895632E-01  0.72243052840E-01 -0.23970845362E-01  0.76863255486E-01  0.51100000000E-03 0. -1.
         11    1    4    4    0    0  0.13904599632E-01  0.57598884896E-01  0.19438234413E-01  0.62362452729E-01  0.51100000000E-03 0.  1.
</event>
<event>
 8    1  0.2959109E+004  0.1043930E+01  0.7957747E-01            NaN
         13   -1    0    0    0    0  0.00000000000E+00  0.00000000000E+00  0.74505805969E-08  0.10566000000E+00  0.10566000000E+00 0.  1.
     999900   -1    0    0    0    0 -0.00000000000E+00 -0.00000000000E+00 -0.74505805969E-08  0.93827000000E+00  0.93827000000E+00 0. -1.
     999902    2    1    2    0    0  0.10250038815E-01 -0.50851106726E-02  0.11528938510E-01  0.10276869070E+01  0.10275585340E+01 0.  0.
     999903    2    3    3    0    0 -0.75830052392E-01 -0.46622185039E-01  0.96151692910E-01  0.13847595274E+00  0.44795272688E-01 0.  0.
         14    1    1    2    0    0 -0.10250038815E-01  0.50851106726E-02 -0.11528938510E-01  0.16243092976E-01  0.00000000000E+00 0. -1.
     999901    1    3    3    0    0  0.86080091207E-01  0.41537074367E-01 -0.84622754399E-01  0.88921095428E+00  0.88000000000E+00 0. -1.
        -11    1    4    4    0    0 -0.17675882017E-01  0.55195042925E-02  0.33757119265E-01  0.38505921036E-01  0.51100000000E-03 0.  1.
         11    1    4    4    0    0 -0.58154170375E-01 -0.52141689332E-01  0.62394573644E-01  0.99970031708E-01  0.51100000000E-03 0. -1.
</event>
<event>
 8    1  0.2959109E+004  0.1043930E+01  0.7957747E-01            NaN
         13   -1    0    0    0    0  0.00000000000E+00  0.00000000000E+00  0.74505805969E-08  0.10566000000E+00  0.10566000000E+00 0.  1.
     999900   -1    0    0    0    0 -0.00000000000E+00 -0.00000000000E+00 -0.74505805969E-08  0.93827000000E+00  0.93827000000E+00 0.  1.
     999902    2    1    2    0    0 -0.52515469562E-02  0.12442184624E-01 -0.86873170414E-02  0.10278720991E+01  0.10277466594E+01 0.  0.
     999903    2    3    3    0    0  0.16786210881E-01  0.20237695534E-01  0.12733665794E+00  0.13711458186E+00  0.43525198549E-01 0.  0.
         14    1    1    2    0    0  0.52515469562E-02 -0.12442184624E-01  0.86873170414E-02  0.16057900891E-01  0.00000000000E+00 0. -1.
     999901    1    3    3    0    0 -0.22037757837E-01 -0.77955109103E-02 -0.13602397498E+00  0.89075751725E+00  0.88000000000E+00 0.  1.
        -11    1    4    4    0    0  0.21019312827E-01 -0.52580548843E-02  0.34469949783E-01  0.40717283946E-01  0.51100000000E-03 0. -1.
         11    1    4    4    0    0 -0.42331019459E-02  0.25495750418E-01  0.92866708154E-01  0.96397297918E-01  0.51100000000E-03 0.  1.
</event>
<event>
 8    1  0.2959109E+004  0.1043930E+01  0.7957747E-01            NaN
         13   -1    0    0    0    0  0.00000000000E+00  0.00000000000E+00  0.74505805969E-08  0.10566000000E+00  0.10566000000E+00 0. -1.
     999900   -1    0    0    0    0 -0.00000000000E+00 -0.00000000000E+00 -0.74505805969E-08  0.93827000000E+00  0.93827000000E+00 0.  1.
     999902    2    1    2    0    0  0.24479738993E-02  0.68371043717E-02  0.13037351972E-01  0.10290064911E+01  0.10288982688E+01 0.  0.
     999903    2    3    3    0    0  0.27543063047E-01  0.64543319362E-01  0.11351080751E+00  0.14105678190E+00  0.45693018084E-01 0.  0.
         14    1    1    2    0    0 -0.24479738993E-02 -0.68371043717E-02 -0.13037351972E-01  0.14923508932E-01  0.00000000000E+00 0.  1.
     999901    1    3    3    0    0 -0.25095089148E-01 -0.57706214990E-01 -0.10047345554E+00  0.88794970917E+00  0.88000000000E+00 0.  1.
        -11    1    4    4    0    0  0.30673310364E-01  0.64017479844E-01  0.78260231403E-01  0.10565990079E+00  0.51100000000E-03 0.  1.
         11    1    4    4    0    0 -0.31302473174E-02  0.52583951801E-03  0.35250576107E-01  0.35396881110E-01  0.51100000000E-03 0. -1.
</event>
<event>
 8    1  0.2959109E+004  0.1043930E+01  0.7957747E-01            NaN
         13   -1    0    0    0    0  0.00000000000E+00  0.00000000000E+00  0.74505805969E-08  0.10566000000E+00  0.10566000000E+00 0. -1.
     999900   -1    0    0    0    0 -0.00000000000E+00 -0.00000000000E+00 -0.74505805969E-08  0.93827000000E+00  0.93827000000E+00 0.  1.
     999902    2    1    2    0    0  0.82417475599E-02  0.86773428043E-02 -0.63559329715E-02  0.10303793334E+01  0.10302902262E+01 0.  0.
     999903    2    3    3    0    0  0.27365366992E-01 -0.92641234222E-01 -0.91220651754E-01  0.14030451220E+00  0.45087550916E-01 0.  0.
         14    1    1    2    0    0 -0.82417475599E-02 -0.86773428043E-02  0.63559329715E-02  0.13550666586E-01  0.00000000000E+00 0. -1.
     999901    1    3    3    0    0 -0.19123619432E-01  0.10131857703E+00  0.84864718783E-01  0.89007482122E+00  0.88000000000E+00 0. -1.
        -11    1    4    4    0    0 -0.19482891872E-02 -0.66775648456E-01 -0.65136407168E-01  0.93304853664E-01  0.51100000000E-03 0.  1.
         11    1    4    4    0    0  0.29313656179E-01 -0.25865585765E-01 -0.26084244586E-01  0.46999658533E-01  0.51100000000E-03 0. -1.
</event>
<event>
 8    1  0.2959109E+004  0.1043930E+01  0.7957747E-01            NaN
         13   -1    0    0    0    0  0.00000000000E+00  0.00000000000E+00  0.74505805969E-08  0.10566000000E+00  0.10566000000E+00 0.  1.
     999900   -1    0    0    0    0 -0.00000000000E+00 -0.00000000000E+00 -0.74505805969E-08  0.93827000000E+00  0.93827000000E+00 0.  1.
     999902    2    1    2    0    0 -0.91396660411E-03  0.13631215250E-01  0.73593367467E-02  0.10284121006E+01  0.10282950177E+01 0.  0.
     999903    2    3    3    0    0 -0.40429512437E-01  0.93754470313E-01  0.85463741870E-01  0.14044728573E+00  0.44687164990E-01 0.  0.
         14    1    1    2    0    0  0.91396660411E-03 -0.13631215250E-01 -0.73593367467E-02  0.15517899391E-01  0.00000000000E+00 0. -1.
     999901    1    3    3    0    0  0.39515545833E-01 -0.80123255063E-01 -0.78104405123E-01  0.88796481488E+00  0.88000000000E+00 0.  1.
        -11    1    4    4    0    0 -0.58739891258E-03  0.38472110910E-01  0.51553419611E-01  0.64330898874E-01  0.51100000000E-03 0.  1.
         11    1    4    4    0    0 -0.39842113525E-01  0.55282359403E-01  0.33910322259E-01  0.76116386856E-01  0.51100000000E-03 0. -1.
</event>
<event>
 8    1  0.2959109E+004  0.1043930E+01  0.7957747E-01            NaN
         13   -1    0    0    0    0  0.00000000000E+00  0.00000000000E+00  0.74505805969E-08  0.10566000000E+00  0.10566000000E+00 0.  1.
     999900   -1    0    0    0    0 -0.00000000000E+00 -0.00000000000E+00 -0.74505805969E-08  0.93827000000E+00  0.93827000000E+00 0. -1.
     999902    2    1    2    0    0  0.74032807733E-03 -0.15870844466E-02 -0.13693304624E-01  0.10301251634E+01  0.10300326590E+01 0.  0.
     999903    2    3    3    0    0  0.78678783280E-01 -0.95675095966E-02 -0.10792940341E+00  0.14163288299E+00  0.46143572113E-01 0.  0.
         14    1    1    2    0    0 -0.74032807733E-03  0.15870844466E-02  0.13693304624E-01  0.13804836625E-01  0.00000000000E+00 0.  1.
     999901    1    3    3    0    0 -0.77938455202E-01  0.79804251501E-02  0.94236098781E-01  0.88849228038E+00  0.88000000000E+00 0.  1.
        -11    1    4    4    0    0  0.34574471828E-01 -0.13842335742E-01 -0.17976960806E-01  0.41357424990E-01  0.51100000000E-03 0.  1.
         11    1    4    4    0    0  0.44104311452E-01  0.42748261453E-02 -0.89952442600E-01  0.10027545800E+00  0.51100000000E-03 0. -1.
</event>
<event>
 8    1  0.2959109E+004  0.1043930E+01  0.7957747E-01            NaN
         13   -1    0    0    0    0  0.00000000000E+00  0.00000000000E+00  0.74505805969E-08  0.10566000000E+00  0.10566000000E+00 0. -1.
     999900   -1    0    0    0    0 -0.00000000000E+00 -0.00000000000E+00 -0.74505805969E-08  0.93827000000E+00  0.93827000000E+00 0. -1.
     999902    2    1    2    0    0  0.73515895033E-02 -0.49451563467E-03  0.10997190577E-01  0.10306926054E+01  0.10306075967E+01 0.  0.
     999903    2    3    3    0    0 -0.30105625034E-01 -0.62676596319E-01  0.11478939791E+00  0.14162428615E+00  0.45234148259E-01 0.  0.
         14    1    1    2    0    0 -0.73515895033E-02  0.49451563467E-03 -0.10997190577E-01  0.13237394552E-01  0.00000000000E+00 0.  1.
     999901    1    3    3    0    0  0.37457214537E-01  0.62182080684E-01 -0.10379220734E+00  0.88906831930E+00  0.88000000000E+00 0. -1.
        -11    1    4    4    0    0 -0.27720119434E-01 -0.15418128634E-01  0.26020454070E-01  0.41029853315E-01  0.51100000000E-03 0.  1.
         11    1    4    4    0    0 -0.23855055994E-02 -0.47258467685E-01  0.88768943844E-01  0.10059443283E+00  0.51100000000E-03 0. -1.
</event>
<event>
 8    1  0.2959109E+004  0.1043930E+01  0.7957747E-01            NaN
         13   -1    0    0    0    0  0.00000000000E+00  0.00000000000E+00  0.74505805969E-08  0.10566000000E+00  0.10566000000E+00 0.  1.
     999900   -1    0    0    0    0 -0.00000000000E+00 -0.00000000000E+00 -0.74505805969E-08  0.93827000000E+00  0.93827000000E+00 0.  1.
     999902    2    1    2    0    0 -0.21185650060E-02 -0.13876799966E-01  0.95602975674E-02  0.10269460904E+01  0.10268056386E+01 0.  0.
     999903    2    3    3    0    0 -0.11192150275E+00  0.54643818108E-01 -0.33306936165E-01  0.13644659016E+00  0.44676059966E-01 0.  0.
         14    1    1    2    0    0  0.21185650060E-02  0.13876799966E-01 -0.95602975674E-02  0.16983909578E-01  0.00000000000E+00 0.  1.
     999901    1    3    3    0    0  0.10980293775E+00 -0.68520618074E-01  0.42867233733E-01  0.89049950026E+00  0.88000000000E+00 0. -1.
        -11    1    4    4    0    0 -0.59444480115E-01  0.52498453609E-01 -0.25734345237E-01  0.83380162468E-01  0.51100000000E-03 0.  1.
         11    1    4    4    0    0 -0.52477022636E-01  0.21453644993E-02 -0.75725909286E-02  0.53066427692E-01  0.51100000000E-03 0. -1.
</event>
<event>
 8    1  0.2959109E+004  0.1043930E+01  0.7957747E-01            NaN
         13   -1    0    0    0    0  0.00000000000E+00  0.00000000000E+00  0.74505805969E-08  0.10566000000E+00  0.10566000000E+00 0. -1.
     999900   -1    0    0    0    0 -0.00000000000E+00 -0.00000000000E+00 -0.74505805969E-08  0.93827000000E+00  0.93827000000E+00 0. -1.
     999902    2    1    2    0    0 -0.15872753041E-02  0.18519860843E-02  0.13316369826E-01  0.10303920902E+01  0.10303031518E+01 0.  0.
     999903    2    3    3    0    0  0.11694533038E+00  0.39152955941E-02  0.65730396157E-01  0.14089702785E+00  0.42894610874E-01 0.  0.
         14    1    1    2    0    0  0.15872753041E-02 -0.18519860843E-02 -0.13316369826E-01  0.13537909761E-01  0.00000000000E+00 0.  1.
     999901    1    3    3    0    0 -0.11853260568E+00 -0.20633095098E-02 -0.52414026331E-01  0.88949506239E+00  0.88000000000E+00 0. -1.
        -11    1    4    4    0    0  0.77302626855E-01 -0.11321408726E-01  0.24950754614E-01  0.82016289182E-01  0.51100000000E-03 0. -1.
         11    1    4    4    0    0  0.39642703521E-01  0.15236704320E-01  0.40779641543E-01  0.58880738670E-01  0.51100000000E-03 0.  1.
</event>
<event>
 8    1  0.2959109E+004  0.1043930E+01  0.7957747E-01            NaN
         13   -1    0    0    0    0  0.00000000000E+00  0.00000000000E+00  0.74505805969E-08  0.10566000000E+00  0.10566000000E+00 0. -1.
     999900   -1    0    0    0    0 -0.00000000000E+00 -0.00000000000E+00 -0.74505805969E-08  0.93827000000E+00  0.93827000000E+00 0.  1.
     999902    2    1    2    0    0 -0.10577223971E-01  0.64165312897E-02 -0.40301304887E-02  0.10309187936E+01  0.10308366832E+01 0.  0.
     999903    2    3    3    0    0  0.97287073669E-01  0.82067554554E-01 -0.38909772757E-01  0.14042770802E+00  0.44789647788E-01 0.  0.
         14    1    1    2    0    0  0.10577223971E-01 -0.64165312897E-02  0.40301304887E-02  0.13011206419E-01  0.00000000000E+00 0. -1.
     999901    1    3    3    0    0 -0.10786429764E+00 -0.75651023264E-01  0.34879642269E-01  0.89049108557E+00  0.88000000000E+00 0. -1.
        -11    1    4    4    0    0  0.38068929193E-01  0.38190115765E-01  0.57780246237E-02  0.54234444789E-01  0.51100000000E-03 0. -1.
         11    1    4    4    0    0  0.59218144476E-01  0.43877438789E-01 -0.44687797381E-01  0.86193263226E-01  0.51100000000E-03 0.  1.
</event>
<event>
 8    1  0.2959109E+004  0.1043930E+01  0.7957747E-01            NaN
         13   -1    0    0    0    0  0.00000000000E+00  0.00000000000E+00  0.74505805969E-08  0.10566000000E+00  0.10566000000E+00 0. -1.
     999900   -1    0    0    0    0 -0.00000000000E+00 -0.00000000000E+00 -0.74505805969E-08  0.93827000000E+00  0.93827000000E+00 0.  1.
     999902    2    1    2    0    0 -0.18412850794E-02 -0.53851356788E-02 -0.96366881294E-02  0.10327382273E+01  0.10326775830E+01 0.  0.
     999903    2    3    3    0    0 -0.72852568785E-01  0.31713677092E-01  0.10800827348E+00  0.14130159959E+00  0.44576908959E-01 0.  0.
         14    1    1    2    0    0  0.18412850794E-02  0.53851356788E-02  0.96366881294E-02  0.11191772653E-01  0.00000000000E+00 0. -1.
     999901    1    3    3    0    0  0.71011283705E-01 -0.37098812770E-01 -0.11764496161E+00  0.89143662776E+00  0.88000000000E+00 0.  1.
        -11    1    4    4    0    0 -0.35315524022E-01  0.29331281570E-02  0.18302111981E-01  0.39887565753E-01  0.51100000000E-03 0.  1.
         11    1    4    4    0    0 -0.37537044762E-01  0.28780548935E-01  0.89706161497E-01  0.10141403383E+00  0.51100000000E-03 0. -1.
</event>
<event>
 8    1  0.2959109E+004  0.1043930E+01  0.7957747E-01            NaN
         13   -1    0    0    0    0  0.00000000000E+00  0.00000000000E+00  0.74505805969E-08  0.10566000000E+00  0.10566000000E+00 0.  1.
     999900   -1    0    0    0    0 -0.00000000000E+00 -0.00000000000E+00 -0.74505805969E-08  0.93827000000E+00  0.93827000000E+00 0.  1.
     999902    2    1    2    0    0 -0.42456231158E-02 -0.13081367117E-01 -0.10171471432E-01  0.10268242608E+01  0.10266817697E+01 0.  0.
     999903    2    3    3    0    0 -0.78789317983E-01 -0.62302902008E-01 -0.84702855707E-01  0.13916754274E+00  0.45865269649E-01 0.  0.
         14    1    1    2    0    0  0.42456231158E-02  0.13081367117E-01  0.10171471432E-01  0.17105739165E-01  0.00000000000E+00 0. -1.
     999901    1    3    3    0    0  0.74543694867E-01  0.49221534891E-01  0.74531384275E-01  0.88765671810E+00  0.88000000000E+00 0. -1.
        -11    1    4    4    0    0 -0.46790159857E-01 -0.25724931667E-01 -0.17421940641E-01  0.56168285584E-01  0.51100000000E-03 0.  1.
         11    1    4    4    0    0 -0.31999158126E-01 -0.36577970340E-01 -0.67280915066E-01  0.82999257154E-01  0.51100000000E-03 0. -1.
</event>
<event>
 8    1  0.2959109E+004  0.1043930E+01  0.7957747E-01            NaN
         13   -1    0    0    0    0  0.00000000000E+00  0.00000000000E+00  0.74505805969E-08  0.10566000000E+00  0.10566000000E+00 0. -1.
     999900   -1    0    0    0    0 -0.00000000000E+00 -0.00000000000E+00 -0.74505805969E-08  0.93827000000E+00  0.93827000000E+00 0.  1.
     999902    2    1    2    0    0 -0.11153248782E-01 -0.10330740021E-01  0.26710778904E-03  0.10287250503E+01  0.10286126767E+01 0.  0.
     999903    2    3    3    0    0  0.46541691975E-01  0.10784596619E+00 -0.54818729621E-01  0.13724936948E+00  0.45115571460E-01 0.  0.
         14    1    1    2    0    0  0.11153248782E-01  0.10330740021E-01 -0.26710778904E-03  0.15204949666E-01  0.00000000000E+00 0. -1.
     999901    1    3    3    0    0 -0.57694940757E-01 -0.11817670621E+00  0.55085837410E-01  0.89147568086E+00  0.88000000000E+00 0. -1.
        -11    1    4    4    0    0  0.26395182926E-01  0.14685735726E-01 -0.17323627198E-01  0.34824498500E-01  0.51100000000E-03 0. -1.
         11    1    4    4    0    0  0.20146509049E-01  0.93160230467E-01 -0.37495102423E-01  0.10242487097E+00  0.51100000000E-03 0.  1.
</event>
<event>
 8    1  0.2959109E+004  0.1043930E+01  0.7957747E-01            NaN
         13   -1    0    0    0    0  0.00000000000E+00  0.00000000000E+00  0.74505805969E-08  0.10566000000E+00  0.10566000000E+00 0. -1.
     999900   -1    0    0    0    0 -0.00000000000E+00 -0.00000000000E+00 -0.74505805969E-08  0.93827000000E+00  0.93827000000E+00 0.  1.
     999902    2    1    2    0    0  0.80815344100E-02 -0.56812167499E-02  0.13694905153E-01  0.10270439747E+01  0.10269051505E+01 0.  0.
     999903    2    3    3    0    0  0.54274270508E-01 -0.10053225889E+00 -0.62617600118E-01  0.13746312539E+00  0.43848779685E-01 0.  0.
         14    1    1    2    0    0 -0.80815344100E-02  0.56812167499E-02 -0.13694905153E-01  0.16886025267E-01  0.00000000000E+00 0.  1.
     999901    1    3    3    0    0 -0.46192736098E-01  0.94851042139E-01  0.76312505271E-01  0.88958084935E+00  0.88000000000E+00 0.  1.
        -11    1    4    4    0    0  0.30827954768E-01 -0.78808213750E-01 -0.25301126431E-01  0.88326131294E-01  0.51100000000E-03 0.  1.
         11    1    4    4    0    0  0.23446315740E-01 -0.21724045139E-01 -0.37316473687E-01  0.49136994092E-01  0.51100000000E-03 0. -1.
</event>
<event>
 8    1  0.2959109E+004  0.1043930E+01  0.7957747E-01            NaN
         13   -1    0    0    0    0  0.00000000000E+00  0.00000000000E+00  0.74505805969E-08  0.10566000000E+00  0.10566000000E+00 0.  1.
     999900   -1    0    0    0    0 -0.00000000000E+00 -0.00000000000E+00 -0.74505805969E-08  0.93827000000E+00  0.93827000000E+00 0.  1.
     999902    2    1    2    0    0  0.35809803140E-02  0.13049550133E-01  0.43070211338E-02  0.10297291335E+01  0.10296312076E+01 0.  0.
     999903    2    3    3    0    0 -0.70896262492E-01 -0.10889053280E+00  0.14180258748E-01  0.13814979078E+00  0.44730937665E-01 0.  0.
         14    1    1    2    0    0 -0.35809803140E-02 -0.13049550133E-01 -0.43070211338E-02  0.14200866513E-01  0.00000000000E+00 0. -1.
     999901    1    3    3    0    0  0.74477242806E-01  0.12194008294E+00 -0.98732376147E-02  0.89157934271E+00  0.88000000000E+00 0.  1.
        -11    1    4    4    0    0 -0.54658597793E-01 -0.10602040668E+00  0.52656663348E-02  0.11939797866E+00  0.51100000000E-03 0. -1.
         11    1    4    4    0    0 -0.16237664699E-01 -0.28701261247E-02  0.89145924137E-02  0.18751812119E-01  0.51100000000E-03 0.  1.
</event>
<event>
 8    1  0.2959109E+004  0.1043930E+01  0.7957747E-01            NaN
         13   -1    0    0    0    0  0.00000000000E+00  0.00000000000E+00  0.74505805969E-08  0.10566000000E+00  0.10566000000E+00 0.  1.
     999900   -1    0    0    0    0 -0.00000000000E+00 -0.00000000000E+00 -0.74505805969E-08  0.93827000000E+00  0.93827000000E+00 0. -1.
     999902    2    1    2    0    0 -0.38212328508E-02  0.17003323862E-02  0.11771730080E-01  0.10314373390E+01  0.10313616813E+01 0.  0.
     999903    2    3    3    0    0 -0.86362806547E-01  0.10588768141E-01  0.10359833916E+00  0.14277303687E+00  0.45616530069E-01 0.  0.
         14    1    1    2    0    0  0.38212328508E-02 -0.17003323862E-02 -0.11771730080E-01  0.12492661037E-01  0.00000000000E+00 0. -1.
     999901    1    3    3    0    0  0.82541573696E-01 -0.88884357543E-02 -0.91826609078E-01  0.88866430209E+00  0.88000000000E+00 0. -1.
        -11    1    4    4    0    0 -0.53875414567E-01  0.26787284081E-01  0.51080175508E-01  0.78927589182E-01  0.51100000000E-03 0.  1.
         11    1    4    4    0    0 -0.32487391980E-01 -0.16198515940E-01  0.52518163650E-01  0.63845447688E-01  0.51100000000E-03 0. -1.
</event>
<event>
 8    1  0.2959109E+004  0.1043930E+01  0.7957747E-01            NaN
         13   -1    0    0    0    0  0.00000000000E+00  0.00000000000E+00  0.74505805969E-08  0.10566000000E+00  0.10566000000E+00 0. -1.
     999900   -1    0    0    0    0 -0.00000000000E+00 -0.00000000000E+00 -0.74505805969E-08  0.93827000000E+00  0.93827000000E+00 0. -1.
     999902    2    1    2    0    0  0.29319074937E-02  0.12669885772E-01  0.60002885723E-02  0.10296077952E+01  0.10295081770E+01 0.  0.
     999903    2    3    3    0    0  0.91652232076E-01 -0.77858496140E-01  0.53805738521E-01  0.13924155317E+00  0.45067455724E-01 0.  0.
         14    1    1    2    0    0 -0.29319074937E-02 -0.12669885772E-01 -0.60002885723E-02  0.14322204788E-01  0.00000000000E+00 0.  1.
     999901    1    3    3    0    0 -0.88720324582E-01  0.90528381912E-01 -0.47805449948E-01  0.89036624204E+00  0.88000000000E+00 0. -1.
        -11    1    4    4    0    0  0.42612007004E-01 -0.37918662196E-01  0.13299466756E-02  0.57058198033E-01  0.51100000000E-03 0.  1.
         11    1    4    4    0    0  0.49040225073E-01 -0.39939833945E-01  0.52475791845E-01  0.82183355136E-01  0.51100000000E-03 0. -1.
</event>
<event>
 8    1  0.2959109E+004  0.1043930E+01  0.7957747E-01            NaN
         13   -1    0    0    0    0  0.00000000000E+00  0.00000000000E+00  0.74505805969E-08  0.10566000000E+00  0.10566000000E+00 0.  1.
     999900   -1    0    0    0    0 -0.00000000000E+00 -0.00000000000E+00 -0.74505805969E-08  0.93827000000E+00  0.93827000000E+00 0. -1.
     999902    2    1    2    0    0 -0.11367208498E-01 -0.19980527044E-04  0.76457292383E-02  0.10302306933E+01  0.10301396073E+01 0.  0.
     999903    2    3    3    0    0 -0.11416083653E+00  0.19582153113E-01 -0.64519944567E-01  0.14109703739E+00  0.48263789710E-01 0.  0.
         14    1    1    2    0    0  0.11367208498E-01  0.19980527044E-04 -0.76457292383E-02  0.13699306692E-01  0.00000000000E+00 0.  1.
     999901    1    3    3    0    0  0.10279362803E+00 -0.19602133640E-01  0.72165673805E-01  0.88913365592E+00  0.88000000000E+00 0.  1.
        -11    1    4    4    0    0 -0.63760929066E-01  0.11350668656E-01 -0.62473107658E-01  0.89985799189E-01  0.51100000000E-03 0.  1.
         11    1    4    4    0    0 -0.50399907460E-01  0.82314844571E-02 -0.20468369091E-02  0.51111238203E-01  0.51100000000E-03 0. -1.
</event>
<event>
 8    1  0.2959109E+004  0.1043930E+01  0.7957747E-01            NaN
         13   -1    0    0    0    0  0.00000000000E+00  0.00000000000E+00  0.74505805969E-08  0.10566000000E+00  0.10566000000E+00 0.  1.
     999900   -1    0    0    0    0 -0.00000000000E+00 -0.00000000000E+00 -0.74505805969E-08  0.93827000000E+00  0.93827000000E+00 0. -1.
     999902    2    1    2    0    0 -0.76016670890E-02 -0.13702593152E-01 -0.18128105535E-02  0.10281555687E+01  0.10280345523E+01 0.  0.
     999903    2    3    3    0    0 -0.80548928944E-01 -0.58950530618E-01 -0.87784973739E-01  0.13980885049E+00  0.43324566331E-01 0.  0.
         14    1    1    2    0    0  0.76016670890E-02  0.13702593152E-01  0.18128105535E-02  0.15774431328E-01  0.00000000000E+00 0.  1.
     999901    1    3    3    0    0  0.72947261855E-01  0.45247937466E-01  0.85972163185E-01  0.88834671818E+00  0.88000000000E+00 0.  1.
        -11    1    4    4    0    0 -0.33306804225E-01 -0.14149168544E-01 -0.57638804480E-01  0.68059055834E-01  0.51100000000E-03 0. -1.
         11    1    4    4    0    0 -0.47242124718E-01 -0.44801362074E-01 -0.30146169259E-01  0.71749794659E-01  0.51100000000E-03 0.  1.
</event>
<event>
 8    1  0.2959109E+004  0.1043930E+01  0.7957747E-01            NaN
         13   -1    0    0    0    0  0.00000000000E+00  0.00000000000E+00  0.74505805969E-08  0.10566000000E+00  0.10566000000E+00 0. -1.
     999900   -1    0    0    0    0 -0.00000000000E+00 -0.00000000000E+00 -0.74505805969E-08  0.93827000000E+00  0.93827000000E+00 0.  1.
     999902    2    1    2    0    0 -0.13493689414E-01  0.15559944148E-02 -0.67760947092E-04  0.10303467248E+01  0.10302571854E+01 0.  0.
     999903    2    3    3    0    0 -0.83924357778E-01  0.14201136748E-01  0.10629811224E+00  0.14105820155E+00  0.36785288436E-01 0.  0.
         14    1    1    2    0    0  0.13493689414E-01 -0.15559944148E-02  0.67760947092E-04  0.13583275163E-01  0.00000000000E+00 0. -1.
     999901    1    3    3    0    0  0.70430668364E-01 -0.12645142333E-01 -0.10636587319E+00  0.88928852329E+00  0.88000000000E+00 0.  1.
        -11    1    4    4    0    0 -0.39969552840E-01  0.19635252722E-01  0.33046264937E-01  0.55456514955E-01  0.51100000000E-03 0. -1.
         11    1    4    4    0    0 -0.43954804938E-01 -0.54341159740E-02  0.73251847303E-01  0.85601686595E-01  0.51100000000E-03 0.  1.
</event>
<event>
 8    1  0.2959109E+004  0.1043930E+01  0.7957747E-01            NaN
         13   -1    0    0    0    0  0.00000000000E+00  0.00000000000E+00  0.74505805969E-08  0.10566000000E+00  0.10566000000E+00 0. -1.
     999900   -1    0    0    0    0 -0.00000000000E+00 -0.00000000000E+00 -0.74505805969E-08  0.93827000000E+00  0.93827000000E+00 0. -1.
     999902    2    1    2    0    0  0.62308088648E-02  0.99372299835E-02  0.84892349746E-02  0.10294510971E+01  0.10293492715E+01 0.  0.
     999903    2    3    3    0    0  0.37579898265E-01  0.53286398487E-01 -0.11382521874E+00  0.13938214392E+00  0.47111703477E-01 0.  0.
         14    1    1    2    0    0 -0.62308088648E-02 -0.99372299835E-02 -0.84892349746E-02  0.14478902904E-01  0.00000000000E+00 0.  1.
     999901    1    3    3    0    0 -0.31349089401E-01 -0.43349168504E-01  0.12231445372E+00  0.89006895317E+00  0.88000000000E+00 0.  1.
        -11    1    4    4    0    0  0.66637568229E-04 -0.73855302628E-02 -0.21306996196E-01  0.22556588965E-01  0.51100000000E-03 0.  1.
         11    1    4    4    0    0  0.37513260697E-01  0.60671928750E-01 -0.92518222549E-01  0.11682555496E+00  0.51100000000E-03 0. -1.
</event>
<event>
 8    1  0.2959109E+004  0.1043930E+01  0.7957747E-01            NaN
         13   -1    0    0    0    0  0.00000000000E+00  0.00000000000E+00  0.74505805969E-08  0.10566000000E+00  0.10566000000E+00 0.  1.
     999900   -1    0    0    0    0 -0.00000000000E+00 -0.00000000000E+00 -0.74505805969E-08  0.93827000000E+00  0.93827000000E+00 0.  1.
     999902    2    1    2    0    0  0.77472716449E-02  0.56912166908E-03  0.11645599577E-01  0.10299312820E+01  0.10298361430E+01 0.  0.
     999903    2    3    3    0    0  0.11422526795E-01  0.20466174510E-01 -0.12843243059E+00  0.13862255051E+00  0.46604547693E-01 0.  0.
         14    1    1    2    0    0 -0.77472716449E-02 -0.56912166908E-03 -0.11645599577E-01  0.13998718046E-01  0.00000000000E+00 0. -1.
     999901    1    3    3    0    0 -0.36752551500E-02 -0.19897052841E-01  0.14007803017E+00  0.89130873144E+00  0.88000000000E+00 0. -1.
        -11    1    4    4    0    0  0.14795594379E-01  0.34239745985E-01 -0.10225226426E+00  0.10884418443E+00  0.51100000000E-03 0.  1.
         11    1    4    4    0    0 -0.33730675843E-02 -0.13773571475E-01 -0.26180166331E-01  0.29778366077E-01  0.51100000000E-03 0. -1.
</event>
<event>
 8    1  0.2959109E+004  0.1043930E+01  0.7957747E-01            NaN
         13   -1    0    0    0    0  0.00000000000E+00  0.00000000000E+00  0.74505805969E-08  0.10566000000E+00  0.10566000000E+00 0. -1.
     999900   -1    0    0    0    0 -0.00000000000E+00 -0.00000000000E+00 -0.74505805969E-08  0.93827000000E+00  0.93827000000E+00 0.  1.
     999902    2    1    2    0    0 -0.89981086634E-02 -0.85053648510E-02  0.45430280006E-02  0.10307411299E+01  0.10306567472E+01 0.  0.
     999903    2    3    3    0    0  0.62779480318E-01 -0.44383192743E-01 -0.10610994004E+00  0.14018887420E+00  0.49824392907E-01 0.  0.
         14    1    1    2    0    0  0.89981086634E-02  0.85053648510E-02 -0.45430280006E-02  0.13188870087E-01  0.00000000000E+00 0. -1.
     999901    1    3    3    0    0 -0.71777588981E-01  0.35877827892E-01  0.11065296804E+00  0.89055225571E+00  0.88000000000E+00 0. -1.
        -11    1    4    4    0    0  0.13826162341E-01 -0.13487781639E-01 -0.68456095401E-01  0.71130732720E-01  0.51100000000E-03 0. -1.
         11    1    4    4    0    0  0.48953317977E-01 -0.30895411105E-01 -0.37653844636E-01  0.69058141483E-01  0.51100000000E-03 0.  1.
</event>
<event>
 8    1  0.2959109E+004  0.1043930E+01  0.7957747E-01            NaN
         13   -1    0    0    0    0  0.00000000000E+00  0.00000000000E+00  0.74505805969E-08  0.10566000000E+00  0.10566000000E+00 0.  1.
     999900   -1    0    0    0    0 -0.00000000000E+00 -0.00000000000E+00 -0.74505805969E-08  0.93827000000E+00  0.93827000000E+00 0.  1.
     999902    2    1    2    0    0  0.74386373686E-02  0.10373780372E-01 -0.96794507825E-02  0.10279099996E+01  0.10277851560E+01 0.  0.
     999903    2    3    3    0    0 -0.10114930141E+00 -0.19637534704E-01  0.77514585394E-01  0.13645342780E+00  0.44656612775E-01 0.  0.
         14    1    1    2    0    0 -0.74386373686E-02 -0.10373780372E-01  0.96794507825E-02  0.16020000392E-01  0.00000000000E+00 0.  1.
     999901    1    3    3    0    0  0.10858793878E+00  0.30011315076E-01 -0.87194036177E-01  0.89145657181E+00  0.88000000000E+00 0.  1.
        -11    1    4    4    0    0 -0.15503236317E-01 -0.13108892145E-01 -0.64562078056E-03  0.20319235635E-01  0.51100000000E-03 0. -1.
         11    1    4    4    0    0 -0.85646065089E-01 -0.65286425584E-02  0.78160206175E-01  0.11613419216E+00  0.51100000000E-03 0.  1.
</event>
<event>
 8    1  0.2959109E+004  0.1043930E+01  0.7957747E-01            NaN
         13   -1    0    0    0    0  0.00000000000E+00  0.00000000000E+00  0.74505805969E-08  0.10566000000E+00  0.10566000000E+00 0. -1.
     999900   -1    0    0    0    0 -0.00000000000E+00 -0.00000000000E+00 -0.74505805969E-08  0.93827000000E+00  0.93827000000E+00 0. -1.
     999902    2    1    2    0    0 -0.99676837030E-02 -0.90371034099E-02 -0.20406612893E-02  0.10303216109E+01  0.10302317378E+01 0.  0.
     999903    2    3    3    0    0  0.68393840150E-01  0.32388389767E-01  0.10784336777E+00  0.13906906542E+00  0.44534119773E-01 0.  0.
         14    1    1    2    0    0  0.99676837030E-02  0.90371034099E-02  0.20406612893E-02  0.13608389138E-01  0.00000000000E+00 0.  1.
     999901    1    3    3    0    0 -0.78361523853E-01 -0.41425493177E-01 -0.10988402906E+00  0.89125254544E+00  0.88000000000E+00 0. -1.
        -11    1    4    4    0    0  0.61194602292E-01  0.12578725337E-01  0.59270027869E-01  0.86117367617E-01  0.51100000000E-03 0. -1.
         11    1    4    4    0    0  0.71992378587E-02  0.19809664430E-01  0.48573339901E-01  0.52951697808E-01  0.51100000000E-03 0.  1.
</event>
<event>
 8    1  0.2959109E+004  0.1043930E+01  0.7957747E-01            NaN
         13   -1    0    0    0    0  0.00000000000E+00  0.00000000000E+00  0.74505805969E-08  0.10566000000E+00  0.10566000000E+00 0. -1.
     999900   -1    0    0    0    0 -0.00000000000E+00 -0.00000000000E+00 -0.74505805969E-08  0.93827000000E+00  0.93827000000E+00 0. -1.
     999902    2    1    2    0    0  0.46435946925E-02 -0.89816299156E-02  0.82342037105E-02  0.10308902623E+01  0.10308077892E+01 0.  0.
     999903    2    3    3    0    0  0.53920961560E-01 -0.86289531115E-01  0.89582146544E-01  0.14239588516E+00  0.43569184693E-01 0.  0.
         14    1    1    2    0    0 -0.46435946925E-02  0.89816299156E-02 -0.82342037105E-02  0.13039737664E-01  0.00000000000E+00 0.  1.
     999901    1    3    3    0    0 -0.49277366868E-01  0.77307901199E-01 -0.81347942834E-01  0.88849437718E+00  0.88000000000E+00 0. -1.
        -11    1    4    4    0    0  0.11134333712E-01 -0.30480689312E-01  0.57285854779E-02  0.32956389680E-01  0.51100000000E-03 0. -1.
         11    1    4    4    0    0  0.42786627848E-01 -0.55808841802E-01  0.83853561066E-01  0.10943949548E+00  0.51100000000E-03 0.  1.
</event>
<event>
 8    1  0.2959109E+004  0.1043930E+01  0.7957747E-01            NaN
         13   -1    0    0    0    0  0.00000000000E+00  0.00000000000E+00  0.74505805969E-08  0.10566000000E+00  0.10566000000E+00 0.  1.
     999900   -1    0    0    0    0 -0.00000000000E+00 -0.00000000000E+00 -0.74505805969E-08  0.93827000000E+00  0.93827000000E+00 0.  1.
     999902    2    1    2    0    0  0.36411942387E-02 -0.11096015128E-01 -0.75821324813E-02  0.10300063302E+01  0.10299122155E+01 0.  0.
     999903    2    3    3    0    0 -0.83527354888E-01  0.94681083750E-01  0.36297040417E-01  0.13831550240E+00  0.43270965163E-01 0.  0.
         14    1    1    2    0    0 -0.36411942387E-02  0.11096015128E-01  0.75821324813E-02  0.13923669781E-01  0.00000000000E+00 0.  1.
     999901    1    3    3    0    0  0.87168549127E-01 -0.10577709888E+00 -0.43879172898E-01  0.89169082782E+00  0.88000000000E+00 0.  1.
        -11    1    4    4    0    0 -0.57487614252E-01  0.86475926319E-01  0.38891028122E-01  0.11088590900E+00  0.51100000000E-03 0. -1.
         11    1    4    4    0    0 -0.26039740636E-01  0.82051574303E-02 -0.25939877050E-02  0.27429593400E-01  0.51100000000E-03 0.  1.
</event>
<event>
 8    1  0.2959109E+004  0.1043930E+01  0.7957747E-01            NaN
         13   -1    0    0    0    0  0.00000000000E+00  0.00000000000E+00  0.74505805969E-08  0.10566000000E+00  0.10566000000E+00 0.  1.
     999900   -1    0    0    0    0 -0.00000000000E+00 -0.00000000000E+00 -0.74505805969E-08  0.93827000000E+00  0.93827000000E+00 0.  1.
     999902    2    1    2    0    0  0.70921194317E-02  0.38219325089E-03 -0.15637906752E-01  0.10267547749E+01  0.10266111140E+01 0.  0.
     999903    2    3    3    0    0 -0.12175688704E+00  0.37827852909E-01  0.12705125301E-01  0.13613276116E+00  0.45989373283E-01 0.  0.
         14    1    1    2    0    0 -0.70921194317E-02 -0.38219325089E-03  0.15637906752E-01  0.17175225102E-01  0.00000000000E+00 0.  1.
     999901    1    3    3    0    0  0.12884900647E+00 -0.37445659658E-01 -0.28343032052E-01  0.89062201374E+00  0.88000000000E+00 0.  1.
        -11    1    4    4    0    0 -0.46735023012E-01 -0.10726450694E-02 -0.11658272778E-01  0.48181836708E-01  0.51100000000E-03 0. -1.
         11    1    4    4    0    0 -0.75021864024E-01  0.38900497978E-01  0.24363398078E-01  0.87950924449E-01  0.51100000000E-03 0.  1.
</event>
<event>
 8    1  0.2959109E+004  0.1043930E+01  0.7957747E-01            NaN
         13   -1    0    0    0    0  0.00000000000E+00  0.00000000000E+00  0.74505805969E-08  0.10566000000E+00  0.10566000000E+00 0. -1.
     999900   -1    0    0    0    0 -0.00000000000E+00 -0.00000000000E+00 -0.74505805969E-08  0.93827000000E+00  0.93827000000E+00 0.  1.
     999902    2    1    2    0    0 -0.81852831887E-02 -0.98350821550E-02 -0.56103374925E-02  0.10299584722E+01  0.10298637050E+01 0.  0.
     999903    2    3    3    0    0  0.29302700482E-02  0.76260377492E-01  0.10580223531E+00  0.13869602766E+00  0.47098231753E-01 0.  0.
         14    1    1    2    0    0  0.81852831887E-02  0.98350821550E-02  0.56103374925E-02  0.13971527785E-01  0.00000000000E+00 0.  1.
     999901    1    3    3    0    0 -0.11115553237E-01 -0.86095459647E-01 -0.11141257280E+00  0.89126244455E+00  0.88000000000E+00 0. -1.
        -11    1    4    4    0    0 -0.17230922410E-01  0.28893030123E-01  0.64293054582E-01  0.72564246466E-01  0.51100000000E-03 0. -1.
         11    1    4    4    0    0  0.20161192458E-01  0.47367347369E-01  0.41509180728E-01  0.66131781193E-01  0.51100000000E-03 0.  1.
</event>
<event>
 8    1  0.2959109E+004  0.1043930E+01  0.7957747E-01            NaN
         13   -1    0    0    0    0  0.00000000000E+00  0.00000000000E+00  0.74505805969E-08  0.10566000000E+00  0.10566000000E+00 0. -1.
     999900   -1    0    0    0    0 -0.00000000000E+00 -0.00000000000E+00 -0.74505805969E-08  0.93827000000E+00  0.93827000000E+00 0.  1.
     999902    2    1    2    0    0  0.46748476818E-02  0.96375542893E-02 -0.12126074405E-01  0.10277504347E+01  0.10276230718E+01 0.  0.
     999903    2    3    3    0    0 -0.27438186964E-01  0.11819253689E+00  0.50220888273E-01  0.13831096232E+00  0.43421823989E-01 0.  0.
         14    1    1    2    0    0 -0.46748476818E-02 -0.96375542893E-02  0.12126074405E-01  0.16179565322E-01  0.00000000000E+00 0. -1.
     999901    1    3    3    0    0  0.32113034646E-01 -0.10855498260E+00 -0.62346962678E-01  0.88943947236E+00  0.88000000000E+00 0.  1.
        -11    1    4    4    0    0 -0.99953322491E-02  0.29658925874E-01 -0.61681606762E-02  0.31904010373E-01  0.51100000000E-03 0. -1.
         11    1    4    4    0    0 -0.17442854715E-01  0.88533611012E-01  0.56389048949E-01  0.10640695194E+00  0.51100000000E-03 0.  1.
</event>
<event>
 8    1  0.2959109E+004  0.1043930E+01  0.7957747E-01            NaN
         13   -1    0    0    0    0  0.00000000000E+00  0.00000000000E+00  0.74505805969E-08  0.10566000000E+00  0.10566000000E+00 0.  1.
     999900   -1    0    0    0    0 -0.00000000000E+00 -0.00000000000E+00 -0.74505805969E-08  0.93827000000E+00  0.93827000000E+00 0.  1.
     999902    2    1    2    0    0  0.98290982194E-02 -0.62630275877E-03 -0.91858147817E-02  0.10304621635E+01  0.10303741494E+01 0.  0.
     999903    2    3    3    0    0  0.92993975399E-01  0.68588534843E-01 -0.68708339644E-01  0.14183962186E+00  0.45225831328E-01 0.  0.
         14    1    1    2    0    0 -0.98290982194E-02  0.62630275877E-03  0.91858147817E-02  0.13467836506E-01  0.00000000000E+00 0.  1.
     999901    1    3    3    0    0 -0.83164877180E-01 -0.69214837601E-01  0.59522524862E-01  0.88862254164E+00  0.88000000000E+00 0.  1.
        -11    1    4    4    0    0  0.39093854037E-01  0.34693638481E-02 -0.26455197433E-01  0.47333967731E-01  0.51100000000E-03 0. -1.
         11    1    4    4    0    0  0.53900121363E-01  0.65119170995E-01 -0.42253142210E-01  0.94505654125E-01  0.51100000000E-03 0.  1.
</event>
<event>
 8    1  0.2959109E+004  0.1043930E+01  0.7957747E-01            NaN
         13   -1    0    0    0    0  0.00000000000E+00  0.00000000000E+00  0.74505805969E-08  0.10566000000E+00  0.10566000000E+00 0. -1.
     999900   -1    0    0    0    0 -0.00000000000E+00 -0.00000000000E+00 -0.74505805969E-08  0.93827000000E+00  0.93827000000E+00 0. -1.
     999902    2    1    2    0    0 -0.11878641631E-01 -0.56422040420E-02 -0.31998343787E-02  0.10303957644E+01  0.10303068745E+01 0.  0.
     999903    2    3    3    0    0  0.71367800200E-01 -0.86896517840E-01  0.69881522288E-01  0.13973695302E+00  0.44705941026E-01 0.  0.
         14    1    1    2    0    0  0.11878641631E-01  0.56422040420E-02  0.31998343787E-02  0.13534235608E-01  0.00000000000E+00 0. -1.
     999901    1    3    3    0    0 -0.83246441831E-01  0.81254313798E-01 -0.73081356666E-01  0.89065881138E+00  0.88000000000E+00 0. -1.
        -11    1    4    4    0    0  0.53677323046E-01 -0.44902587203E-01  0.61984109156E-01  0.93486834666E-01  0.51100000000E-03 0.  1.
         11    1    4    4    0    0  0.17690477154E-01 -0.41993930637E-01  0.78974131312E-02  0.46250118351E-01  0.51100000000E-03 0. -1.
</event>
<event>
 7    1  0.2959109E+004  0.1043930E+01  0.7957747E-01            NaN
         13   -1    0    0    0    0  0.00000000000E+00  0.00000000000E+00  0.74505805969E-08  0.10566000000E+00  0.10566000000E+00 0.  1.
     999900   -1    0    0    0    0 -0.00000000000E+00 -0.00000000000E+00 -0.74505805969E-08  0.93827000000E+00  0.93827000000E+00 0. -1.
     999903    2    1    2    0    0  0.10350014106E-01 -0.42056821276E-01 -0.10669582988E+00  0.12375674853E+00  0.45341302187E-01 0.  0.
         14    1    1    2    0    0  0.24478517282E-01 -0.19214195076E-01  0.49870138315E-02  0.31515923082E-01  0.00000000000E+00 0. -1.
     999901    1    1    2    0    0 -0.34828531388E-01  0.61271016352E-01  0.10170881605E+00  0.88865732839E+00  0.88000000000E+00 0.  1.
        -11    1    3    3    0    0  0.11919740660E-01 -0.15114891386E-02 -0.29866192225E-02  0.12391361193E-01  0.51100000000E-03 0. -1.
         11    1    3    3    0    0 -0.15697265540E-02 -0.40545332137E-01 -0.10370921066E+00  0.11136538733E+00  0.51100000000E-03 0.  1.
</event>
<event>
 8    1  0.2959109E+004  0.1043930E+01  0.7957747E-01            NaN
         13   -1    0    0    0    0  0.00000000000E+00  0.00000000000E+00  0.74505805969E-08  0.10566000000E+00  0.10566000000E+00 0.  1.
     999900   -1    0    0    0    0 -0.00000000000E+00 -0.00000000000E+00 -0.74505805969E-08  0.93827000000E+00  0.93827000000E+00 0. -1.
     999902    2    1    2    0    0 -0.87996890623E-02 -0.56669559170E-02  0.96227645164E-02  0.10297121762E+01  0.10296140147E+01 0.  0.
     999903    2    3    3    0    0 -0.11666616824E+00 -0.62136134870E-02  0.65581090930E-01  0.14136156384E+00  0.45084458972E-01 0.  0.
         14    1    1    2    0    0  0.87996890623E-02  0.56669559170E-02 -0.96227645164E-02  0.14217823810E-01  0.00000000000E+00 0. -1.
     999901    1    3    3    0    0  0.10786647917E+00  0.54665757002E-03 -0.55958326414E-01  0.88835061235E+00  0.88000000000E+00 0. -1.
        -11    1    4    4    0    0 -0.11690262714E-01  0.89299571994E-02 -0.30464297935E-02  0.15031574548E-01  0.51100000000E-03 0. -1.
         11    1    4    4    0    0 -0.10497590552E+00 -0.15143570686E-01  0.68627520724E-01  0.12632998929E+00  0.51100000000E-03 0.  1.
</event>
<event>
 8    1  0.2959109E+004  0.1043930E+01  0.7957747E-01            NaN
         13   -1    0    0    0    0  0.00000000000E+00  0.00000000000E+00  0.74505805969E-08  0.10566000000E+00  0.10566000000E+00 0. -1.
     999900   -1    0    0    0    0 -0.00000000000E+00 -0.00000000000E+00 -0.74505805969E-08  0.93827000000E+00  0.93827000000E+00 0.  1.
     999902    2    1    2    0    0  0.11688115754E-01 -0.56260671396E-02 -0.40729878443E-02  0.10303339009E+01  0.10302441911E+01 0.  0.
     999903    2    3    3    0    0  0.25827265436E-01  0.16847154624E-01 -0.13037213022E+00  0.14092036679E+00  0.43712505981E-01 0.  0.
         14    1    1    2    0    0 -0.11688115754E-01  0.56260671396E-02  0.40729878443E-02  0.13596099121E-01  0.00000000000E+00 0. -1.
     999901    1    3    3    0    0 -0.14139149682E-01 -0.22473221764E-01  0.12629914238E+00  0.88941353409E+00  0.88000000000E+00 0. -1.
        -11    1    4    4    0    0  0.31801405758E-01  0.73981385338E-02 -0.49648432552E-01  0.59424656817E-01  0.51100000000E-03 0.  1.
         11    1    4    4    0    0 -0.59741403219E-02  0.94490160904E-02 -0.80723697672E-01  0.81495709976E-01  0.51100000000E-03 0. -1.
</event>
<event>
 7    1  0.2959109E+004  0.1043930E+01  0.7957747E-01            NaN
         13   -1    0    0    0    0  0.00000000000E+00  0.00000000000E+00  0.74505805969E-08  0.10566000000E+00  0.10566000000E+00 0.  1.
     999900   -1    0    0    0    0 -0.00000000000E+00 -0.00000000000E+00 -0.74505805969E-08  0.93827000000E+00  0.93827000000E+00 0.  1.
     999903    2    1    2    0    0  0.28435927056E-02 -0.55936559158E-01  0.38112374595E-02  0.73769253774E-01  0.47858046362E-01 0.  0.
         14    1    1    2    0    0  0.58564031714E-01 -0.17212807352E-01  0.56184551133E-01  0.82962222328E-01  0.00000000000E+00 0.  1.
     999901    1    1    2    0    0 -0.61407624420E-01  0.73149366509E-01 -0.59995788593E-01  0.88719852390E+00  0.88000000000E+00 0. -1.
        -11    1    3    3    0    0 -0.20745661975E-02 -0.25167761786E-01  0.25429168250E-01  0.35841648638E-01  0.51100000000E-03 0.  1.
         11    1    3    3    0    0  0.49181589031E-02 -0.30768797371E-01 -0.21617930790E-01  0.37927605136E-01  0.51100000000E-03 0. -1.
</event>
<event>
 8    1  0.2959109E+004  0.1043930E+01  0.7957747E-01            NaN
         13   -1    0    0    0    0  0.00000000000E+00  0.00000000000E+00  0.74505805969E-08  0.10566000000E+00  0.10566000000E+00 0.  1.
     999900   -1    0    0    0    0 -0.00000000000E+00 -0.00000000000E+00 -0.74505805969E-08  0.93827000000E+00  0.93827000000E+00 0. -1.
     999902    2    1    2    0    0  0.41255501680E-02 -0.12070626774E-01  0.56644864670E-02  0.10299726864E+01  0.10298781133E+01 0.  0.
     999903    2    3    3    0    0 -0.21292155063E-01  0.50247921335E-01 -0.11914446509E+00  0.13862150112E+00  0.45191896906E-01 0.  0.
         14    1    1    2    0    0 -0.41255501680E-02  0.12070626774E-01 -0.56644864670E-02  0.13957313561E-01  0.00000000000E+00 0.  1.
     999901    1    3    3    0    0  0.25417705231E-01 -0.62318548108E-01  0.12480895156E+00  0.89135118532E+00  0.88000000000E+00 0.  1.
        -11    1    4    4    0    0 -0.15303257631E-01  0.87001607062E-02 -0.77550361095E-01  0.79524852199E-01  0.51100000000E-03 0.  1.
         11    1    4    4    0    0 -0.59888974314E-02  0.41547760628E-01 -0.41594103996E-01  0.59096648923E-01  0.51100000000E-03 0. -1.
</event>
<event>
 8    1  0.2959109E+004  0.1043930E+01  0.7957747E-01            NaN
         13   -1    0    0    0    0  0.00000000000E+00  0.00000000000E+00  0.74505805969E-08  0.10566000000E+00  0.10566000000E+00 0.  1.
     999900   -1    0    0    0    0 -0.00000000000E+00 -0.00000000000E+00 -0.74505805969E-08  0.93827000000E+00  0.93827000000E+00 0.  1.
     999902    2    1    2    0    0  0.10275905576E-01 -0.72537234007E-02 -0.72698314637E-02  0.10294020549E+01  0.10292995334E+01 0.  0.
     999903    2    3    3    0    0  0.31078937073E-01  0.23873233828E-01 -0.12720779469E+00  0.14047755385E+00  0.44903101052E-01 0.  0.
         14    1    1    2    0    0 -0.10275905576E-01  0.72537234007E-02  0.72698314637E-02  0.14527945074E-01  0.00000000000E+00 0. -1.
     999901    1    3    3    0    0 -0.20803031497E-01 -0.31126957229E-01  0.11993796322E+00  0.88892450107E+00  0.88000000000E+00 0. -1.
        -11    1    4    4    0    0  0.11614102958E-01 -0.13110261925E-01 -0.44046523831E-01  0.47403836742E-01  0.51100000000E-03 0.  1.
         11    1    4    4    0    0  0.19464834114E-01  0.36983495753E-01 -0.83161270857E-01  0.93073717111E-01  0.51100000000E-03 0. -1.
</event>
<event>
 8    1  0.2959109E+004  0.1043930E+01  0.7957747E-01            NaN
         13   -1    0    0    0    0  0.00000000000E+00  0.00000000000E+00  0.74505805969E-08  0.10566000000E+00  0.10566000000E+00 0. -1.
     999900   -1    0    0    0    0 -0.00000000000E+00 -0.00000000000E+00 -0.74505805969E-08  0.93827000000E+00  0.93827000000E+00 0.  1.
     999902    2    1    2    0    0  0.42850107978E-02  0.89200012723E-02  0.91761104137E-02  0.10304344918E+01  0.10303461132E+01 0.  0.
     999903    2    3    3    0    0  0.98108372385E-01  0.86938307864E-01 -0.26409977510E-01  0.14130230306E+00  0.45665433650E-01 0.  0.
         14    1    1    2    0    0 -0.42850107978E-02 -0.89200012723E-02 -0.91761104137E-02  0.13495508236E-01  0.00000000000E+00 0.  1.
     999901    1    3    3    0    0 -0.93823361587E-01 -0.78018306592E-01  0.35586087924E-01  0.88913218871E+00  0.88000000000E+00 0.  1.
        -11    1    4    4    0    0  0.34437000332E-01  0.59214594653E-01 -0.52497210789E-02  0.68702954116E-01  0.51100000000E-03 0.  1.
         11    1    4    4    0    0  0.63671372052E-01  0.27723713211E-01 -0.21160256431E-01  0.72599348940E-01  0.51100000000E-03 0. -1.
</event>
<event>
 8    1  0.2959109E+004  0.1043930E+01  0.7957747E-01            NaN
         13   -1    0    0    0    0  0.00000000000E+00  0.00000000000E+00  0.74505805969E-08  0.10566000000E+00  0.10566000000E+00 0. -1.
     999900   -1    0    0    0    0 -0.00000000000E+00 -0.00000000000E+00 -0.74505805969E-08  0.93827000000E+00  0.93827000000E+00 0. -1.
     999902    2    1    2    0    0 -0.91336383502E-02  0.99751797894E-02  0.38789106294E-02  0.10298596941E+01  0.10297635728E+01 0.  0.
     999903    2    3    3    0    0  0.97194425035E-01  0.73711380560E-01  0.51413759446E-01  0.13990041286E+00  0.45261760647E-01 0.  0.
         14    1    1    2    0    0  0.91336383502E-02 -0.99751797894E-02 -0.38789106294E-02  0.14070305932E-01  0.00000000000E+00 0.  1.
     999901    1    3    3    0    0 -0.10632806338E+00 -0.63736200771E-01 -0.47534848816E-01  0.88995928121E+00  0.88000000000E+00 0. -1.
        -11    1    4    4    0    0  0.75559715551E-01  0.35473938650E-01  0.19851005759E-01  0.85802065757E-01  0.51100000000E-03 0.  1.
         11    1    4    4    0    0  0.21634709483E-01  0.38237441910E-01  0.31562753687E-01  0.54098347106E-01  0.51100000000E-03 0. -1.
</event>
<event>
 8    1  0.2959109E+004  0.1043930E+01  0.7957747E-01            NaN
         13   -1    0    0    0    0  0.00000000000E+00  0.00000000000E+00  0.74505805969E-08  0.10566000000E+00  0.10566000000E+00 0. -1.
     999900   -1    0    0    0    0 -0.00000000000E+00 -0.00000000000E+00 -0.74505805969E-08  0.93827000000E+00  0.93827000000E+00 0. -1.
     999902    2    1    2    0    0  0.47895653582E-03  0.12659537639E-01  0.48667940274E-02  0.10303587445E+01  0.10302693645E+01 0.  0.
     999903    2    3    3    0    0  0.61085668309E-02 -0.12786492805E+00 -0.28556030862E-01  0.13856510063E+00  0.44699953031E-01 0.  0.
         14    1    1    2    0    0 -0.47895653582E-03 -0.12659537639E-01 -0.48667940274E-02  0.13571255531E-01  0.00000000000E+00 0.  1.
     999901    1    3    3    0    0 -0.56296102951E-02  0.14052446568E+00  0.33422824889E-01  0.89179364384E+00  0.88000000000E+00 0.  1.
        -11    1    4    4    0    0 -0.97207467628E-02 -0.19414688666E-01  0.78237000769E-02  0.23084506872E-01  0.51100000000E-03 0. -1.
         11    1    4    4    0    0  0.15829313594E-01 -0.10845023938E+00 -0.36379730939E-01  0.11548059376E+00  0.51100000000E-03 0.  1.
</event>
<event>
 8    1  0.2959109E+004  0.1043930E+01  0.7957747E-01            NaN
         13   -1    0    0    0    0  0.00000000000E+00  0.00000000000E+00  0.74505805969E-08  0.10566000000E+00  0.10566000000E+00 0.  1.
     999900   -1    0    0    0    0 -0.00000000000E+00 -0.00000000000E+00 -0.74505805969E-08  0.93827000000E+00  0.93827000000E+00 0. -1.
     999902    2    1    2    0    0  0.59726502766E-02 -0.78668420835E-02 -0.11594862738E-02  0.10339849427E+01  0.10339371149E+01 0.  0.
     999903    2    3    3    0    0  0.49235185695E-01  0.93332027500E-01 -0.85598980083E-01  0.14311857436E+00  0.44952976188E-01 0.  0.
         14    1    1    2    0    0 -0.59726502766E-02  0.78668420835E-02  0.11594862738E-02  0.99450572704E-02  0.00000000000E+00 0.  1.
     999901    1    3    3    0    0 -0.43262535419E-01 -0.10119886958E+00  0.84439493809E-01  0.89086636837E+00  0.88000000000E+00 0. -1.
        -11    1    4    4    0    0  0.28941444063E-01  0.33599219937E-01 -0.60970834600E-01  0.75393756755E-01  0.51100000000E-03 0.  1.
         11    1    4    4    0    0  0.20293741632E-01  0.59732807563E-01 -0.24628145483E-01  0.67724817605E-01  0.51100000000E-03 0. -1.
</event>
<event>
 8    1  0.2959109E+004  0.1043930E+01  0.7957747E-01            NaN
         13   -1    0    0    0    0  0.00000000000E+00  0.00000000000E+00  0.74505805969E-08  0.10566000000E+00  0.10566000000E+00 0.  1.
     999900   -1    0    0    0    0 -0.00000000000E+00 -0.00000000000E+00 -0.74505805969E-08  0.93827000000E+00  0.93827000000E+00 0. -1.
     999902    2    1    2    0    0 -0.12262453762E-01  0.24033360193E-02 -0.70220424219E-02  0.10295963725E+01  0.10294965942E+01 0.  0.
     999903    2    3    3    0    0 -0.79247878177E-01  0.10520915656E+00 -0.22604724200E-01  0.14094632680E+00  0.44785049564E-01 0.  0.
         14    1    1    2    0    0  0.12262453762E-01 -0.24033360193E-02  0.70220424219E-02  0.14333627456E-01  0.00000000000E+00 0.  1.
     999901    1    3    3    0    0  0.66985424415E-01 -0.10280582054E+00  0.15582681778E-01  0.88865004574E+00  0.88000000000E+00 0.  1.
        -11    1    4    4    0    0 -0.28162967022E-01  0.97748263355E-02  0.21870658474E-02  0.29895556850E-01  0.51100000000E-03 0.  1.
         11    1    4    4    0    0 -0.51084911155E-01  0.95434330222E-01 -0.24791790047E-01  0.11105076995E+00  0.51100000000E-03 0. -1.
</event>
<event>
 8    1  0.2959109E+004  0.1043930E+01  0.7957747E-01            NaN
         13   -1    0    0    0    0  0.00000000000E+00  0.00000000000E+00  0.74505805969E-08  0.10566000000E+00  0.10566000000E+00 0. -1.
     999900   -1    0    0    0    0 -0.00000000000E+00 -0.00000000000E+00 -0.74505805969E-08  0.93827000000E+00  0.93827000000E+00 0. -1.
     999902    2    1    2    0    0 -0.10344601648E-01 -0.45709600273E-02  0.66258913293E-02  0.10308224871E+01  0.10307391489E+01 0.  0.
     999903    2    3    3    0    0  0.39610271200E-01 -0.12385309027E+00  0.31293349648E-01  0.14102914062E+00  0.44736821729E-01 0.  0.
         14    1    1    2    0    0  0.10344601648E-01  0.45709600273E-02 -0.66258913293E-02  0.13107512912E-01  0.00000000000E+00 0.  1.
     999901    1    3    3    0    0 -0.49954872848E-01  0.11928213024E+00 -0.24667458319E-01  0.88979334647E+00  0.88000000000E+00 0. -1.
        -11    1    4    4    0    0  0.45447055803E-01 -0.11970694075E+00  0.35283268081E-01  0.13281700445E+00  0.51100000000E-03 0. -1.
         11    1    4    4    0    0 -0.58367846034E-02 -0.41461495237E-02 -0.39899184327E-02  0.82121361702E-02  0.51100000000E-03 0.  1.
</event>
<event>
 8    1  0.2959109E+004  0.1043930E+01  0.7957747E-01            NaN
         13   -1    0    0    0    0  0.00000000000E+00  0.00000000000E+00  0.74505805969E-08  0.10566000000E+00  0.10566000000E+00 0. -1.
     999900   -1    0    0    0    0 -0.00000000000E+00 -0.00000000000E+00 -0.74505805969E-08  0.93827000000E+00  0.93827000000E+00 0.  1.
     999902    2    1    2    0    0  0.99936320710E-02  0.88477435950E-02 -0.12861566048E-02  0.10305206955E+01  0.10304334498E+01 0.  0.
     999903    2    3    3    0    0 -0.11831173520E+00  0.48567102099E-01  0.24059893101E-01  0.13996900303E+00  0.51536523559E-01 0.  0.
         14    1    1    2    0    0 -0.99936320710E-02 -0.88477435950E-02  0.12861566048E-02  0.13409304512E-01  0.00000000000E+00 0. -1.
     999901    1    3    3    0    0  0.12830536727E+00 -0.39719358504E-01 -0.25346049706E-01  0.89055169246E+00  0.88000000000E+00 0.  1.
        -11    1    4    4    0    0 -0.71326158518E-01  0.52164647694E-01  0.27951049251E-01  0.92682758015E-01  0.51100000000E-03 0.  1.
         11    1    4    4    0    0 -0.46985576679E-01 -0.35975455949E-02 -0.38911561493E-02  0.47286245012E-01  0.51100000000E-03 0. -1.
</event>
<event>
 8    1  0.2959109E+004  0.1043930E+01  0.7957747E-01            NaN
         13   -1    0    0    0    0  0.00000000000E+00  0.00000000000E+00  0.74505805969E-08  0.10566000000E+00  0.10566000000E+00 0. -1.
     999900   -1    0    0    0    0 -0.00000000000E+00 -0.00000000000E+00 -0.74505805969E-08  0.93827000000E+00  0.93827000000E+00 0.  1.
     999902    2    1    2    0    0  0.11557345387E-01 -0.33232149845E-02  0.67556739334E-02  0.10301367002E+01  0.10300443514E+01 0.  0.
     999903    2    3    3    0    0 -0.71022506439E-01  0.25028241436E-01 -0.10667224177E+00  0.13857115065E+00  0.46393828676E-01 0.  0.
         14    1    1    2    0    0 -0.11557345387E-01  0.33232149845E-02 -0.67556739334E-02  0.13793299841E-01  0.00000000000E+00 0.  1.
     999901    1    3    3    0    0  0.82579851826E-01 -0.28351456421E-01  0.11342791570E+00  0.89156554951E+00  0.88000000000E+00 0.  1.
        -11    1    4    4    0    0 -0.24186955057E-01  0.26942220496E-01 -0.23712816009E-01  0.43283377921E-01  0.51100000000E-03 0. -1.
         11    1    4    4    0    0 -0.46835551382E-01 -0.19139790595E-02 -0.82959425756E-01  0.95287772730E-01  0.51100000000E-03 0.  1.
</event>
<event>
 8    1  0.2959109E+004  0.1043930E+01  0.7957747E-01            NaN
         13   -1    0    0    0    0  0.00000000000E+00  0.00000000000E+00  0.74505805969E-08  0.10566000000E+00  0.10566000000E+00 0.  1.
     999900   -1    0    0    0    0 -0.00000000000E+00 -0.00000000000E+00 -0.74505805969E-08  0.93827000000E+00  0.93827000000E+00 0.  1.
     999902    2    1    2    0    0 -0.10469515605E-01  0.69809372431E-02 -0.68913381674E-02  0.10295830566E+01  0.10294830915E+01 0.  0.
     999903    2    3    3    0    0 -0.27171626295E-01 -0.11844050083E+00 -0.49442491903E-01  0.13951558824E+00  0.47471990116E-01 0.  0.
         14    1    1    2    0    0  0.10469515605E-01 -0.69809372431E-02  0.68913381674E-02  0.14346943352E-01  0.00000000000E+00 0. -1.
     999901    1    3    3    0    0  0.16702110690E-01  0.12542143807E+00  0.42551153736E-01  0.89006746841E+00  0.88000000000E+00 0. -1.
        -11    1    4    4    0    0 -0.15303277690E-03 -0.93976286938E-01 -0.36981166562E-01  0.10099224588E+00  0.51100000000E-03 0. -1.
         11    1    4    4    0    0 -0.27018593518E-01 -0.24464213889E-01 -0.12461325341E-01  0.38523342368E-01  0.51100000000E-03 0.  1.
</event>
<event>
 8    1  0.2959109E+004  0.1043930E+01  0.7957747E-01            NaN
         13   -1    0    0    0    0  0.00000000000E+00  0.00000000000E+00  0.74505805969E-08  0.10566000000E+00  0.10566000000E+00 0.  1.
     999900   -1    0    0    0    0 -0.00000000000E+00 -0.00000000000E+00 -0.74505805969E-08  0.93827000000E+00  0.93827000000E+00 0. -1.
     999902    2    1    2    0    0 -0.14667708389E-01  0.30021705789E-02 -0.21689416212E-02  0.10288019134E+01  0.10286906814E+01 0.  0.
     999903    2    3    3    0    0 -0.18041647100E-01 -0.12568117470E+00  0.32596668804E-01  0.13875728837E+00  0.45494873932E-01 0.  0.
         14    1    1    2    0    0  0.14667708389E-01 -0.30021705789E-02  0.21689416212E-02  0.15128086638E-01  0.00000000000E+00 0.  1.
     999901    1    3    3    0    0  0.33739387107E-02  0.12868334528E+00 -0.34765610426E-01  0.89004462499E+00  0.88000000000E+00 0.  1.
        -11    1    4    4    0    0 -0.16174510445E-01 -0.71342507253E-01  0.40808857002E-01  0.83767488085E-01  0.51100000000E-03 0. -1.
         11    1    4    4    0    0 -0.18671366548E-02 -0.54338667445E-01 -0.82121881976E-02  0.54989800282E-01  0.51100000000E-03 0.  1.
</event>
<event>
 8    1  0.2959109E+004  0.1043930E+01  0.7957747E-01            NaN
         13   -1    0    0    0    0  0.00000000000E+00  0.00000000000E+00  0.74505805969E-08  0.10566000000E+00  0.10566000000E+00 0.  1.
     999900   -1    0    0    0    0 -0.00000000000E+00 -0.00000000000E+00 -0.74505805969E-08  0.93827000000E+00  0.93827000000E+00 0.  1.
     999902    2    1    2    0    0  0.45522899970E-03  0.93430832594E-02 -0.99736313113E-02  0.10302561651E+01  0.10301654198E+01 0.  0.
     999903    2    3    3    0    0  0.12525933058E+00  0.37087701660E-01 -0.27152867705E-01  0.14085133393E+00  0.45126738543E-01 0.  0.
         14    1    1    2    0    0 -0.45522899970E-03 -0.93430832594E-02  0.99736313113E-02  0.13673834860E-01  0.00000000000E+00 0.  1.
     999901    1    3    3    0    0 -0.12480410158E+00 -0.27744618401E-01  0.17179236394E-01  0.88940483121E+00  0.88000000000E+00 0. -1.
        -11    1    4    4    0    0  0.47636420358E-01  0.80523844076E-02  0.11097598949E-01  0.49573049761E-01  0.51100000000E-03 0. -1.
         11    1    4    4    0    0  0.77622910227E-01  0.29035317253E-01 -0.38250466655E-01  0.91278284166E-01  0.51100000000E-03 0.  1.
</event>
<event>
 8    1  0.2959109E+004  0.1043930E+01  0.7957747E-01            NaN
         13   -1    0    0    0    0  0.00000000000E+00  0.00000000000E+00  0.74505805969E-08  0.10566000000E+00  0.10566000000E+00 0.  1.
     999900   -1    0    0    0    0 -0.00000000000E+00 -0.00000000000E+00 -0.74505805969E-08  0.93827000000E+00  0.93827000000E+00 0. -1.
     999902    2    1    2    0    0 -0.14306890012E-03  0.66843945485E-02  0.12392051981E-01  0.10298493554E+01  0.10297530919E+01 0.  0.
     999903    2    3    3    0    0  0.10520342220E+00 -0.80537962887E-01 -0.40365523811E-02  0.13913305836E+00  0.42279908534E-01 0.  0.
         14    1    1    2    0    0  0.14306890012E-03 -0.66843945485E-02 -0.12392051981E-01  0.14080644570E-01  0.00000000000E+00 0. -1.
     999901    1    3    3    0    0 -0.10534649110E+00  0.87222357436E-01  0.16428604362E-01  0.89071629707E+00  0.88000000000E+00 0. -1.
        -11    1    4    4    0    0  0.72789363047E-01 -0.72438702272E-01  0.93904023330E-02  0.10312176170E+00  0.51100000000E-03 0.  1.
         11    1    4    4    0    0  0.32414059151E-01 -0.80992606157E-02 -0.13426954714E-01  0.36011296659E-01  0.51100000000E-03 0. -1.
</event>
<event>
 8    1  0.2959109E+004  0.1043930E+01  0.7957747E-01            NaN
         13   -1    0    0    0    0  0.00000000000E+00  0.00000000000E+00  0.74505805969E-08  0.10566000000E+00  0.10566000000E+00 0. -1.
     999900   -1    0    0    0    0 -0.00000000000E+00 -0.00000000000E+00 -0.74505805969E-08  0.93827000000E+00  0.93827000000E+00 0. -1.
     999902    2    1    2    0    0 -0.11556248057E-01 -0.66038671145E-02  0.25110681892E-03  0.10306175628E+01  0.10305315811E+01 0.  0.
     999903    2    3    3    0    0 -0.62789144397E-01  0.14444287308E-01 -0.11698512108E+00  0.14111648487E+00  0.45576635001E-01 0.  0.
         14    1    1    2    0    0  0.11556248057E-01  0.66038671145E-02 -0.25110681892E-03  0.13312437217E-01  0.00000000000E+00 0. -1.
     999901    1    3    3    0    0  0.51232896340E-01 -0.21048154422E-01  0.11723622790E+00  0.88950107791E+00  0.88000000000E+00 0.  1.
        -11    1    4    4    0    0 -0.33658022802E-01 -0.15061271469E-01 -0.63609399300E-01  0.73526329961E-01  0.51100000000E-03 0. -1.
         11    1    4    4    0    0 -0.29131121595E-01  0.29505558777E-01 -0.53375721783E-01  0.67590154911E-01  0.51100000000E-03 0.  1.
</event>
<event>
 8    1  0.2959109E+004  0.1043930E+01  0.7957747E-01            NaN
         13   -1    0    0    0    0  0.00000000000E+00  0.00000000000E+00  0.74505805969E-08  0.10566000000E+00  0.10566000000E+00 0.  1.
     999900   -1    0    0    0    0 -0.00000000000E+00 -0.00000000000E+00 -0.74505805969E-08  0.93827000000E+00  0.93827000000E+00 0.  1.
     999902    2    1    2    0    0 -0.78402954747E-02  0.77943173925E-02  0.78176989886E-02  0.10303897624E+01  0.10303007932E+01 0.  0.
     999903    2    3    3    0    0  0.12038943045E+00  0.27992409288E-01  0.46935345454E-01  0.14000725146E+00  0.46064236293E-01 0.  0.
         14    1    1    2    0    0  0.78402954747E-02 -0.77943173925E-02 -0.78176989886E-02  0.13540237598E-01  0.00000000000E+00 0. -1.
     999901    1    3    3    0    0 -0.12822972593E+00 -0.20198091896E-01 -0.39117646466E-01  0.89038251094E+00  0.88000000000E+00 0.  1.
        -11    1    4    4    0    0  0.61715368935E-01 -0.91016726176E-02  0.19461746114E-01  0.65350194262E-01  0.51100000000E-03 0.  1.
         11    1    4    4    0    0  0.58674061519E-01  0.37094081906E-01  0.27473599341E-01  0.74657057197E-01  0.51100000000E-03 0. -1.
</event>
<event>
 8    1  0.2959109E+004  0.1043930E+01  0.7957747E-01            NaN
         13   -1    0    0    0    0  0.00000000000E+00  0.00000000000E+00  0.74505805969E-08  0.10566000000E+00  0.10566000000E+00 0. -1.
     999900   -1    0    0    0    0 -0.00000000000E+00 -0.00000000000E+00 -0.74505805969E-08  0.93827000000E+00  0.93827000000E+00 0. -1.
     999902    2    1    2    0    0 -0.88906524180E-02 -0.10303113644E-01 -0.67162174203E-03  0.10303046953E+01  0.10302145972E+01 0.  0.
     999903    2    3    3    0    0 -0.10626581837E+00  0.63064026478E-01 -0.53718384759E-01  0.14031670708E+00  0.39161432996E-01 0.  0.
         14    1    1    2    0    0  0.88906524180E-02  0.10303113644E-01  0.67162174203E-03  0.13625304655E-01  0.00000000000E+00 0.  1.
     999901    1    3    3    0    0  0.97375165953E-01 -0.73367140122E-01  0.53046763017E-01  0.88998798827E+00  0.88000000000E+00 0. -1.
        -11    1    4    4    0    0 -0.10090515716E+00  0.44518878163E-01 -0.46687573912E-01  0.11976548724E+00  0.51100000000E-03 0. -1.
         11    1    4    4    0    0 -0.53606612062E-02  0.18545148315E-01 -0.70308108469E-02  0.20551219836E-01  0.51100000000E-03 0.  1.
</event>
<event>
 8    1  0.2959109E+004  0.1043930E+01  0.7957747E-01            NaN
         13   -1    0    0    0    0  0.00000000000E+00  0.00000000000E+00  0.74505805969E-08  0.10566000000E+00  0.10566000000E+00 0.  1.
     999900   -1    0    0    0    0 -0.00000000000E+00 -0.00000000000E+00 -0.74505805969E-08  0.93827000000E+00  0.93827000000E+00 0.  1.
     999902    2    1    2    0    0  0.92041962497E-02 -0.53612969669E-02 -0.58547991517E-02  0.10317751900E+01  0.10317035927E+01 0.  0.
     999903    2    3    3    0    0  0.76132814503E-01  0.10937600632E+00  0.16695657506E-01  0.14152094999E+00  0.44610739778E-01 0.  0.
         14    1    1    2    0    0 -0.92041962497E-02  0.53612969669E-02  0.58547991517E-02  0.12154810030E-01  0.00000000000E+00 0.  1.
     999901    1    3    3    0    0 -0.66928618254E-01 -0.11473730329E+00 -0.22550456658E-01  0.89025423998E+00  0.88000000000E+00 0.  1.
        -11    1    4    4    0    0  0.24328185274E-01  0.37407153567E-01  0.27142222655E-01  0.52231380494E-01  0.51100000000E-03 0.  1.
         11    1    4    4    0    0  0.51804629230E-01  0.71968852753E-01 -0.10446565148E-01  0.89289569495E-01  0.51100000000E-03 0. -1.
</event>
<event>
 7    1  0.2959109E+004  0.1043930E+01  0.7957747E-01            NaN
         13   -1    0    0    0    0  0.00000000000E+00  0.00000000000E+00  0.74505805969E-08  0.10566000000E+00  0.10566000000E+00 0.  1.
     999900   -1    0    0    0    0 -0.00000000000E+00 -0.00000000000E+00 -0.74505805969E-08  0.93827000000E+00  0.93827000000E+00 0.  1.
     999903    2    1    2    0    0 -0.94106096199E-02  0.50369376136E-01 -0.11077756643E-01  0.69382489522E-01  0.45448647221E-01 0.  0.
         14    1    1    2    0    0  0.44451585106E-01 -0.11445906248E-02 -0.76140662982E-01  0.88173998806E-01  0.00000000000E+00 0. -1.
     999901    1    1    2    0    0 -0.35040975486E-01 -0.49224785512E-01  0.87218419625E-01  0.88637351167E+00  0.88000000000E+00 0.  1.
        -11    1    3    3    0    0 -0.27418925893E-01  0.24094347893E-01 -0.37857337578E-02  0.36700517688E-01  0.51100000000E-03 0. -1.
         11    1    3    3    0    0  0.18008316273E-01  0.26275028243E-01 -0.72920228854E-02  0.32681971834E-01  0.51100000000E-03 0.  1.
</event>
<event>
 8    1  0.2959109E+004  0.1043930E+01  0.7957747E-01            NaN
         13   -1    0    0    0    0  0.00000000000E+00  0.00000000000E+00  0.74505805969E-08  0.10566000000E+00  0.10566000000E+00 0. -1.
     999900   -1    0    0    0    0 -0.00000000000E+00 -0.00000000000E+00 -0.74505805969E-08  0.93827000000E+00  0.93827000000E+00 0. -1.
     999902    2    1    2    0    0 -0.10059555565E-01 -0.30473789337E-02 -0.86118662805E-02  0.10303415705E+01  0.10302519626E+01 0.  0.
     999903    2    3    3    0    0  0.16625770026E-01  0.10888580002E+00  0.72131954577E-01  0.13918462146E+00  0.45130990512E-01 0.  0.
         14    1    1    2    0    0  0.10059555565E-01  0.30473789337E-02  0.86118662805E-02  0.13588429540E-01  0.00000000000E+00 0.  1.
     999901    1    3    3    0    0 -0.26685325591E-01 -0.11193317895E+00 -0.80743820858E-01  0.89115694900E+00  0.88000000000E+00 0. -1.
        -11    1    4    4    0    0 -0.33101188976E-02  0.84474704656E-01  0.37891702216E-01  0.92644345924E-01  0.51100000000E-03 0.  1.
         11    1    4    4    0    0  0.19935888923E-01  0.24411095359E-01  0.34240252361E-01  0.46540275532E-01  0.51100000000E-03 0. -1.
</event>
<event>
 8    1  0.2959109E+004  0.1043930E+01  0.7957747E-01            NaN
         13   -1    0    0    0    0  0.00000000000E+00  0.00000000000E+00  0.74505805969E-08  0.10566000000E+00  0.10566000000E+00 0. -1.
     999900   -1    0    0    0    0 -0.00000000000E+00 -0.00000000000E+00 -0.74505805969E-08  0.93827000000E+00  0.93827000000E+00 0.  1.
     999902    2    1    2    0    0  0.11864779088E-01 -0.39946078705E-03  0.77277083232E-02  0.10297649011E+01  0.10296674713E+01 0.  0.
     999903    2    3    3    0    0  0.55365786801E-01 -0.11629911117E+00  0.34374597323E-01  0.14070071704E+00  0.44991390601E-01 0.  0.
         14    1    1    2    0    0 -0.11864779088E-01  0.39946078705E-03 -0.77277083232E-02  0.14165098929E-01  0.00000000000E+00 0.  1.
     999901    1    3    3    0    0 -0.43501007713E-01  0.11589965038E+00 -0.26646889000E-01  0.88906418403E+00  0.88000000000E+00 0. -1.
        -11    1    4    4    0    0  0.16233133469E-01 -0.75520306221E-01  0.60586529758E-02  0.77484189812E-01  0.51100000000E-03 0. -1.
         11    1    4    4    0    0  0.39132653331E-01 -0.40778804948E-01  0.28315944347E-01  0.63216527230E-01  0.51100000000E-03 0.  1.
</event>
<event>
 8    1  0.2959109E+004  0.1043930E+01  0.7957747E-01            NaN
         13   -1    0    0    0    0  0.00000000000E+00  0.00000000000E+00  0.74505805969E-08  0.10566000000E+00  0.10566000000E+00 0.  1.
     999900   -1    0    0    0    0 -0.00000000000E+00 -0.00000000000E+00 -0.74505805969E-08  0.93827000000E+00  0.93827000000E+00 0.  1.
     999902    2    1    2    0    0 -0.71431062855E-02 -0.98730495254E-02 -0.59577900653E-02  0.10303654751E+01  0.10302761843E+01 0.  0.
     999903    2    3    3    0    0 -0.12011634288E+00 -0.42054952555E-02  0.57881534281E-01  0.14083158999E+00  0.45140256004E-01 0.  0.
         14    1    1    2    0    0  0.71431062855E-02  0.98730495254E-02  0.59577900653E-02  0.13564524938E-01  0.00000000000E+00 0.  1.
     999901    1    3    3    0    0  0.11297323659E+00 -0.56675542700E-02 -0.63839324347E-01  0.88953388507E+00  0.88000000000E+00 0.  1.
        -11    1    4    4    0    0 -0.51331918615E-01  0.20071436219E-01  0.29880702877E-01  0.62697256288E-01  0.51100000000E-03 0. -1.
         11    1    4    4    0    0 -0.68784424261E-01 -0.24276931475E-01  0.28000831405E-01  0.78134333703E-01  0.51100000000E-03 0.  1.
</event>
<event>
 8    1  0.2959109E+004  0.1043930E+01  0.7957747E-01            NaN
         13   -1    0    0    0    0  0.00000000000E+00  0.00000000000E+00  0.74505805969E-08  0.10566000000E+00  0.10566000000E+00 0.  1.
     999900   -1    0    0    0    0 -0.00000000000E+00 -0.00000000000E+00 -0.74505805969E-08  0.93827000000E+00  0.93827000000E+00 0.  1.
     999902    2    1    2    0    0 -0.54179586826E-02  0.10880035379E-01  0.48598102845E-03  0.10317658879E+01  0.10316941803E+01 0.  0.
     999903    2    3    3    0    0  0.13150333038E+00  0.19829765604E-01  0.58952705807E-02  0.14111623876E+00  0.46826201216E-01 0.  0.
         14    1    1    2    0    0  0.54179586826E-02 -0.10880035379E-01 -0.48598102845E-03  0.12164112121E-01  0.00000000000E+00 0. -1.
     999901    1    3    3    0    0 -0.13692128906E+00 -0.89497302250E-02 -0.54092895523E-02  0.89064964912E+00  0.88000000000E+00 0.  1.
        -11    1    4    4    0    0  0.57521184931E-01  0.19937024342E-04  0.24139409094E-01  0.62383165243E-01  0.51100000000E-03 0. -1.
         11    1    4    4    0    0  0.73982145449E-01  0.19809828580E-01 -0.18244138513E-01  0.78733073512E-01  0.51100000000E-03 0.  1.
</event>
<event>
 8    1  0.2959109E+004  0.1043930E+01  0.7957747E-01            NaN
         13   -1    0    0    0    0  0.00000000000E+00  0.00000000000E+00  0.74505805969E-08  0.10566000000E+00  0.10566000000E+00 0. -1.
     999900   -1    0    0    0    0 -0.00000000000E+00 -0.00000000000E+00 -0.74505805969E-08  0.93827000000E+00  0.93827000000E+00 0.  1.
     999902    2    1    2    0    0 -0.12484266637E-01 -0.37228103570E-02 -0.45017715940E-02  0.10301465977E+01  0.10300543824E+01 0.  0.
     999903    2    3    3    0    0 -0.90494933432E-01  0.55290581062E-01  0.80873263036E-01  0.14062024004E+00  0.44577863385E-01 0.  0.
         14    1    1    2    0    0  0.12484266637E-01  0.37228103570E-02  0.45017715940E-02  0.13783402262E-01  0.00000000000E+00 0. -1.
     999901    1    3    3    0    0  0.78010666795E-01 -0.59013391419E-01 -0.85375034630E-01  0.88952635770E+00  0.88000000000E+00 0.  1.
        -11    1    4    4    0    0 -0.26405662330E-01  0.25764209013E-01  0.53866583297E-02  0.37287138239E-01  0.51100000000E-03 0. -1.
         11    1    4    4    0    0 -0.64089271102E-01  0.29526372049E-01  0.75486604706E-01  0.10333310180E+00  0.51100000000E-03 0.  1.
</event>
<event>
 8    1  0.2959109E+004  0.1043930E+01  0.7957747E-01            NaN
         13   -1    0    0    0    0  0.00000000000E+00  0.00000000000E+00  0.74505805969E-08  0.10566000000E+00  0.10566000000E+00 0. -1.
     999900   -1    0    0    0    0 -0.00000000000E+00 -0.00000000000E+00 -0.74505805969E-08  0.93827000000E+00  0.93827000000E+00 0. -1.
     999902    2    1    2    0    0 -0.11639986672E-01 -0.88253401946E-02 -0.18070140892E-03  0.10293214897E+01  0.10292178198E+01 0.  0.
     999903    2    3    3    0    0 -0.10020579275E+00  0.21012656862E-01  0.84629197769E-01  0.14031815618E+00  0.45214501973E-01 0.  0.
         14    1    1    2    0    0  0.11639986672E-01  0.88253401946E-02  0.18070140892E-03  0.14608510269E-01  0.00000000000E+00 0. -1.
     999901    1    3    3    0    0  0.88565806078E-01 -0.29837997057E-01 -0.84809899178E-01  0.88900333356E+00  0.88000000000E+00 0.  1.
        -11    1    4    4    0    0 -0.11089655992E-01 -0.12064295792E-01  0.17277072171E-01  0.23817767460E-01  0.51100000000E-03 0. -1.
         11    1    4    4    0    0 -0.89116136757E-01  0.33076952654E-01  0.67352125598E-01  0.11650038872E+00  0.51100000000E-03 0.  1.
</event>
<event>
 8    1  0.2959109E+004  0.1043930E+01  0.7957747E-01            NaN
         13   -1    0    0    0    0  0.00000000000E+00  0.00000000000E+00  0.74505805969E-08  0.10566000000E+00  0.10566000000E+00 0.  1.
     999900   -1    0    0    0    0 -0.00000000000E+00 -0.00000000000E+00 -0.74505805969E-08  0.93827000000E+00  0.93827000000E+00 0. -1.
     999902    2    1    2    0    0 -0.72457733248E-02 -0.11952218419E-01 -0.14507995037E-02  0.10298778978E+01  0.10297820269E+01 0.  0.
     999903    2    3    3    0    0  0.53081882751E-01  0.11947579762E+00  0.21357273529E-02  0.13806759700E+00  0.44339006708E-01 0.  0.
         14    1    1    2    0    0  0.72457733248E-02  0.11952218419E-01  0.14507995037E-02  0.14052102171E-01  0.00000000000E+00 0. -1.
     999901    1    3    3    0    0 -0.60327656076E-01 -0.13142801604E+00 -0.35865268566E-02  0.89181030083E+00  0.88000000000E+00 0. -1.
        -11    1    4    4    0    0  0.27769603574E-01  0.54840840504E-01  0.22919202043E-01  0.65606551602E-01  0.51100000000E-03 0.  1.
         11    1    4    4    0    0  0.25312279178E-01  0.64634957121E-01 -0.20783474690E-01  0.72461045399E-01  0.51100000000E-03 0. -1.
</event>
<event>
 8    1  0.2959109E+004  0.1043930E+01  0.7957747E-01            NaN
         13   -1    0    0    0    0  0.00000000000E+00  0.00000000000E+00  0.74505805969E-08  0.10566000000E+00  0.10566000000E+00 0.  1.
     999900   -1    0    0    0    0 -0.00000000000E+00 -0.00000000000E+00 -0.74505805969E-08  0.93827000000E+00  0.93827000000E+00 0.  1.
     999902    2    1    2    0    0 -0.54798830841E-02  0.53461531493E-02  0.12008300180E-01  0.10296888713E+01  0.10295903856E+01 0.  0.
     999903    2    3    3    0    0  0.10891316220E+00 -0.32213744360E-01  0.67568980431E-01  0.13975432100E+00  0.45452182505E-01 0.  0.
         14    1    1    2    0    0  0.54798830841E-02 -0.53461531493E-02 -0.12008300180E-01  0.14241128653E-01  0.00000000000E+00 0. -1.
     999901    1    3    3    0    0 -0.11439304529E+00  0.37559897510E-01 -0.55560680251E-01  0.88993455035E+00  0.88000000000E+00 0.  1.
        -11    1    4    4    0    0  0.22533118830E-01 -0.33393083874E-02  0.37426178698E-01  0.43816348520E-01  0.51100000000E-03 0. -1.
         11    1    4    4    0    0  0.86380043375E-01 -0.28874435973E-01  0.30142801733E-01  0.95937972479E-01  0.51100000000E-03 0.  1.
</event>
<event>
 8    1  0.2959109E+004  0.1043930E+01  0.7957747E-01            NaN
         13   -1    0    0    0    0  0.00000000000E+00  0.00000000000E+00  0.74505805969E-08  0.10566000000E+00  0.10566000000E+00 0. -1.
     999900   -1    0    0    0    0 -0.00000000000E+00 -0.00000000000E+00 -0.74505805969E-08  0.93827000000E+00  0.93827000000E+00 0.  1.
     999902    2    1    2    0    0  0.74190520142E-02 -0.84277284984E-02  0.86981179145E-02  0.10297269653E+01  0.10296290093E+01 0.  0.
     999903    2    3    3    0    0  0.25473806963E-01  0.98165079661E-01  0.84072354903E-01  0.13991278437E+00  0.47139459734E-01 0.  0.
         14    1    1    2    0    0 -0.74190520142E-02  0.84277284984E-02 -0.86981179145E-02  0.14203034735E-01  0.00000000000E+00 0.  1.
     999901    1    3    3    0    0 -0.18054754949E-01 -0.10659280816E+00 -0.75374236988E-01  0.88981418090E+00  0.88000000000E+00 0. -1.
        -11    1    4    4    0    0 -0.34372919500E-02  0.28542345548E-01  0.25356210637E-02  0.28864700943E-01  0.51100000000E-03 0.  1.
         11    1    4    4    0    0  0.28911098913E-01  0.69622734113E-01  0.81536733839E-01  0.11104808342E+00  0.51100000000E-03 0. -1.
</event>
<event>
 8    1  0.2959109E+004  0.1043930E+01  0.7957747E-01            NaN
         13   -1    0    0    0    0  0.00000000000E+00  0.00000000000E+00  0.74505805969E-08  0.10566000000E+00  0.10566000000E+00 0.  1.
     999900   -1    0    0    0    0 -0.00000000000E+00 -0.00000000000E+00 -0.74505805969E-08  0.93827000000E+00  0.93827000000E+00 0.  1.
     999902    2    1    2    0    0 -0.61311343926E-02 -0.11921426749E-01 -0.50018787048E-02  0.10296216103E+01  0.10295221855E+01 0.  0.
     999903    2    3    3    0    0 -0.11639158943E+00 -0.51797773171E-01  0.39472846860E-01  0.14073157653E+00  0.44913913204E-01 0.  0.
         14    1    1    2    0    0  0.61311343926E-02  0.11921426749E-01  0.50018787048E-02  0.14308389680E-01  0.00000000000E+00 0. -1.
     999901    1    3    3    0    0  0.11026045504E+00  0.39876346422E-01 -0.44474725565E-01  0.88889003379E+00  0.88000000000E+00 0.  1.
        -11    1    4    4    0    0 -0.17184563536E-01 -0.22363990832E-01  0.22024708168E-01  0.35788352864E-01  0.51100000000E-03 0. -1.
         11    1    4    4    0    0 -0.99207025894E-01 -0.29433782339E-01  0.17448138692E-01  0.10494322367E+00  0.51100000000E-03 0.  1.
</event>
<event>
 8    1  0.2959109E+004  0.1043930E+01  0.7957747E-01            NaN
         13   -1    0    0    0    0  0.00000000000E+00  0.00000000000E+00  0.74505805969E-08  0.10566000000E+00  0.10566000000E+00 0. -1.
     999900   -1    0    0    0    0 -0.00000000000E+00 -0.00000000000E+00 -0.74505805969E-08  0.93827000000E+00  0.93827000000E+00 0.  1.
     999902    2    1    2    0    0  0.12677256016E-01 -0.81273686594E-03  0.58044996476E-02  0.10299634121E+01  0.10298687124E+01 0.  0.
     999903    2    3    3    0    0 -0.11879859622E-01 -0.19486784691E-01 -0.12952306176E+00  0.13908445239E+00  0.45248154944E-01 0.  0.
         14    1    1    2    0    0 -0.12677256016E-01  0.81273686594E-03 -0.58044996476E-02  0.13966587896E-01  0.00000000000E+00 0.  1.
     999901    1    3    3    0    0  0.24557115638E-01  0.18674047825E-01  0.13532756141E+00  0.89087895972E+00  0.88000000000E+00 0. -1.
        -11    1    4    4    0    0  0.77761384143E-02 -0.70734870132E-02 -0.10410128975E+00  0.10463193679E+00  0.51100000000E-03 0.  1.
         11    1    4    4    0    0 -0.19655998036E-01 -0.12413297677E-01 -0.25421772010E-01  0.34452515600E-01  0.51100000000E-03 0. -1.
</event>
<event>
 8    1  0.2959109E+004  0.1043930E+01  0.7957747E-01            NaN
         13   -1    0    0    0    0  0.00000000000E+00  0.00000000000E+00  0.74505805969E-08  0.10566000000E+00  0.10566000000E+00 0.  1.
     999900   -1    0    0    0    0 -0.00000000000E+00 -0.00000000000E+00 -0.74505805969E-08  0.93827000000E+00  0.93827000000E+00 0.  1.
     999902    2    1    2    0    0  0.12464115134E-01 -0.10433931286E-01 -0.43544446973E-02  0.10271019794E+01  0.10269641152E+01 0.  0.
     999903    2    3    3    0    0  0.50745738162E-01  0.10558457360E+00  0.55311284941E-01  0.13666064197E+00  0.43515062892E-01 0.  0.
         14    1    1    2    0    0 -0.12464115134E-01  0.10433931286E-01  0.43544446973E-02  0.16828020585E-01  0.00000000000E+00 0. -1.
     999901    1    3    3    0    0 -0.38281623028E-01 -0.11601850488E+00 -0.59665729638E-01  0.89044133744E+00  0.88000000000E+00 0.  1.
        -11    1    4    4    0    0  0.36123533706E-01  0.37525237745E-01  0.85182794382E-02  0.52781392183E-01  0.51100000000E-03 0. -1.
         11    1    4    4    0    0  0.14622204456E-01  0.68059335853E-01  0.46793005503E-01  0.83879249788E-01  0.51100000000E-03 0.  1.
</event>
<event>
 8    1  0.2959109E+004  0.1043930E+01  0.7957747E-01            NaN
         13   -1    0    0    0    0  0.00000000000E+00  0.00000000000E+00  0.74505805969E-08  0.10566000000E+00  0.10566000000E+00 0. -1.
     999900   -1    0    0    0    0 -0.00000000000E+00 -0.00000000000E+00 -0.74505805969E-08  0.93827000000E+00  0.93827000000E+00 0.  1.
     999902    2    1    2    0    0 -0.91503133042E-02 -0.48020233720E-02 -0.41206810401E-02  0.10328049079E+01  0.10327449879E+01 0.  0.
     999903    2    3    3    0    0  0.12348513461E-01 -0.87066206390E-01  0.10089400925E+00  0.14249165935E+00  0.48900529672E-01 0.  0.
         14    1    1    2    0    0  0.91503133042E-02  0.48020233720E-02  0.41206810401E-02  0.11125092101E-01  0.00000000000E+00 0. -1.
     999901    1    3    3    0    0 -0.21498826765E-01  0.82264183018E-01 -0.10501469029E+00  0.89031324855E+00  0.88000000000E+00 0. -1.
        -11    1    4    4    0    0 -0.10990224634E-01 -0.25392696627E-01  0.84447146607E-02  0.28933517003E-01  0.51100000000E-03 0. -1.
         11    1    4    4    0    0  0.23338738095E-01 -0.61673509764E-01  0.92449294591E-01  0.11355814235E+00  0.51100000000E-03 0.  1.
</event>
<event>
 8    1  0.2959109E+004  0.1043930E+01  0.7957747E-01            NaN
         13   -1    0    0    0    0  0.00000000000E+00  0.00000000000E+00  0.74505805969E-08  0.10566000000E+00  0.10566000000E+00 0. -1.
     999900   -1    0    0    0    0 -0.00000000000E+00 -0.00000000000E+00 -0.74505805969E-08  0.93827000000E+00  0.93827000000E+00 0. -1.
     999902    2    1    2    0    0  0.14532075748E-02  0.13101212907E-01  0.56280806990E-02  0.10295972095E+01  0.10294974429E+01 0.  0.
     999903    2    3    3    0    0 -0.11303917884E+00  0.64832693295E-01 -0.26430672813E-01  0.14009599178E+00  0.44126776151E-01 0.  0.
         14    1    1    2    0    0 -0.14532075748E-02 -0.13101212907E-01 -0.56280806990E-02  0.14332790525E-01  0.00000000000E+00 0. -1.
     999901    1    3    3    0    0  0.11449238642E+00 -0.51731480389E-01  0.32058753512E-01  0.88950121770E+00  0.88000000000E+00 0. -1.
        -11    1    4    4    0    0 -0.65998351765E-01  0.48799950423E-01  0.33600240248E-02  0.82150888488E-01  0.51100000000E-03 0.  1.
         11    1    4    4    0    0 -0.47040827076E-01  0.16032742872E-01 -0.29790696837E-01  0.57945103288E-01  0.51100000000E-03 0. -1.
</event>
<event>
 8    1  0.2959109E+004  0.1043930E+01  0.7957747E-01            NaN
         13   -1    0    0    0    0  0.00000000000E+00  0.00000000000E+00  0.74505805969E-08  0.10566000000E+00  0.10566000000E+00 0. -1.
     999900   -1    0    0    0    0 -0.00000000000E+00 -0.00000000000E+00 -0.74505805969E-08  0.93827000000E+00  0.93827000000E+00 0.  1.
     999902    2    1    2    0    0  0.10027571865E-01  0.10557411420E-01  0.14503463345E-02  0.10292973434E+01  0.10291933281E+01 0.  0.
     999903    2    3    3    0    0  0.68352369253E-01  0.86284676476E-01 -0.76009651635E-01  0.14073870613E+00  0.43735848954E-01 0.  0.
         14    1    1    2    0    0 -0.10027571865E-01 -0.10557411420E-01 -0.14503463345E-02  0.14632656556E-01  0.00000000000E+00 0.  1.
     999901    1    3    3    0    0 -0.58324797388E-01 -0.75727265056E-01  0.77459997970E-01  0.88855863732E+00  0.88000000000E+00 0. -1.
        -11    1    4    4    0    0  0.31858417755E-01  0.64294357570E-01 -0.29284667300E-01  0.77502103565E-01  0.51100000000E-03 0.  1.
         11    1    4    4    0    0  0.36493951497E-01  0.21990318906E-01 -0.46724984336E-01  0.63236602563E-01  0.51100000000E-03 0. -1.
</event>
<event>
 8    1  0.2959109E+004  0.1043930E+01  0.7957747E-01            NaN
         13   -1    0    0    0    0  0.00000000000E+00  0.00000000000E+00  0.74505805969E-08  0.10566000000E+00  0.10566000000E+00 0. -1.
     999900   -1    0    0    0    0 -0.00000000000E+00 -0.00000000000E+00 -0.74505805969E-08  0.93827000000E+00  0.93827000000E+00 0.  1.
     999902    2    1    2    0    0 -0.12946030925E-01 -0.19424509621E-02  0.22973248371E-02  0.10306390055E+01  0.10305533025E+01 0.  0.
     999903    2    3    3    0    0 -0.49279135492E-01  0.12423735627E+00 -0.11147616743E-02  0.14089011929E+00  0.44558154501E-01 0.  0.
         14    1    1    2    0    0  0.12946030925E-01  0.19424509621E-02 -0.22973248371E-02  0.13290994464E-01  0.00000000000E+00 0. -1.
     999901    1    3    3    0    0  0.36333104568E-01 -0.12617980723E+00  0.34120865114E-02  0.88974888625E+00  0.88000000000E+00 0. -1.
        -11    1    4    4    0    0 -0.26498975488E-01  0.20696551847E-01 -0.82737342090E-02  0.34630315607E-01  0.51100000000E-03 0. -1.
         11    1    4    4    0    0 -0.22780160005E-01  0.10354080442E+00  0.71589725347E-02  0.10625980368E+00  0.51100000000E-03 0.  1.
</event>
<event>
 8    1  0.2959109E+004  0.1043930E+01  0.7957747E-01            NaN
         13   -1    0    0    0    0  0.00000000000E+00  0.00000000000E+00  0.74505805969E-08  0.10566000000E+00  0.10566000000E+00 0. -1.
     999900   -1    0    0    0    0 -0.00000000000E+00 -0.00000000000E+00 -0.74505805969E-08  0.93827000000E+00  0.93827000000E+00 0. -1.
     999902    2    1    2    0    0  0.66268879577E-02 -0.95959636151E-02  0.62687353666E-02  0.10306900905E+01  0.10306050492E+01 0.  0.
     999903    2    3    3    0    0 -0.65502074068E-01  0.11395011563E+00  0.10850728063E-02  0.13912231893E+00  0.45592671357E-01 0.  0.
         14    1    1    2    0    0 -0.66268879577E-02  0.95959636151E-02 -0.62687353666E-02  0.13239909547E-01  0.00000000000E+00 0.  1.
     999901    1    3    3    0    0  0.72128962026E-01 -0.12354607925E+00  0.51836625603E-02  0.89156777152E+00  0.88000000000E+00 0.  1.
        -11    1    4    4    0    0 -0.37353855385E-01  0.10139069786E+00  0.42182652872E-02  0.10813620582E+00  0.51100000000E-03 0.  1.
         11    1    4    4    0    0 -0.28148218684E-01  0.12559417769E-01 -0.31331924809E-02  0.30986113114E-01  0.51100000000E-03 0. -1.
</event>
<event>
 8    1  0.2959109E+004  0.1043930E+01  0.7957747E-01            NaN
         13   -1    0    0    0    0  0.00000000000E+00  0.00000000000E+00  0.74505805969E-08  0.10566000000E+00  0.10566000000E+00 0. -1.
     999900   -1    0    0    0    0 -0.00000000000E+00 -0.00000000000E+00 -0.74505805969E-08  0.93827000000E+00  0.93827000000E+00 0.  1.
     999902    2    1    2    0    0 -0.49326083405E-02  0.12636651119E-01 -0.29146328764E-02  0.10300551789E+01  0.10299617279E+01 0.  0.
     999903    2    3    3    0    0 -0.10519785113E+00 -0.77527303503E-01  0.17907351293E-01  0.13954060142E+00  0.45539384544E-01 0.  0.
         14    1    1    2    0    0  0.49326083405E-02 -0.12636651119E-01  0.29146328764E-02  0.13874821129E-01  0.00000000000E+00 0. -1.
     999901    1    3    3    0    0  0.10026524279E+00  0.90163954622E-01 -0.20821984170E-01  0.89051457745E+00  0.88000000000E+00 0.  1.
        -11    1    4    4    0    0 -0.56893422201E-01 -0.68458978753E-01  0.15298120165E-01  0.90320467576E-01  0.51100000000E-03 0.  1.
         11    1    4    4    0    0 -0.48304428927E-01 -0.90683247497E-02  0.26092311283E-02  0.49220133846E-01  0.51100000000E-03 0. -1.
</event>
<event>
 8    1  0.2959109E+004  0.1043930E+01  0.7957747E-01            NaN
         13   -1    0    0    0    0  0.00000000000E+00  0.00000000000E+00  0.74505805969E-08  0.10566000000E+00  0.10566000000E+00 0.  1.
     999900   -1    0    0    0    0 -0.00000000000E+00 -0.00000000000E+00 -0.74505805969E-08  0.93827000000E+00  0.93827000000E+00 0. -1.
     999902    2    1    2    0    0 -0.10635951564E-01  0.21373705711E-03 -0.10750230848E-01  0.10288059591E+01  0.10286947871E+01 0.  0.
     999903    2    3    3    0    0 -0.90852108544E-01  0.21481499569E-01  0.92448836758E-01  0.13889753849E+00  0.45057500251E-01 0.  0.
         14    1    1    2    0    0  0.10635951564E-01 -0.21373705711E-03  0.10750230848E-01  0.15124040879E-01  0.00000000000E+00 0.  1.
     999901    1    3    3    0    0  0.80216156980E-01 -0.21267762512E-01 -0.10319906761E+00  0.88990842064E+00  0.88000000000E+00 0. -1.
        -11    1    4    4    0    0 -0.23955206523E-01 -0.13822211013E-01  0.30010097442E-01  0.40813876394E-01  0.51100000000E-03 0. -1.
         11    1    4    4    0    0 -0.66896902022E-01  0.35303710582E-01  0.62438739316E-01  0.98083662092E-01  0.51100000000E-03 0.  1.
</event>
<event>
 8    1  0.2959109E+004  0.1043930E+01  0.7957747E-01            NaN
         13   -1    0    0    0    0  0.00000000000E+00  0.00000000000E+00  0.74505805969E-08  0.10566000000E+00  0.10566000000E+00 0.  1.
     999900   -1    0    0    0    0 -0.00000000000E+00 -0.00000000000E+00 -0.74505805969E-08  0.93827000000E+00  0.93827000000E+00 0.  1.
     999902    2    1    2    0    0 -0.20543817299E-02  0.19268201983E-02 -0.13792446713E-01  0.10298529013E+01  0.10297566866E+01 0.  0.
     999903    2    3    3    0    0  0.46267961254E-01 -0.12199469450E+00  0.19130422371E-01  0.13924888948E+00  0.44730866697E-01 0.  0.
         14    1    1    2    0    0  0.20543817299E-02 -0.19268201983E-02  0.13792446713E-01  0.14077098660E-01  0.00000000000E+00 0.  1.
     999901    1    3    3    0    0 -0.48322342984E-01  0.12392151470E+00 -0.32922869084E-01  0.89060401186E+00  0.88000000000E+00 0. -1.
        -11    1    4    4    0    0  0.40957526907E-01 -0.49791703164E-01  0.44326756170E-03  0.64476277199E-01  0.51100000000E-03 0. -1.
         11    1    4    4    0    0  0.53104343470E-02 -0.72202991337E-01  0.18687154809E-01  0.74772612278E-01  0.51100000000E-03 0.  1.
</event>
<event>
 8    1  0.2959109E+004  0.1043930E+01  0.7957747E-01            NaN
         13   -1    0    0    0    0  0.00000000000E+00  0.00000000000E+00  0.74505805969E-08  0.10566000000E+00  0.10566000000E+00 0.  1.
     999900   -1    0    0    0    0 -0.00000000000E+00 -0.00000000000E+00 -0.74505805969E-08  0.93827000000E+00  0.93827000000E+00 0. -1.
     999902    2    1    2    0    0 -0.95607731175E-02 -0.59182546148E-02 -0.74113620668E-02  0.10304629139E+01  0.10303749097E+01 0.  0.
     999903    2    3    3    0    0  0.63253953882E-01 -0.10468155682E+00 -0.51439768372E-01  0.14085925221E+00  0.47286236314E-01 0.  0.
         14    1    1    2    0    0  0.95607731175E-02  0.59182546148E-02  0.74113620668E-02  0.13467086098E-01  0.00000000000E+00 0.  1.
     999901    1    3    3    0    0 -0.72814726999E-01  0.98763302201E-01  0.44028406305E-01  0.88960366169E+00  0.88000000000E+00 0.  1.
        -11    1    4    4    0    0  0.44706618177E-01 -0.34393712695E-01 -0.10334184910E-01  0.57346889022E-01  0.51100000000E-03 0. -1.
         11    1    4    4    0    0  0.18547335704E-01 -0.70287844121E-01 -0.41105583461E-01  0.83512363190E-01  0.51100000000E-03 0.  1.
</event>
<event>
 8    1  0.2959109E+004  0.1043930E+01  0.7957747E-01            NaN
         13   -1    0    0    0    0  0.00000000000E+00  0.00000000000E+00  0.74505805969E-08  0.10566000000E+00  0.10566000000E+00 0.  1.
     999900   -1    0    0    0    0 -0.00000000000E+00 -0.00000000000E+00 -0.74505805969E-08  0.93827000000E+00  0.93827000000E+00 0.  1.
     999902    2    1    2    0    0  0.11331865467E-01 -0.74245832741E-02 -0.22709425090E-02  0.10301934505E+01  0.10301018652E+01 0.  0.
     999903    2    3    3    0    0 -0.95013690173E-01 -0.82583415612E-01 -0.41267070963E-01  0.13975595955E+00  0.44509945298E-01 0.  0.
         14    1    1    2    0    0 -0.11331865467E-01  0.74245832741E-02  0.22709425090E-02  0.13736549481E-01  0.00000000000E+00 0. -1.
     999901    1    3    3    0    0  0.10634555564E+00  0.75158832338E-01  0.38996128454E-01  0.89043749097E+00  0.88000000000E+00 0.  1.
        -11    1    4    4    0    0 -0.87434514453E-01 -0.83788016020E-01 -0.47269581545E-01  0.12999961695E+00  0.51100000000E-03 0. -1.
         11    1    4    4    0    0 -0.75791757200E-02  0.12046004087E-02  0.60025105822E-02  0.97563426051E-02  0.51100000000E-03 0.  1.
</event>
<event>
 8    1  0.2959109E+004  0.1043930E+01  0.7957747E-01            NaN
         13   -1    0    0    0    0  0.00000000000E+00  0.00000000000E+00  0.74505805969E-08  0.10566000000E+00  0.10566000000E+00 0.  1.
     999900   -1    0    0    0    0 -0.00000000000E+00 -0.00000000000E+00 -0.74505805969E-08  0.93827000000E+00  0.93827000000E+00 0.  1.
     999902    2    1    2    0    0  0.52839265054E-03 -0.12875095150E-01 -0.10083556347E-02  0.10310046739E+01  0.10309236507E+01 0.  0.
     999903    2    3    3    0    0  0.93095679430E-01  0.94085031881E-01  0.90487699253E-02  0.13965159170E+00  0.43610641760E-01 0.  0.
         14    1    1    2    0    0 -0.52839265054E-03  0.12875095150E-01  0.10083556347E-02  0.12925326108E-01  0.00000000000E+00 0.  1.
     999901    1    3    3    0    0 -0.92567286780E-01 -0.10696012703E+00 -0.10057125560E-01  0.89135308219E+00  0.88000000000E+00 0. -1.
        -11    1    4    4    0    0  0.14994032272E-01  0.34678542762E-01 -0.11293755832E-01  0.39436434596E-01  0.51100000000E-03 0.  1.
         11    1    4    4    0    0  0.78101647159E-01  0.59406489119E-01  0.20342525757E-01  0.10021515710E+00  0.51100000000E-03 0. -1.
</event>
<event>
 8    1  0.2959109E+004  0.1043930E+01  0.7957747E-01            NaN
         13   -1    0    0    0    0  0.00000000000E+00  0.00000000000E+00  0.74505805969E-08  0.10566000000E+00  0.10566000000E+00 0.  1.
     999900   -1    0    0    0    0 -0.00000000000E+00 -0.00000000000E+00 -0.74505805969E-08  0.93827000000E+00  0.93827000000E+00 0. -1.
     999902    2    1    2    0    0  0.19130164467E-02  0.60150159939E-02  0.14019834916E-01  0.10285548310E+01  0.10284399081E+01 0.  0.
     999903    2    3    3    0    0 -0.19230988476E-01 -0.12748951079E+00  0.17073588851E-01  0.13822913051E+00  0.46822844931E-01 0.  0.
         14    1    1    2    0    0 -0.19130164467E-02 -0.60150159939E-02 -0.14019834916E-01  0.15375168955E-01  0.00000000000E+00 0. -1.
     999901    1    3    3    0    0  0.21144004923E-01  0.13350452678E+00 -0.30537539356E-02  0.89032570053E+00  0.88000000000E+00 0. -1.
        -11    1    4    4    0    0 -0.20597867109E-01 -0.97965229816E-01 -0.66459178279E-02  0.10032889777E+00  0.51100000000E-03 0. -1.
         11    1    4    4    0    0  0.13668786329E-02 -0.29524280971E-01  0.23719506679E-01  0.37900232745E-01  0.51100000000E-03 0.  1.
</event>
<event>
 8    1  0.2959109E+004  0.1043930E+01  0.7957747E-01            NaN
         13   -1    0    0    0    0  0.00000000000E+00  0.00000000000E+00  0.74505805969E-08  0.10566000000E+00  0.10566000000E+00 0. -1.
     999900   -1    0    0    0    0 -0.00000000000E+00 -0.00000000000E+00 -0.74505805969E-08  0.93827000000E+00  0.93827000000E+00 0. -1.
     999902    2    1    2    0    0 -0.35987446837E-03 -0.11597757114E-01  0.86619548960E-02  0.10294501194E+01  0.10293482799E+01 0.  0.
     999903    2    3    3    0    0  0.22235589238E-01 -0.29056942843E-01 -0.12599001965E+00  0.13875009560E+00  0.45159457698E-01 0.  0.
         14    1    1    2    0    0  0.35987446837E-03  0.11597757114E-01 -0.86619548960E-02  0.14479880605E-01  0.00000000000E+00 0.  1.
     999901    1    3    3    0    0 -0.22595463707E-01  0.17459185729E-01  0.13465197455E+00  0.89070002380E+00  0.88000000000E+00 0.  1.
        -11    1    4    4    0    0 -0.18163661368E-02 -0.32531996625E-01 -0.57740126291E-01  0.66300929824E-01  0.51100000000E-03 0.  1.
         11    1    4    4    0    0  0.24051955375E-01  0.34750537827E-02 -0.68249893362E-01  0.72449165772E-01  0.51100000000E-03 0. -1.
</event>
<event>
 8    1  0.2959109E+004  0.1043930E+01  0.7957747E-01            NaN
         13   -1    0    0    0    0  0.00000000000E+00  0.00000000000E+00  0.74505805969E-08  0.10566000000E+00  0.10566000000E+00 0. -1.
     999900   -1    0    0    0    0 -0.00000000000E+00 -0.00000000000E+00 -0.74505805969E-08  0.93827000000E+00  0.93827000000E+00 0. -1.
     999902    2    1    2    0    0 -0.63151818389E-02  0.10157158122E-01  0.33394614307E-02  0.10315122150E+01  0.10314374669E+01 0.  0.
     999903    2    3    3    0    0  0.47815311367E-01 -0.11942150582E+00 -0.30204333010E-01  0.13974659183E+00  0.45486351157E-01 0.  0.
         14    1    1    2    0    0  0.63151818389E-02 -0.10157158122E-01 -0.33394614307E-02  0.12417785045E-01  0.00000000000E+00 0.  1.
     999901    1    3    3    0    0 -0.54130493206E-01  0.12957866394E+00  0.33543794440E-01  0.89176562313E+00  0.88000000000E+00 0.  1.
        -11    1    4    4    0    0  0.19227573351E-01 -0.11217394749E-01 -0.14888550556E-01  0.26785435979E-01  0.51100000000E-03 0.  1.
         11    1    4    4    0    0  0.28587738015E-01 -0.10820411107E+00 -0.15315782453E-01  0.11296115585E+00  0.51100000000E-03 0. -1.
</event>
<event>
 8    1  0.2959109E+004  0.1043930E+01  0.7957747E-01            NaN
         13   -1    0    0    0    0  0.00000000000E+00  0.00000000000E+00  0.74505805969E-08  0.10566000000E+00  0.10566000000E+00 0. -1.
     999900   -1    0    0    0    0 -0.00000000000E+00 -0.00000000000E+00 -0.74505805969E-08  0.93827000000E+00  0.93827000000E+00 0.  1.
     999902    2    1    2    0    0  0.55954279553E-02  0.69481230169E-02  0.96093985324E-02  0.10308179533E+01  0.10307345571E+01 0.  0.
     999903    2    3    3    0    0 -0.11136651926E-01 -0.56801565155E-01  0.12080257891E+00  0.14137548269E+00  0.45203110674E-01 0.  0.
         14    1    1    2    0    0 -0.55954279553E-02 -0.69481230169E-02 -0.96093985324E-02  0.13112046660E-01  0.00000000000E+00 0.  1.
     999901    1    3    3    0    0  0.16732079881E-01  0.63749688171E-01 -0.11119318037E+00  0.88944247065E+00  0.88000000000E+00 0.  1.
        -11    1    4    4    0    0  0.82620318556E-02 -0.83086654131E-02  0.60371905920E-01  0.61500595418E-01  0.51100000000E-03 0.  1.
         11    1    4    4    0    0 -0.19398683781E-01 -0.48492899741E-01  0.60430672986E-01  0.79874887270E-01  0.51100000000E-03 0. -1.
</event>
<event>
 8    1  0.2959109E+004  0.1043930E+01  0.7957747E-01            NaN
         13   -1    0    0    0    0  0.00000000000E+00  0.00000000000E+00  0.74505805969E-08  0.10566000000E+00  0.10566000000E+00 0.  1.
     999900   -1    0    0    0    0 -0.00000000000E+00 -0.00000000000E+00 -0.74505805969E-08  0.93827000000E+00  0.93827000000E+00 0. -1.
     999902    2    1    2    0    0 -0.12942187764E-01  0.38804205052E-03  0.71187530006E-02  0.10291540924E+01  0.10290480156E+01 0.  0.
     999903    2    3    3    0    0  0.12694717836E+00  0.79529330070E-02  0.36251385900E-01  0.13759648203E+00  0.37944612938E-01 0.  0.
         14    1    1    2    0    0  0.12942187764E-01 -0.38804205052E-03 -0.71187530006E-02  0.14775907588E-01  0.00000000000E+00 0. -1.
     999901    1    3    3    0    0 -0.13988936612E+00 -0.75648909565E-02 -0.29132632900E-01  0.89155761038E+00  0.88000000000E+00 0. -1.
        -11    1    4    4    0    0  0.15241698136E-01 -0.70331729638E-02  0.15781232364E-01  0.23045244628E-01  0.51100000000E-03 0. -1.
         11    1    4    4    0    0  0.11170548022E+00  0.14986105971E-01  0.20470153536E-01  0.11455123740E+00  0.51100000000E-03 0.  1.
</event>
<event>
 8    1  0.2959109E+004  0.1043930E+01  0.7957747E-01            NaN
         13   -1    0    0    0    0  0.00000000000E+00  0.00000000000E+00  0.74505805969E-08  0.10566000000E+00  0.10566000000E+00 0.  1.
     999900   -1    0    0    0    0 -0.00000000000E+00 -0.00000000000E+00 -0.74505805969E-08  0.93827000000E+00  0.93827000000E+00 0.  1.
     999902    2    1    2    0    0  0.69394797339E-02  0.15240119151E-01  0.85505784098E-02  0.10251276065E+01  0.10249551598E+01 0.  0.
     999903    2    3    3    0    0  0.38935202397E-01  0.10785147837E+00  0.62507461913E-01  0.13804703776E+00  0.44742714134E-01 0.  0.
         14    1    1    2    0    0 -0.69394797339E-02 -0.15240119151E-01 -0.85505784098E-02  0.18802393514E-01  0.00000000000E+00 0.  1.
     999901    1    3    3    0    0 -0.31995722663E-01 -0.92611359220E-01 -0.53956883503E-01  0.88708056872E+00  0.88000000000E+00 0. -1.
        -11    1    4    4    0    0  0.16736881908E-03  0.16288750319E-01  0.28735042116E-01  0.33035059644E-01  0.51100000000E-03 0. -1.
         11    1    4    4    0    0  0.38767833578E-01  0.91562728053E-01  0.33772419797E-01  0.10501197812E+00  0.51100000000E-03 0.  1.
</event>
<event>
 8    1  0.2959109E+004  0.1043930E+01  0.7957747E-01            NaN
         13   -1    0    0    0    0  0.00000000000E+00  0.00000000000E+00  0.74505805969E-08  0.10566000000E+00  0.10566000000E+00 0.  1.
     999900   -1    0    0    0    0 -0.00000000000E+00 -0.00000000000E+00 -0.74505805969E-08  0.93827000000E+00  0.93827000000E+00 0.  1.
     999902    2    1    2    0    0  0.13527512989E-01 -0.49582678968E-03 -0.47962082854E-02  0.10295688348E+01  0.10294686700E+01 0.  0.
     999903    2    3    3    0    0 -0.11629021219E+00  0.22643195048E-01 -0.53582674734E-01  0.13840769595E+00  0.47428467541E-01 0.  0.
         14    1    1    2    0    0 -0.13527512989E-01  0.49582678968E-03  0.47962082854E-02  0.14361165196E-01  0.00000000000E+00 0.  1.
     999901    1    3    3    0    0  0.12981772517E+00 -0.23139021838E-01  0.48786466449E-01  0.89116113886E+00  0.88000000000E+00 0. -1.
        -11    1    4    4    0    0 -0.64379208991E-02  0.10690656833E-01 -0.18781493086E-01  0.22555322488E-01  0.51100000000E-03 0.  1.
         11    1    4    4    0    0 -0.10985229129E+00  0.11952538215E-01 -0.34801181649E-01  0.11585237346E+00  0.51100000000E-03 0. -1.
</event>
<event>
 8    1  0.2959109E+004  0.1043930E+01  0.7957747E-01            NaN
         13   -1    0    0    0    0  0.00000000000E+00  0.00000000000E+00  0.74505805969E-08  0.10566000000E+00  0.10566000000E+00 0. -1.
     999900   -1    0    0    0    0 -0.00000000000E+00 -0.00000000000E+00 -0.74505805969E-08  0.93827000000E+00  0.93827000000E+00 0.  1.
     999902    2    1    2    0    0  0.12099483448E-01 -0.60341274413E-02 -0.24644320810E-02  0.10301865791E+01  0.10300949015E+01 0.  0.
     999903    2    3    3    0    0  0.61198202075E-01  0.25399670062E-01  0.11542166423E+00  0.14041363077E+00  0.44760071016E-01 0.  0.
         14    1    1    2    0    0 -0.12099483448E-01  0.60341274413E-02  0.24644320810E-02  0.13743420941E-01  0.00000000000E+00 0. -1.
     999901    1    3    3    0    0 -0.49098718628E-01 -0.31433797503E-01 -0.11788609631E+00  0.88977294828E+00  0.88000000000E+00 0.  1.
        -11    1    4    4    0    0  0.42078587356E-01 -0.41043608619E-02  0.45274583655E-01  0.61947577338E-01  0.51100000000E-03 0. -1.
         11    1    4    4    0    0  0.19119614719E-01  0.29504030924E-01  0.70147080574E-01  0.78466053436E-01  0.51100000000E-03 0.  1.
</event>
<event>
 8    1  0.2959109E+004  0.1043930E+01  0.7957747E-01            NaN
         13   -1    0    0    0    0  0.00000000000E+00  0.00000000000E+00  0.74505805969E-08  0.10566000000E+00  0.10566000000E+00 0.  1.
     999900   -1    0    0    0    0 -0.00000000000E+00 -0.00000000000E+00 -0.74505805969E-08  0.93827000000E+00  0.93827000000E+00 0.  1.
     999902    2    1    2    0    0  0.33224472789E-02 -0.64454182154E-03 -0.13397969950E-01  0.10301111835E+01  0.10300184905E+01 0.  0.
     999903    2    3    3    0    0 -0.30899371786E-01 -0.14558080541E-01 -0.12981637273E+00  0.14167549988E+00  0.45309466480E-01 0.  0.
         14    1    1    2    0    0 -0.33224472789E-02  0.64454182154E-03  0.13397969950E-01  0.13818816478E-01  0.00000000000E+00 0.  1.
     999901    1    3    3    0    0  0.34221819065E-01  0.13913538719E-01  0.11641840278E+00  0.88843568364E+00  0.88000000000E+00 0. -1.
        -11    1    4    4    0    0 -0.24988757319E-01  0.33746751625E-02 -0.11482092991E+00  0.11755821320E+00  0.51100000000E-03 0. -1.
         11    1    4    4    0    0 -0.59106144672E-02 -0.17932755704E-01 -0.14995442818E-01  0.24117286680E-01  0.51100000000E-03 0.  1.
</event>
<event>
 8    1  0.2959109E+004  0.1043930E+01  0.7957747E-01            NaN
         13   -1    0    0    0    0  0.00000000000E+00  0.00000000000E+00  0.74505805969E-08  0.10566000000E+00  0.10566000000E+00 0. -1.
     999900   -1    0    0    0    0 -0.00000000000E+00 -0.00000000000E+00 -0.74505805969E-08  0.93827000000E+00  0.93827000000E+00 0. -1.
     999902    2    1    2    0    0  0.11180328091E-02 -0.13283517142E-01  0.52054810981E-02  0.10296192048E+01  0.10295197463E+01 0.  0.
     999903    2    3    3    0    0  0.20179034754E-01 -0.12842223999E+00 -0.31863447110E-01  0.14114053163E+00  0.44787333462E-01 0.  0.
         14    1    1    2    0    0 -0.11180328091E-02  0.13283517142E-01 -0.52054810981E-02  0.14310795173E-01  0.00000000000E+00 0. -1.
     999901    1    3    3    0    0 -0.19061001945E-01  0.11513872285E+00  0.37068928208E-01  0.88847867320E+00  0.88000000000E+00 0.  1.
        -11    1    4    4    0    0 -0.11994705278E-01 -0.20143906932E-01  0.10837705602E-02  0.23475212902E-01  0.51100000000E-03 0.  1.
         11    1    4    4    0    0  0.32173740032E-01 -0.10827833306E+00 -0.32947217670E-01  0.11766531872E+00  0.51100000000E-03 0. -1.
</event>
<event>
 8    1  0.2959109E+004  0.1043930E+01  0.7957747E-01            NaN
         13   -1    0    0    0    0  0.00000000000E+00  0.00000000000E+00  0.74505805969E-08  0.10566000000E+00  0.10566000000E+00 0. -1.
     999900   -1    0    0    0    0 -0.00000000000E+00 -0.00000000000E+00 -0.74505805969E-08  0.93827000000E+00  0.93827000000E+00 0.  1.
     999902    2    1    2    0    0 -0.93147608249E-02 -0.92452182540E-02 -0.40757649148E-02  0.10301877044E+01  0.10300960419E+01 0.  0.
     999903    2    3    3    0    0 -0.33491781305E-01  0.77098502912E-01 -0.10180009860E+00  0.14024960994E+00  0.47337241665E-01 0.  0.
         14    1    1    2    0    0  0.93147608249E-02  0.92452182540E-02  0.40757649148E-02  0.13742295639E-01  0.00000000000E+00 0. -1.
     999901    1    3    3    0    0  0.24177020480E-01 -0.86343721166E-01  0.97724333681E-01  0.88993809442E+00  0.88000000000E+00 0. -1.
        -11    1    4    4    0    0 -0.30351788961E-02  0.56568802580E-01 -0.43859528318E-01  0.71646082109E-01  0.51100000000E-03 0. -1.
         11    1    4    4    0    0 -0.30456602409E-01  0.20529700332E-01 -0.57940570278E-01  0.68603527834E-01  0.51100000000E-03 0.  1.
</event>
<event>
 8    1  0.2959109E+004  0.1043930E+01  0.7957747E-01            NaN
         13   -1    0    0    0    0  0.00000000000E+00  0.00000000000E+00  0.74505805969E-08  0.10566000000E+00  0.10566000000E+00 0. -1.
     999900   -1    0    0    0    0 -0.00000000000E+00 -0.00000000000E+00 -0.74505805969E-08  0.93827000000E+00  0.93827000000E+00 0.  1.
     999902    2    1    2    0    0  0.20030774608E-02  0.12821393945E-01 -0.32871811136E-02  0.10305432147E+01  0.10304562636E+01 0.  0.
     999903    2    3    3    0    0  0.38723197910E-01  0.11143864930E+00  0.64260568875E-01  0.14170328035E+00  0.45081485519E-01 0.  0.
         14    1    1    2    0    0 -0.20030774608E-02 -0.12821393945E-01  0.32871811136E-02  0.13386785338E-01  0.00000000000E+00 0. -1.
     999901    1    3    3    0    0 -0.36720120449E-01 -0.98617255351E-01 -0.67547749988E-01  0.88883993431E+00  0.88000000000E+00 0.  1.
        -11    1    4    4    0    0  0.44284669745E-02  0.56975162997E-01  0.11083827697E-01  0.58214198231E-01  0.51100000000E-03 0. -1.
         11    1    4    4    0    0  0.34294730935E-01  0.54463486299E-01  0.53176741178E-01  0.83489082119E-01  0.51100000000E-03 0.  1.
</event>
<event>
 8    1  0.2959109E+004  0.1043930E+01  0.7957747E-01            NaN
         13   -1    0    0    0    0  0.00000000000E+00  0.00000000000E+00  0.74505805969E-08  0.10566000000E+00  0.10566000000E+00 0.  1.
     999900   -1    0    0    0    0 -0.00000000000E+00 -0.00000000000E+00 -0.74505805969E-08  0.93827000000E+00  0.93827000000E+00 0. -1.
     999902    2    1    2    0    0 -0.11442418353E-01 -0.53817926551E-02  0.44755698546E-02  0.10305164488E+01  0.10304291475E+01 0.  0.
     999903    2    3    3    0    0  0.11838806782E+00  0.56343508688E-01 -0.81313469496E-02  0.13876261377E+00  0.44705912384E-01 0.  0.
         14    1    1    2    0    0  0.11442418353E-01  0.53817926551E-02 -0.44755698546E-02  0.13413551188E-01  0.00000000000E+00 0. -1.
     999901    1    3    3    0    0 -0.12983048618E+00 -0.61725301343E-01  0.12606916804E-01  0.89175383505E+00  0.88000000000E+00 0. -1.
        -11    1    4    4    0    0  0.47902964178E-01  0.10619446559E-01  0.15544675171E-01  0.51471979459E-01  0.51100000000E-03 0.  1.
         11    1    4    4    0    0  0.70485103645E-01  0.45724062128E-01 -0.23676022121E-01  0.87290634307E-01  0.51100000000E-03 0. -1.
</event>
<event>
 8    1  0.2959109E+004  0.1043930E+01  0.7957747E-01            NaN
         13   -1    0    0    0    0  0.00000000000E+00  0.00000000000E+00  0.74505805969E-08  0.10566000000E+00  0.10566000000E+00 0.  1.
     999900   -1    0    0    0    0 -0.00000000000E+00 -0.00000000000E+00 -0.74505805969E-08  0.93827000000E+00  0.93827000000E+00 0. -1.
     999902    2    1    2    0    0  0.86542242835E-02  0.76800125822E-02  0.75605748740E-02  0.10301082605E+01  0.10300155279E+01 0.  0.
     999903    2    3    3    0    0  0.12746014332E+00  0.25546534896E-01 -0.31986017598E-01  0.14106495894E+00  0.44469132443E-01 0.  0.
         14    1    1    2    0    0 -0.86542242835E-02 -0.76800125822E-02 -0.75605748740E-02  0.13821739530E-01  0.00000000000E+00 0. -1.
     999901    1    3    3    0    0 -0.11880591903E+00 -0.17866522314E-01  0.39546592472E-01  0.88904330153E+00  0.88000000000E+00 0. -1.
        -11    1    4    4    0    0  0.83381679816E-01  0.92641081534E-02  0.56772750081E-03  0.83898222057E-01  0.51100000000E-03 0.  1.
         11    1    4    4    0    0  0.44078463500E-01  0.16282426742E-01 -0.32553745099E-01  0.57166736885E-01  0.51100000000E-03 0. -1.
</event>
<event>
 8    1  0.2959109E+004  0.1043930E+01  0.7957747E-01            NaN
         13   -1    0    0    0    0  0.00000000000E+00  0.00000000000E+00  0.74505805969E-08  0.10566000000E+00  0.10566000000E+00 0. -1.
     999900   -1    0    0    0    0 -0.00000000000E+00 -0.00000000000E+00 -0.74505805969E-08  0.93827000000E+00  0.93827000000E+00 0.  1.
     999902    2    1    2    0    0 -0.23730650582E-02  0.57321726742E-02  0.12443341034E-01  0.10300258288E+01  0.10299319793E+01 0.  0.
     999903    2    3    3    0    0 -0.59055793777E-01 -0.27699600581E-01 -0.11475798826E+00  0.13844812977E+00  0.41756845127E-01 0.  0.
         14    1    1    2    0    0  0.23730650582E-02 -0.57321726742E-02 -0.12443341034E-01  0.13904171224E-01  0.00000000000E+00 0.  1.
     999901    1    3    3    0    0  0.56682728719E-01  0.33431773255E-01  0.12720132930E+00  0.89157769901E+00  0.88000000000E+00 0. -1.
        -11    1    4    4    0    0 -0.38039704326E-01 -0.15916000889E-01 -0.31842355898E-01  0.52101199023E-01  0.51100000000E-03 0.  1.
         11    1    4    4    0    0 -0.21016089451E-01 -0.11783599692E-01 -0.82915632363E-01  0.86346930743E-01  0.51100000000E-03 0. -1.
</event>
<event>
 8    1  0.2959109E+004  0.1043930E+01  0.7957747E-01            NaN
         13   -1    0    0    0    0  0.00000000000E+00  0.00000000000E+00  0.74505805969E-08  0.10566000000E+00  0.10566000000E+00 0. -1.
     999900   -1    0    0    0    0 -0.00000000000E+00 -0.00000000000E+00 -0.74505805969E-08  0.93827000000E+00  0.93827000000E+00 0.  1.
     999902    2    1    2    0    0 -0.10655827924E-01 -0.26207064880E-02  0.75006451955E-02  0.10306381059E+01  0.10305523911E+01 0.  0.
     999903    2    3    3    0    0  0.11121070908E+00 -0.38389745195E-01  0.60336158844E-01  0.13995159060E+00  0.45873753927E-01 0.  0.
         14    1    1    2    0    0  0.10655827924E-01  0.26207064880E-02 -0.75006451955E-02  0.13291894131E-01  0.00000000000E+00 0.  1.
     999901    1    3    3    0    0 -0.12186653700E+00  0.35769038707E-01 -0.52835513649E-01  0.89068651526E+00  0.88000000000E+00 0. -1.
        -11    1    4    4    0    0  0.34490972237E-01  0.34604346280E-02  0.34285340057E-01  0.48758049976E-01  0.51100000000E-03 0.  1.
         11    1    4    4    0    0  0.76719736839E-01 -0.41850179823E-01  0.26050818788E-01  0.91193540629E-01  0.51100000000E-03 0. -1.
</event>
<event>
 8    1  0.2959109E+004  0.1043930E+01  0.7957747E-01            NaN
         13   -1    0    0    0    0  0.00000000000E+00  0.00000000000E+00  0.74505805969E-08  0.10566000000E+00  0.10566000000E+00 0. -1.
     999900   -1    0    0    0    0 -0.00000000000E+00 -0.00000000000E+00 -0.74505805969E-08  0.93827000000E+00  0.93827000000E+00 0. -1.
     999902    2    1    2    0    0 -0.11388179301E-01  0.80959564664E-02 -0.19203317007E-02  0.10298260001E+01  0.10297294148E+01 0.  0.
     999903    2    3    3    0    0 -0.93099463420E-01 -0.94604491915E-01  0.37138996593E-02  0.14007555161E+00  0.44607702574E-01 0.  0.
         14    1    1    2    0    0  0.11388179301E-01 -0.80959564664E-02  0.19203317007E-02  0.14103999885E-01  0.00000000000E+00 0. -1.
     999901    1    3    3    0    0  0.81711284119E-01  0.10270044838E+00 -0.56342313601E-02  0.88975044850E+00  0.88000000000E+00 0.  1.
        -11    1    4    4    0    0 -0.46179178951E-01 -0.75516530708E-01 -0.50661724150E-02  0.88663353211E-01  0.51100000000E-03 0.  1.
         11    1    4    4    0    0 -0.46920284469E-01 -0.19087961207E-01  0.87800720743E-02  0.51412198400E-01  0.51100000000E-03 0. -1.
</event>
<event>
 8    1  0.2959109E+004  0.1043930E+01  0.7957747E-01            NaN
         13   -1    0    0    0    0  0.00000000000E+00  0.00000000000E+00  0.74505805969E-08  0.10566000000E+00  0.10566000000E+00 0. -1.
     999900   -1    0    0    0    0 -0.00000000000E+00 -0.00000000000E+00 -0.74505805969E-08  0.93827000000E+00  0.93827000000E+00 0. -1.
     999902    2    1    2    0    0 -0.36882010630E-03 -0.12214124134E-01 -0.70251363104E-02  0.10298348449E+01  0.10297383815E+01 0.  0.
     999903    2    3    3    0    0  0.34208564919E-01 -0.12024984771E+00 -0.48477396784E-01  0.14158622937E+00  0.45457128824E-01 0.  0.
         14    1    1    2    0    0  0.36882010630E-03  0.12214124134E-01  0.70251363104E-02  0.14095155082E-01  0.00000000000E+00 0. -1.
     999901    1    3    3    0    0 -0.34577385026E-01  0.10803572357E+00  0.41452260474E-01  0.88824861555E+00  0.88000000000E+00 0.  1.
        -11    1    4    4    0    0  0.17409077890E-02 -0.45122246479E-01 -0.38104217079E-01  0.59086719045E-01  0.51100000000E-03 0. -1.
         11    1    4    4    0    0  0.32467657130E-01 -0.75127601228E-01 -0.10373179705E-01  0.82499510325E-01  0.51100000000E-03 0.  1.
</event>
<event>
 8    1  0.2959109E+004  0.1043930E+01  0.7957747E-01            NaN
         13   -1    0    0    0    0  0.00000000000E+00  0.00000000000E+00  0.74505805969E-08  0.10566000000E+00  0.10566000000E+00 0. -1.
     999900   -1    0    0    0    0 -0.00000000000E+00 -0.00000000000E+00 -0.74505805969E-08  0.93827000000E+00  0.93827000000E+00 0.  1.
     999902    2    1    2    0    0  0.17409427104E-01  0.22089687117E-02 -0.54803381428E-02  0.10255451747E+01  0.10253803702E+01 0.  0.
     999903    2    3    3    0    0  0.12342030449E-01 -0.12561593600E+00  0.22816068181E-01  0.13584546616E+00  0.44740681893E-01 0.  0.
         14    1    1    2    0    0 -0.17409427104E-01 -0.22089687117E-02  0.54803381428E-02  0.18384825292E-01  0.00000000000E+00 0.  1.
     999901    1    3    3    0    0  0.50673966551E-02  0.12782490472E+00 -0.28296406324E-01  0.88969970855E+00  0.88000000000E+00 0.  1.
        -11    1    4    4    0    0 -0.48628233350E-02 -0.61715006807E-01 -0.87508158011E-02  0.62523811577E-01  0.51100000000E-03 0.  1.
         11    1    4    4    0    0  0.17204853784E-01 -0.63900929196E-01  0.31566883982E-01  0.73321654586E-01  0.51100000000E-03 0. -1.
</event>
<event>
 8    1  0.2959109E+004  0.1043930E+01  0.7957747E-01            NaN
         13   -1    0    0    0    0  0.00000000000E+00  0.00000000000E+00  0.74505805969E-08  0.10566000000E+00  0.10566000000E+00 0. -1.
     999900   -1    0    0    0    0 -0.00000000000E+00 -0.00000000000E+00 -0.74505805969E-08  0.93827000000E+00  0.93827000000E+00 0.  1.
     999902    2    1    2    0    0  0.10804924317E-01  0.46768572037E-02 -0.89280042764E-02  0.10291540519E+01  0.10290479745E+01 0.  0.
     999903    2    3    3    0    0  0.10201947665E+00 -0.23601526742E-01 -0.83151477367E-01  0.14088107271E+00  0.44365558472E-01 0.  0.
         14    1    1    2    0    0 -0.10804924317E-01 -0.46768572037E-02  0.89280042764E-02  0.14775948131E-01  0.00000000000E+00 0. -1.
     999901    1    3    3    0    0 -0.91214552330E-01  0.28278383945E-01  0.74223473090E-01  0.88827297916E+00  0.88000000000E+00 0. -1.
        -11    1    4    4    0    0  0.67771032831E-01 -0.33724919951E-01 -0.69112595554E-01  0.10250412237E+00  0.51100000000E-03 0.  1.
         11    1    4    4    0    0  0.34248443815E-01  0.10123393209E-01 -0.14038881813E-01  0.38376950340E-01  0.51100000000E-03 0. -1.
</event>
<event>
 8    1  0.2959109E+004  0.1043930E+01  0.7957747E-01            NaN
         13   -1    0    0    0    0  0.00000000000E+00  0.00000000000E+00  0.74505805969E-08  0.10566000000E+00  0.10566000000E+00 0. -1.
     999900   -1    0    0    0    0 -0.00000000000E+00 -0.00000000000E+00 -0.74505805969E-08  0.93827000000E+00  0.93827000000E+00 0.  1.
     999902    2    1    2    0    0 -0.14192249522E-02  0.14401507589E-01  0.22604043599E-02  0.10292832581E+01  0.10291790410E+01 0.  0.
     999903    2    3    3    0    0  0.96641799196E-01  0.82233057103E-01 -0.39561111623E-01  0.14025788008E+00  0.44780334301E-01 0.  0.
         14    1    1    2    0    0  0.14192249522E-02 -0.14401507589E-01 -0.22604043599E-02  0.14646741896E-01  0.00000000000E+00 0.  1.
     999901    1    3    3    0    0 -0.98061024148E-01 -0.67831549514E-01  0.41821515983E-01  0.88902537802E+00  0.88000000000E+00 0. -1.
        -11    1    4    4    0    0  0.39720211963E-01  0.59602236493E-01 -0.10275665056E-01  0.72360018288E-01  0.51100000000E-03 0. -1.
         11    1    4    4    0    0  0.56921587233E-01  0.22630820610E-01 -0.29285446567E-01  0.67897861794E-01  0.51100000000E-03 0.  1.
</event>
<event>
 8    1  0.2959109E+004  0.1043930E+01  0.7957747E-01            NaN
         13   -1    0    0    0    0  0.00000000000E+00  0.00000000000E+00  0.74505805969E-08  0.10566000000E+00  0.10566000000E+00 0. -1.
     999900   -1    0    0    0    0 -0.00000000000E+00 -0.00000000000E+00 -0.74505805969E-08  0.93827000000E+00  0.93827000000E+00 0. -1.
     999902    2    1    2    0    0  0.93621137576E-02 -0.91345430594E-02  0.68583639793E-02  0.10291609036E+01  0.10290549253E+01 0.  0.
     999903    2    3    3    0    0 -0.84491906705E-01 -0.56891788442E-01  0.83295900645E-01  0.13959245284E+00  0.46607809801E-01 0.  0.
         14    1    1    2    0    0 -0.93621137576E-02  0.91345430594E-02 -0.68583639793E-02  0.14769096363E-01  0.00000000000E+00 0.  1.
     999901    1    3    3    0    0  0.93854020463E-01  0.47757245383E-01 -0.76437536665E-01  0.88956845080E+00  0.88000000000E+00 0. -1.
        -11    1    4    4    0    0 -0.50159143064E-01 -0.11101933343E-01  0.22474749616E-01  0.56076448249E-01  0.51100000000E-03 0.  1.
         11    1    4    4    0    0 -0.34332763641E-01 -0.45789855099E-01  0.60821151028E-01  0.83516004590E-01  0.51100000000E-03 0. -1.
</event>
<event>
 8    1  0.2959109E+004  0.1043930E+01  0.7957747E-01            NaN
         13   -1    0    0    0    0  0.00000000000E+00  0.00000000000E+00  0.74505805969E-08  0.10566000000E+00  0.10566000000E+00 0. -1.
     999900   -1    0    0    0    0 -0.00000000000E+00 -0.00000000000E+00 -0.74505805969E-08  0.93827000000E+00  0.93827000000E+00 0. -1.
     999902    2    1    2    0    0 -0.34496978454E-02  0.12520177453E-01  0.14671131951E-02  0.10308606588E+01  0.10307778083E+01 0.  0.
     999903    2    3    3    0    0 -0.12772634344E+00  0.27751476285E-01 -0.30340758443E-01  0.14142914495E+00  0.44693155796E-01 0.  0.
         14    1    1    2    0    0  0.34496978454E-02 -0.12520177453E-01 -0.14671131951E-02  0.13069341215E-01  0.00000000000E+00 0.  1.
     999901    1    3    3    0    0  0.12427664559E+00 -0.15231298832E-01  0.31807871638E-01  0.88943151383E+00  0.88000000000E+00 0.  1.
        -11    1    4    4    0    0 -0.38742439912E-01 -0.52397443893E-02  0.64809846559E-02  0.39632005434E-01  0.51100000000E-03 0.  1.
         11    1    4    4    0    0 -0.88983903524E-01  0.32991220674E-01 -0.36821743099E-01  0.10179713952E+00  0.51100000000E-03 0. -1.
</event>
<event>
 8    1  0.2959109E+004  0.1043930E+01  0.7957747E-01            NaN
         13   -1    0    0    0    0  0.00000000000E+00  0.00000000000E+00  0.74505805969E-08  0.10566000000E+00  0.10566000000E+00 0.  1.
     999900   -1    0    0    0    0 -0.00000000000E+00 -0.00000000000E+00 -0.74505805969E-08  0.93827000000E+00  0.93827000000E+00 0.  1.
     999902    2    1    2    0    0  0.13070538009E-01 -0.52626424459E-02 -0.54086646042E-03  0.10298294005E+01  0.10297328621E+01 0.  0.
     999903    2    3    3    0    0 -0.57974659765E-01 -0.10133720525E+00 -0.63444072654E-01  0.13952913931E+00  0.42578633367E-01 0.  0.
         14    1    1    2    0    0 -0.13070538009E-01  0.52626424459E-02  0.54086646042E-03  0.14100599487E-01  0.00000000000E+00 0.  1.
     999901    1    3    3    0    0  0.71045197774E-01  0.96074562805E-01  0.62903206194E-01  0.89030026120E+00  0.88000000000E+00 0. -1.
        -11    1    4    4    0    0 -0.38034922763E-01 -0.44213909855E-01 -0.10776721351E-01  0.59312089985E-01  0.51100000000E-03 0.  1.
         11    1    4    4    0    0 -0.19939737002E-01 -0.57123295395E-01 -0.52667351303E-01  0.80217049327E-01  0.51100000000E-03 0. -1.
</event>
<event>
 7    1  0.2959109E+004  0.1043930E+01  0.7957747E-01            NaN
         13   -1    0    0    0    0  0.00000000000E+00  0.00000000000E+00  0.74505805969E-08  0.10566000000E+00  0.10566000000E+00 0. -1.
     999900   -1    0    0    0    0 -0.00000000000E+00 -0.00000000000E+00 -0.74505805969E-08  0.93827000000E+00  0.93827000000E+00 0.  1.
     999903    2    1    2    0    0  0.90261243183E-01  0.32895807221E-01  0.21448608020E-01  0.10914744609E+00  0.47158202351E-01 0.  0.
         14    1    1    2    0    0 -0.15001899723E-01  0.37736609786E-01  0.24732187852E-01  0.47547763664E-01  0.00000000000E+00 0. -1.
     999901    1    1    2    0    0 -0.75259343460E-01 -0.70632417008E-01 -0.46180795872E-01  0.88723479024E+00  0.88000000000E+00 0.  1.
        -11    1    3    3    0    0  0.21114187166E-01  0.14557495537E-01  0.27187321327E-01  0.37378351193E-01  0.51100000000E-03 0.  1.
         11    1    3    3    0    0  0.69147056017E-01  0.18338311684E-01 -0.57387133077E-02  0.71769094900E-01  0.51100000000E-03 0. -1.
</event>
<event>
 8    1  0.2959109E+004  0.1043930E+01  0.7957747E-01            NaN
         13   -1    0    0    0    0  0.00000000000E+00  0.00000000000E+00  0.74505805969E-08  0.10566000000E+00  0.10566000000E+00 0. -1.
     999900   -1    0    0    0    0 -0.00000000000E+00 -0.00000000000E+00 -0.74505805969E-08  0.93827000000E+00  0.93827000000E+00 0.  1.
     999902    2    1    2    0    0 -0.40692478849E-02 -0.55344509674E-02  0.12752408048E-01  0.10294450824E+01  0.10293431716E+01 0.  0.
     999903    2    3    3    0    0 -0.55481976987E-02  0.75868648742E-01 -0.10509611075E+00  0.13786394461E+00  0.46630895028E-01 0.  0.
         14    1    1    2    0    0  0.40692478849E-02  0.55344509674E-02 -0.12752408048E-01  0.14484917566E-01  0.00000000000E+00 0.  1.
     999901    1    3    3    0    0  0.14789498138E-02 -0.81403099710E-01  0.11784851879E+00  0.89158113782E+00  0.88000000000E+00 0.  1.
        -11    1    4    4    0    0 -0.17131760696E-01  0.90927202006E-02 -0.12372119330E-01  0.23010980920E-01  0.51100000000E-03 0. -1.
         11    1    4    4    0    0  0.11583562997E-01  0.66775928542E-01 -0.92723991415E-01  0.11485296369E+00  0.51100000000E-03 0.  1.
</event>
<event>
 8    1  0.2959109E+004  0.1043930E+01  0.7957747E-01            NaN
         13   -1    0    0    0    0  0.00000000000E+00  0.00000000000E+00  0.74505805969E-08  0.10566000000E+00  0.10566000000E+00 0. -1.
     999900   -1    0    0    0    0 -0.00000000000E+00 -0.00000000000E+00 -0.74505805969E-08  0.93827000000E+00  0.93827000000E+00 0. -1.
     999902    2    1    2    0    0 -0.12971573916E-01 -0.59059947275E-03 -0.41128025497E-02  0.10303092187E+01  0.10302191808E+01 0.  0.
     999903    2    3    3    0    0  0.35458162236E-01  0.46991269908E-01 -0.11855188853E+00  0.14030597265E+00  0.46537672572E-01 0.  0.
         14    1    1    2    0    0  0.12971573916E-01  0.59059947275E-03  0.41128025497E-02  0.13620781270E-01  0.00000000000E+00 0.  1.
     999901    1    3    3    0    0 -0.48429736152E-01 -0.47581869381E-01  0.11443908598E+00  0.89000324608E+00  0.88000000000E+00 0.  1.
        -11    1    4    4    0    0  0.35821990460E-01  0.41546213210E-01 -0.59234641068E-01  0.80736030718E-01  0.51100000000E-03 0.  1.
         11    1    4    4    0    0 -0.36382822354E-03  0.54450566986E-02 -0.59317247466E-01  0.59569941929E-01  0.51100000000E-03 0. -1.
</event>
<event>
 8    1  0.2959109E+004  0.1043930E+01  0.7957747E-01            NaN
         13   -1    0    0    0    0  0.00000000000E+00  0.00000000000E+00  0.74505805969E-08  0.10566000000E+00  0.10566000000E+00 0. -1.
     999900   -1    0    0    0    0 -0.00000000000E+00 -0.00000000000E+00 -0.74505805969E-08  0.93827000000E+00  0.93827000000E+00 0.  1.
     999902    2    1    2    0    0 -0.10829358772E-01  0.62942179922E-04  0.21789343868E-01  0.10195978304E+01  0.10193074518E+01 0.  0.
     999903    2    3    3    0    0 -0.42923391179E-01  0.19353848690E-01  0.11686095034E+00  0.13368543269E+00  0.44702619942E-01 0.  0.
         14    1    1    2    0    0  0.10829358772E-01 -0.62942179922E-04 -0.21789343868E-01  0.24332169638E-01  0.00000000000E+00 0.  1.
     999901    1    3    3    0    0  0.32094032407E-01 -0.19290906510E-01 -0.95071606473E-01  0.88591239767E+00  0.88000000000E+00 0.  1.
        -11    1    4    4    0    0 -0.78998320877E-03  0.22211243807E-01  0.48121737482E-01  0.53008736678E-01  0.51100000000E-03 0.  1.
         11    1    4    4    0    0 -0.42133407970E-01 -0.28573951163E-02  0.68739212859E-01  0.80676696013E-01  0.51100000000E-03 0. -1.
</event>
<event>
 8    1  0.2959109E+004  0.1043930E+01  0.7957747E-01            NaN
         13   -1    0    0    0    0  0.00000000000E+00  0.00000000000E+00  0.74505805969E-08  0.10566000000E+00  0.10566000000E+00 0.  1.
     999900   -1    0    0    0    0 -0.00000000000E+00 -0.00000000000E+00 -0.74505805969E-08  0.93827000000E+00  0.93827000000E+00 0. -1.
     999902    2    1    2    0    0 -0.88514512694E-02  0.28200224260E-02 -0.10602180093E-01  0.10298336551E+01  0.10297371753E+01 0.  0.
     999903    2    3    3    0    0  0.90831442178E-01  0.26954630539E-01 -0.92698770805E-01  0.14008143751E+00  0.45308321856E-01 0.  0.
         14    1    1    2    0    0  0.88514512694E-02 -0.28200224260E-02  0.10602180093E-01  0.14096344873E-01  0.00000000000E+00 0.  1.
     999901    1    3    3    0    0 -0.99682893447E-01 -0.24134608113E-01  0.82096590712E-01  0.88975221762E+00  0.88000000000E+00 0.  1.
        -11    1    4    4    0    0  0.70069455349E-01  0.44099390982E-02 -0.45035363142E-01  0.83412356339E-01  0.51100000000E-03 0. -1.
         11    1    4    4    0    0  0.20761986829E-01  0.22544691441E-01 -0.47663407663E-01  0.56669081167E-01  0.51100000000E-03 0.  1.
</event>
<event>
 8    1  0.2959109E+004  0.1043930E+01  0.7957747E-01            NaN
         13   -1    0    0    0    0  0.00000000000E+00  0.00000000000E+00  0.74505805969E-08  0.10566000000E+00  0.10566000000E+00 0.  1.
     999900   -1    0    0    0    0 -0.00000000000E+00 -0.00000000000E+00 -0.74505805969E-08  0.93827000000E+00  0.93827000000E+00 0. -1.
     999902    2    1    2    0    0  0.50774687698E-02  0.49827600614E-02 -0.12478568643E-01  0.10295660429E+01  0.10294658389E+01 0.  0.
     999903    2    3    3    0    0  0.54259914800E-01 -0.11642835696E+00 -0.32519087076E-01  0.13964402686E+00  0.44082451777E-01 0.  0.
         14    1    1    2    0    0 -0.50774687698E-02 -0.49827600614E-02  0.12478568643E-01  0.14363957057E-01  0.00000000000E+00 0.  1.
     999901    1    3    3    0    0 -0.49182446030E-01  0.12141111702E+00  0.20040518433E-01  0.88992201608E+00  0.88000000000E+00 0.  1.
        -11    1    4    4    0    0  0.11933831577E-01 -0.75440759118E-01 -0.12388945954E-01  0.77378754030E-01  0.51100000000E-03 0.  1.
         11    1    4    4    0    0  0.42326083223E-01 -0.40987597842E-01 -0.20130141122E-01  0.62265272828E-01  0.51100000000E-03 0. -1.
</event>
<event>
 8    1  0.2959109E+004  0.1043930E+01  0.7957747E-01            NaN
         13   -1    0    0    0    0  0.00000000000E+00  0.00000000000E+00  0.74505805969E-08  0.10566000000E+00  0.10566000000E+00 0. -1.
     999900   -1    0    0    0    0 -0.00000000000E+00 -0.00000000000E+00 -0.74505805969E-08  0.93827000000E+00  0.93827000000E+00 0.  1.
     999902    2    1    2    0    0 -0.66047800863E-02  0.11057746060E-01 -0.53905972643E-02  0.10299673567E+01  0.10298727108E+01 0.  0.
     999903    2    3    3    0    0 -0.40123576744E-01  0.50290683293E-01  0.11629148249E+00  0.14009699448E+00  0.44321605628E-01 0.  0.
         14    1    1    2    0    0  0.66047800863E-02 -0.11057746060E-01  0.53905972643E-02  0.13962643259E-01  0.00000000000E+00 0. -1.
     999901    1    3    3    0    0  0.33518796658E-01 -0.39232937233E-01 -0.12168207976E+00  0.88987036226E+00  0.88000000000E+00 0.  1.
        -11    1    4    4    0    0 -0.43343312500E-01  0.28211508906E-01  0.58164493972E-01  0.77832521822E-01  0.51100000000E-03 0.  1.
         11    1    4    4    0    0  0.32197357557E-02  0.22079174387E-01  0.58126988521E-01  0.62264472659E-01  0.51100000000E-03 0. -1.
</event>
<event>
 8    1  0.2959109E+004  0.1043930E+01  0.7957747E-01            NaN
         13   -1    0    0    0    0  0.00000000000E+00  0.00000000000E+00  0.74505805969E-08  0.10566000000E+00  0.10566000000E+00 0. -1.
     999900   -1    0    0    0    0 -0.00000000000E+00 -0.00000000000E+00 -0.74505805969E-08  0.93827000000E+00  0.93827000000E+00 0.  1.
     999902    2    1    2    0    0  0.98862399501E-02  0.78204758635E-02  0.65325707578E-02  0.10297323923E+01  0.10296345117E+01 0.  0.
     999903    2    3    3    0    0  0.28716333573E-01  0.11260049157E+00 -0.64182268735E-01  0.14050013209E+00  0.46015486305E-01 0.  0.
         14    1    1    2    0    0 -0.98862399501E-02 -0.78204758635E-02 -0.65325707578E-02  0.14197607678E-01  0.00000000000E+00 0.  1.
     999901    1    3    3    0    0 -0.18830093623E-01 -0.10478001571E+00  0.70714839492E-01  0.88923226023E+00  0.88000000000E+00 0. -1.
        -11    1    4    4    0    0  0.47169307609E-02  0.63503391425E-01 -0.56839921904E-01  0.85357881893E-01  0.51100000000E-03 0. -1.
         11    1    4    4    0    0  0.23999402812E-01  0.49097100149E-01 -0.73423468302E-02  0.55142250193E-01  0.51100000000E-03 0.  1.
</event>
<event>
 8    1  0.2959109E+004  0.1043930E+01  0.7957747E-01            NaN
         13   -1    0    0    0    0  0.00000000000E+00  0.00000000000E+00  0.74505805969E-08  0.10566000000E+00  0.10566000000E+00 0. -1.
     999900   -1    0    0    0    0 -0.00000000000E+00 -0.00000000000E+00 -0.74505805969E-08  0.93827000000E+00  0.93827000000E+00 0.  1.
     999902    2    1    2    0    0  0.74549158104E-03  0.73990173556E-02 -0.11901207014E-01  0.10298964707E+01  0.10298008548E+01 0.  0.
     999903    2    3    3    0    0  0.81025376046E-01 -0.47624071357E-01 -0.94146586581E-01  0.14071892794E+00  0.45881076474E-01 0.  0.
         14    1    1    2    0    0 -0.74549158104E-03 -0.73990173556E-02  0.11901207014E-01  0.14033529275E-01  0.00000000000E+00 0. -1.
     999901    1    3    3    0    0 -0.80279884465E-01  0.55023088712E-01  0.82245379567E-01  0.88917754279E+00  0.88000000000E+00 0. -1.
        -11    1    4    4    0    0  0.23505728264E-01 -0.21924206631E-02 -0.49628031425E-01  0.54959335820E-01  0.51100000000E-03 0. -1.
         11    1    4    4    0    0  0.57519647782E-01 -0.45431650694E-01 -0.44518555156E-01  0.85759592116E-01  0.51100000000E-03 0.  1.
</event>
<event>
 8    1  0.2959109E+004  0.1043930E+01  0.7957747E-01            NaN
         13   -1    0    0    0    0  0.00000000000E+00  0.00000000000E+00  0.74505805969E-08  0.10566000000E+00  0.10566000000E+00 0.  1.
     999900   -1    0    0    0    0 -0.00000000000E+00 -0.00000000000E+00 -0.74505805969E-08  0.93827000000E+00  0.93827000000E+00 0.  1.
     999902    2    1    2    0    0  0.94409590143E-02 -0.11527313468E-01  0.69302076603E-03  0.10290138698E+01  0.10289057553E+01 0.  0.
     999903    2    3    3    0    0  0.15949617205E-01 -0.55707846879E-01  0.11920837212E+00  0.13994684718E+00  0.44908012199E-01 0.  0.
         14    1    1    2    0    0 -0.94409590143E-02  0.11527313468E-01 -0.69302076603E-03  0.14916130218E-01  0.00000000000E+00 0.  1.
     999901    1    3    3    0    0 -0.65086581902E-02  0.44180533412E-01 -0.11851535136E+00  0.88906702260E+00  0.88000000000E+00 0.  1.
        -11    1    4    4    0    0  0.95606749940E-02 -0.43023661223E-03  0.51121511318E-01  0.52012129838E-01  0.51100000000E-03 0. -1.
         11    1    4    4    0    0  0.63889422105E-02 -0.55277610267E-01  0.68086860806E-01  0.87934717346E-01  0.51100000000E-03 0.  1.
</event>
<event>
 8    1  0.2959109E+004  0.1043930E+01  0.7957747E-01            NaN
         13   -1    0    0    0    0  0.00000000000E+00  0.00000000000E+00  0.74505805969E-08  0.10566000000E+00  0.10566000000E+00 0.  1.
     999900   -1    0    0    0    0 -0.00000000000E+00 -0.00000000000E+00 -0.74505805969E-08  0.93827000000E+00  0.93827000000E+00 0. -1.
     999902    2    1    2    0    0  0.10363499909E-01  0.75871797492E-03  0.89571690845E-02  0.10302110838E+01  0.10301197351E+01 0.  0.
     999903    2    3    3    0    0 -0.77563410935E-01  0.99071431971E-01 -0.38970790627E-01  0.13909177603E+00  0.44682975374E-01 0.  0.
         14    1    1    2    0    0 -0.10363499909E-01 -0.75871797492E-03 -0.89571690845E-02  0.13718916187E-01  0.00000000000E+00 0. -1.
     999901    1    3    3    0    0  0.87926910844E-01 -0.98312713996E-01  0.47927959711E-01  0.89111930778E+00  0.88000000000E+00 0. -1.
        -11    1    4    4    0    0 -0.52411703512E-01  0.30993282007E-01 -0.19699969821E-01  0.63999375985E-01  0.51100000000E-03 0.  1.
         11    1    4    4    0    0 -0.25151707423E-01  0.68078149963E-01 -0.19270820806E-01  0.75092400043E-01  0.51100000000E-03 0. -1.
</event>
<event>
 8    1  0.2959109E+004  0.1043930E+01  0.7957747E-01            NaN
         13   -1    0    0    0    0  0.00000000000E+00  0.00000000000E+00  0.74505805969E-08  0.10566000000E+00  0.10566000000E+00 0. -1.
     999900   -1    0    0    0    0 -0.00000000000E+00 -0.00000000000E+00 -0.74505805969E-08  0.93827000000E+00  0.93827000000E+00 0.  1.
     999902    2    1    2    0    0 -0.59671602729E-02  0.12321406884E-01  0.34429868258E-02  0.10298134059E+01  0.10297166469E+01 0.  0.
     999903    2    3    3    0    0  0.41828499254E-01  0.10025185381E+00 -0.76605625842E-01  0.14053056626E+00  0.45610970194E-01 0.  0.
         14    1    1    2    0    0  0.59671602729E-02 -0.12321406884E-01 -0.34429868258E-02  0.14116594051E-01  0.00000000000E+00 0.  1.
     999901    1    3    3    0    0 -0.47795659527E-01 -0.87930446925E-01  0.80048612667E-01  0.88928283968E+00  0.88000000000E+00 0. -1.
        -11    1    4    4    0    0  0.10904168503E-01  0.71849496833E-01 -0.63593534796E-01  0.96569404445E-01  0.51100000000E-03 0.  1.
         11    1    4    4    0    0  0.30924330751E-01  0.28402356976E-01 -0.13012091045E-01  0.43961161820E-01  0.51100000000E-03 0. -1.
</event>
<event>
 8    1  0.2959109E+004  0.1043930E+01  0.7957747E-01            NaN
         13   -1    0    0    0    0  0.00000000000E+00  0.00000000000E+00  0.74505805969E-08  0.10566000000E+00  0.10566000000E+00 0. -1.
     999900   -1    0    0    0    0 -0.00000000000E+00 -0.00000000000E+00 -0.74505805969E-08  0.93827000000E+00  0.93827000000E+00 0. -1.
     999902    2    1    2    0    0  0.85732204842E-02  0.10914290006E-01  0.78389569991E-03  0.10300290530E+01  0.10299352473E+01 0.  0.
     999903    2    3    3    0    0  0.60298916895E-01  0.11298122284E+00  0.41638147412E-01  0.14168099262E+00  0.44034671084E-01 0.  0.
         14    1    1    2    0    0 -0.85732204842E-02 -0.10914290006E-01 -0.78389569991E-03  0.13900947028E-01  0.00000000000E+00 0.  1.
     999901    1    3    3    0    0 -0.51725696411E-01 -0.10206693283E+00 -0.40854251712E-01  0.88834806035E+00  0.88000000000E+00 0. -1.
        -11    1    4    4    0    0  0.30987633895E-01  0.65349634913E-01  0.45780851617E-01  0.85597638598E-01  0.51100000000E-03 0.  1.
         11    1    4    4    0    0  0.29311283001E-01  0.47631587925E-01 -0.41427042054E-02  0.56083354023E-01  0.51100000000E-03 0. -1.
</event>
<event>
 8    1  0.2959109E+004  0.1043930E+01  0.7957747E-01            NaN
         13   -1    0    0    0    0  0.00000000000E+00  0.00000000000E+00  0.74505805969E-08  0.10566000000E+00  0.10566000000E+00 0.  1.
     999900   -1    0    0    0    0 -0.00000000000E+00 -0.00000000000E+00 -0.74505805969E-08  0.93827000000E+00  0.93827000000E+00 0. -1.
     999902    2    1    2    0    0  0.53125334448E-02  0.14392432776E-01 -0.52688905447E-03  0.10285793406E+01  0.10284647865E+01 0.  0.
     999903    2    3    3    0    0  0.32907511615E-01 -0.12528621672E+00  0.37935850556E-03  0.13713532706E+00  0.45015703866E-01 0.  0.
         14    1    1    2    0    0 -0.53125334448E-02 -0.14392432776E-01  0.52688905447E-03  0.15350659428E-01  0.00000000000E+00 0. -1.
     999901    1    3    3    0    0 -0.27594978171E-01  0.13967864949E+00 -0.90624756003E-03  0.89144401351E+00  0.88000000000E+00 0.  1.
        -11    1    4    4    0    0  0.30188300789E-01 -0.77808864749E-01  0.19778666615E-01  0.85773012726E-01  0.51100000000E-03 0. -1.
         11    1    4    4    0    0  0.27192108263E-02 -0.47477351968E-01 -0.19399308110E-01  0.51362314332E-01  0.51100000000E-03 0.  1.
</event>
<event>
 8    1  0.2959109E+004  0.1043930E+01  0.7957747E-01            NaN
         13   -1    0    0    0    0  0.00000000000E+00  0.00000000000E+00  0.74505805969E-08  0.10566000000E+00  0.10566000000E+00 0. -1.
     999900   -1    0    0    0    0 -0.00000000000E+00 -0.00000000000E+00 -0.74505805969E-08  0.93827000000E+00  0.93827000000E+00 0. -1.
     999902    2    1    2    0    0  0.13910767061E-01 -0.10349236565E-01 -0.13396734325E-01  0.10220190751E+01  0.10217841755E+01 0.  0.
     999903    2    3    3    0    0 -0.19002600398E-01 -0.52882411052E-01 -0.11388128625E+00  0.13466936625E+00  0.44824576154E-01 0.  0.
         14    1    1    2    0    0 -0.13910767061E-01  0.10349236565E-01  0.13396734325E-01  0.21910924861E-01  0.00000000000E+00 0. -1.
     999901    1    3    3    0    0  0.32913367458E-01  0.42533174487E-01  0.10048455193E+00  0.88734970889E+00  0.88000000000E+00 0.  1.
        -11    1    4    4    0    0 -0.29871719222E-01 -0.50001562268E-01 -0.79935993272E-01  0.98906521422E-01  0.51100000000E-03 0.  1.
         11    1    4    4    0    0  0.10869118824E-01 -0.28808487845E-02 -0.33945292980E-01  0.35762844828E-01  0.51100000000E-03 0. -1.
</event>
<event>
 8    1  0.2959109E+004  0.1043930E+01  0.7957747E-01            NaN
         13   -1    0    0    0    0  0.00000000000E+00  0.00000000000E+00  0.74505805969E-08  0.10566000000E+00  0.10566000000E+00 0.  1.
     999900   -1    0    0    0    0 -0.00000000000E+00 -0.00000000000E+00 -0.74505805969E-08  0.93827000000E+00  0.93827000000E+00 0.  1.
     999902    2    1    2    0    0 -0.58863132974E-02  0.13009817992E-01  0.43553538145E-03  0.10296438620E+01  0.10295447483E+01 0.  0.
     999903    2    3    3    0    0 -0.84460264356E-01  0.10399546271E+00 -0.56004526257E-02  0.14144980296E+00  0.45034311005E-01 0.  0.
         14    1    1    2    0    0  0.58863132974E-02 -0.13009817992E-01 -0.43553538145E-03  0.14286138019E-01  0.00000000000E+00 0. -1.
     999901    1    3    3    0    0  0.78573951059E-01 -0.90985644720E-01  0.60359880071E-02  0.88819405902E+00  0.88000000000E+00 0.  1.
        -11    1    4    4    0    0 -0.72751636468E-01  0.63014080211E-01  0.83257182160E-02  0.96608248191E-01  0.51100000000E-03 0. -1.
         11    1    4    4    0    0 -0.11708627888E-01  0.40981382501E-01 -0.13926170842E-01  0.44841554769E-01  0.51100000000E-03 0.  1.
</event>
<event>
 8    1  0.2959109E+004  0.1043930E+01  0.7957747E-01            NaN
         13   -1    0    0    0    0  0.00000000000E+00  0.00000000000E+00  0.74505805969E-08  0.10566000000E+00  0.10566000000E+00 0.  1.
     999900   -1    0    0    0    0 -0.00000000000E+00 -0.00000000000E+00 -0.74505805969E-08  0.93827000000E+00  0.93827000000E+00 0.  1.
     999902    2    1    2    0    0 -0.36894945226E-02 -0.11756464856E-01  0.58300714480E-02  0.10302985449E+01  0.10302083648E+01 0.  0.
     999903    2    3    3    0    0  0.21038674545E-01 -0.32224517668E-01 -0.12625719346E+00  0.13986187162E+00  0.46253852445E-01 0.  0.
         14    1    1    2    0    0  0.36894945226E-02  0.11756464856E-01 -0.58300714480E-02  0.13631455125E-01  0.00000000000E+00 0. -1.
     999901    1    3    3    0    0 -0.24728169068E-01  0.20468052812E-01  0.13208726491E+00  0.89043667326E+00  0.88000000000E+00 0. -1.
        -11    1    4    4    0    0  0.24945138191E-01 -0.40692427303E-01 -0.84279674857E-01  0.96857928298E-01  0.51100000000E-03 0.  1.
         11    1    4    4    0    0 -0.39064636461E-02  0.84679096351E-02 -0.41977518604E-01  0.43003943319E-01  0.51100000000E-03 0. -1.
</event>
<event>
 8    1  0.2959109E+004  0.1043930E+01  0.7957747E-01            NaN
         13   -1    0    0    0    0  0.00000000000E+00  0.00000000000E+00  0.74505805969E-08  0.10566000000E+00  0.10566000000E+00 0.  1.
     999900   -1    0    0    0    0 -0.00000000000E+00 -0.00000000000E+00 -0.74505805969E-08  0.93827000000E+00  0.93827000000E+00 0. -1.
     999902    2    1    2    0    0  0.14696848037E-02  0.10540931515E-01 -0.91996268591E-02  0.10298621521E+01  0.10297660647E+01 0.  0.
     999903    2    3    3    0    0 -0.25524164987E-01 -0.12552691569E+00 -0.28328117380E-01  0.13879031092E+00  0.45296562884E-01 0.  0.
         14    1    1    2    0    0 -0.14696848037E-02 -0.10540931515E-01  0.91996268591E-02  0.14067847915E-01  0.00000000000E+00 0. -1.
     999901    1    3    3    0    0  0.26993849791E-01  0.13606784721E+00  0.19128490521E-01  0.89107184117E+00  0.88000000000E+00 0. -1.
        -11    1    4    4    0    0  0.12079417212E-01 -0.33913065409E-01 -0.83840574887E-03  0.36013502618E-01  0.51100000000E-03 0.  1.
         11    1    4    4    0    0 -0.37603582199E-01 -0.91613850282E-01 -0.27489711631E-01  0.10277680830E+00  0.51100000000E-03 0. -1.
</event>
<event>
 8    1  0.2959109E+004  0.1043930E+01  0.7957747E-01            NaN
         13   -1    0    0    0    0  0.00000000000E+00  0.00000000000E+00  0.74505805969E-08  0.10566000000E+00  0.10566000000E+00 0. -1.
     999900   -1    0    0    0    0 -0.00000000000E+00 -0.00000000000E+00 -0.74505805969E-08  0.93827000000E+00  0.93827000000E+00 0.  1.
     999902    2    1    2    0    0 -0.45377002010E-02  0.15436058645E-01 -0.57882905580E-02  0.10268312592E+01  0.10266888857E+01 0.  0.
     999903    2    3    3    0    0  0.57659248698E-01  0.85936058144E-02  0.11479145630E+00  0.13640734051E+00  0.45071555140E-01 0.  0.
         14    1    1    2    0    0  0.45377002010E-02 -0.15436058645E-01  0.57882905580E-02  0.17098740807E-01  0.00000000000E+00 0. -1.
     999901    1    3    3    0    0 -0.62196948899E-01  0.68424528306E-02 -0.12057974686E+00  0.89042391869E+00  0.88000000000E+00 0.  1.
        -11    1    4    4    0    0  0.63304051206E-01  0.14118996392E-01  0.94418402148E-01  0.11455062088E+00  0.51100000000E-03 0. -1.
         11    1    4    4    0    0 -0.56448025074E-02 -0.55253905773E-02  0.20373054156E-01  0.21856719630E-01  0.51100000000E-03 0.  1.
</event>
<event>
 7    1  0.2959109E+004  0.1043930E+01  0.7957747E-01            NaN
         13   -1    0    0    0    0  0.00000000000E+00  0.00000000000E+00  0.74505805969E-08  0.10566000000E+00  0.10566000000E+00 0.  1.
     999900   -1    0    0    0    0 -0.00000000000E+00 -0.00000000000E+00 -0.74505805969E-08  0.93827000000E+00  0.93827000000E+00 0. -1.
     999903    2    1    2    0    0 -0.11183228672E+00  0.31014279486E-01  0.23128213042E-01  0.12510709596E+00  0.40602036109E-01 0.  0.
         14    1    1    2    0    0  0.29750364820E-01 -0.15149116663E-01 -0.96726700075E-02  0.34758315374E-01  0.00000000000E+00 0.  1.
     999901    1    1    2    0    0  0.82081921899E-01 -0.15865162823E-01 -0.13455543034E-01  0.88406458867E+00  0.88000000000E+00 0. -1.
        -11    1    3    3    0    0 -0.33989090211E-01 -0.16989146503E-02  0.22250885638E-01  0.40663344637E-01  0.51100000000E-03 0.  1.
         11    1    3    3    0    0 -0.77843196508E-01  0.32713194136E-01  0.87732740361E-03  0.84443751323E-01  0.51100000000E-03 0. -1.
</event>
<event>
 8    1  0.2959109E+004  0.1043930E+01  0.7957747E-01            NaN
         13   -1    0    0    0    0  0.00000000000E+00  0.00000000000E+00  0.74505805969E-08  0.10566000000E+00  0.10566000000E+00 0.  1.
     999900   -1    0    0    0    0 -0.00000000000E+00 -0.00000000000E+00 -0.74505805969E-08  0.93827000000E+00  0.93827000000E+00 0.  1.
     999902    2    1    2    0    0  0.11443469310E-01  0.31329994367E-02 -0.86573387028E-02  0.10292426521E+01  0.10291378521E+01 0.  0.
     999903    2    3    3    0    0 -0.11396613067E+00 -0.41503304956E-01  0.46386514696E-01  0.13753093116E+00  0.45301710999E-01 0.  0.
         14    1    1    2    0    0 -0.11443469310E-01 -0.31329994367E-02  0.86573387028E-02  0.14687347914E-01  0.00000000000E+00 0.  1.
     999901    1    3    3    0    0  0.12540959998E+00  0.44636304393E-01 -0.55043853399E-01  0.89171172092E+00  0.88000000000E+00 0.  1.
        -11    1    4    4    0    0 -0.95522257917E-01 -0.49413905980E-01  0.30100787061E-01  0.11168059081E+00  0.51100000000E-03 0.  1.
         11    1    4    4    0    0 -0.18443872750E-01  0.79106010240E-02  0.16285727635E-01  0.25850340349E-01  0.51100000000E-03 0. -1.
</event>
<event>
 8    1  0.2959109E+004  0.1043930E+01  0.7957747E-01            NaN
         13   -1    0    0    0    0  0.00000000000E+00  0.00000000000E+00  0.74505805969E-08  0.10566000000E+00  0.10566000000E+00 0.  1.
     999900   -1    0    0    0    0 -0.00000000000E+00 -0.00000000000E+00 -0.74505805969E-08  0.93827000000E+00  0.93827000000E+00 0. -1.
     999902    2    1    2    0    0 -0.11929976700E-01  0.59758833952E-02 -0.18459285411E-02  0.10304599228E+01  0.10303718793E+01 0.  0.
     999903    2    3    3    0    0 -0.12343468785E+00  0.22084884027E-01  0.48712704997E-01  0.14183796952E+00  0.44957954831E-01 0.  0.
         14    1    1    2    0    0  0.11929976700E-01 -0.59758833952E-02  0.18459285411E-02  0.13470077156E-01  0.00000000000E+00 0.  1.
     999901    1    3    3    0    0  0.11150471115E+00 -0.16109000632E-01 -0.50558633538E-01  0.88862195333E+00  0.88000000000E+00 0. -1.
        -11    1    4    4    0    0 -0.90155678033E-01  0.57542431822E-02  0.52638334822E-01  0.10455722361E+00  0.51100000000E-03 0. -1.
         11    1    4    4    0    0 -0.33279009812E-01  0.16330640845E-01 -0.39256298248E-02  0.37280745902E-01  0.51100000000E-03 0.  1.
</event>
<event>
 8    1  0.2959109E+004  0.1043930E+01  0.7957747E-01            NaN
         13   -1    0    0    0    0  0.00000000000E+00  0.00000000000E+00  0.74505805969E-08  0.10566000000E+00  0.10566000000E+00 0. -1.
     999900   -1    0    0    0    0 -0.00000000000E+00 -0.00000000000E+00 -0.74505805969E-08  0.93827000000E+00  0.93827000000E+00 0. -1.
     999902    2    1    2    0    0 -0.14498530105E-01 -0.62430520283E-02  0.34734584510E-02  0.10277668324E+01  0.10276397296E+01 0.  0.
     999903    2    3    3    0    0 -0.10035546189E+00  0.51489951909E-01 -0.67904038921E-01  0.13883530543E+00  0.44066423199E-01 0.  0.
         14    1    1    2    0    0  0.14498530105E-01  0.62430520283E-02 -0.34734584510E-02  0.16163167618E-01  0.00000000000E+00 0.  1.
     999901    1    3    3    0    0  0.85856931782E-01 -0.57733003937E-01  0.71377497372E-01  0.88893152695E+00  0.88000000000E+00 0.  1.
        -11    1    4    4    0    0 -0.43675755844E-01  0.28159362411E-01 -0.70206489004E-02  0.52441128629E-01  0.51100000000E-03 0. -1.
         11    1    4    4    0    0 -0.56679706044E-01  0.23330589498E-01 -0.60883390021E-01  0.86394176800E-01  0.51100000000E-03 0.  1.
</event>
<event>
 8    1  0.2959109E+004  0.1043930E+01  0.7957747E-01            NaN
         13   -1    0    0    0    0  0.00000000000E+00  0.00000000000E+00  0.74505805969E-08  0.10566000000E+00  0.10566000000E+00 0.  1.
     999900   -1    0    0    0    0 -0.00000000000E+00 -0.00000000000E+00 -0.74505805969E-08  0.93827000000E+00  0.93827000000E+00 0.  1.
     999902    2    1    2    0    0 -0.13273951754E-01 -0.77044720517E-03  0.48848583122E-02  0.10297647882E+01  0.10296673569E+01 0.  0.
     999903    2    3    3    0    0 -0.10756385646E+00  0.40583336626E-01 -0.67962805392E-01  0.14077237899E+00  0.44507632384E-01 0.  0.
         14    1    1    2    0    0  0.13273951754E-01  0.77044720517E-03 -0.48848583122E-02  0.14165211780E-01  0.00000000000E+00 0. -1.
     999901    1    3    3    0    0  0.94289904707E-01 -0.41353783832E-01  0.72847663704E-01  0.88899240923E+00  0.88000000000E+00 0. -1.
        -11    1    4    4    0    0 -0.12272442615E-02  0.13408875316E-01 -0.87061862418E-02  0.16042533017E-01  0.51100000000E-03 0.  1.
         11    1    4    4    0    0 -0.10633661220E+00  0.27174461310E-01 -0.59256619150E-01  0.12472984597E+00  0.51100000000E-03 0. -1.
</event>
<event>
 8    1  0.2959109E+004  0.1043930E+01  0.7957747E-01            NaN
         13   -1    0    0    0    0  0.00000000000E+00  0.00000000000E+00  0.74505805969E-08  0.10566000000E+00  0.10566000000E+00 0. -1.
     999900   -1    0    0    0    0 -0.00000000000E+00 -0.00000000000E+00 -0.74505805969E-08  0.93827000000E+00  0.93827000000E+00 0. -1.
     999902    2    1    2    0    0 -0.11113621746E-01 -0.54712505311E-02 -0.38980684570E-02  0.10309437724E+01  0.10308619790E+01 0.  0.
     999903    2    3    3    0    0  0.48370330590E-01  0.11993779346E+00 -0.28164333502E-01  0.13973413343E+00  0.44806642163E-01 0.  0.
         14    1    1    2    0    0  0.11113621746E-01  0.54712505311E-02  0.38980684570E-02  0.12986227642E-01  0.00000000000E+00 0.  1.
     999901    1    3    3    0    0 -0.59483952335E-01 -0.12540904399E+00  0.24266265045E-01  0.89120963893E+00  0.88000000000E+00 0.  1.
        -11    1    4    4    0    0  0.32424270441E-01  0.30036789660E-01 -0.18504475517E-01  0.47918877093E-01  0.51100000000E-03 0. -1.
         11    1    4    4    0    0  0.15946060149E-01  0.89901003801E-01 -0.96598579843E-02  0.91815256336E-01  0.51100000000E-03 0.  1.
</event>
<event>
 8    1  0.2959109E+004  0.1043930E+01  0.7957747E-01            NaN
         13   -1    0    0    0    0  0.00000000000E+00  0.00000000000E+00  0.74505805969E-08  0.10566000000E+00  0.10566000000E+00 0. -1.
     999900   -1    0    0    0    0 -0.00000000000E+00 -0.00000000000E+00 -0.74505805969E-08  0.93827000000E+00  0.93827000000E+00 0. -1.
     999902    2    1    2    0    0 -0.70904397276E-02  0.10039043672E-01  0.61671952585E-02  0.10301789626E+01  0.10300871827E+01 0.  0.
     999903    2    3    3    0    0 -0.65907679039E-02 -0.12568690613E+00  0.38923243883E-01  0.13917125112E+00  0.44866263826E-01 0.  0.
         14    1    1    2    0    0  0.70904397276E-02 -0.10039043672E-01 -0.61671952585E-02  0.13751037442E-01  0.00000000000E+00 0.  1.
     999901    1    3    3    0    0 -0.49967182369E-03  0.13572594980E+00 -0.32756048624E-01  0.89100771144E+00  0.88000000000E+00 0. -1.
        -11    1    4    4    0    0 -0.23560068798E-01 -0.44330052530E-01  0.10135783114E-01  0.51217434721E-01  0.51100000000E-03 0.  1.
         11    1    4    4    0    0  0.16969300894E-01 -0.81356853600E-01  0.28787460769E-01  0.87953816398E-01  0.51100000000E-03 0. -1.
</event>
<event>
 8    1  0.2959109E+004  0.1043930E+01  0.7957747E-01            NaN
         13   -1    0    0    0    0  0.00000000000E+00  0.00000000000E+00  0.74505805969E-08  0.10566000000E+00  0.10566000000E+00 0.  1.
     999900   -1    0    0    0    0 -0.00000000000E+00 -0.00000000000E+00 -0.74505805969E-08  0.93827000000E+00  0.93827000000E+00 0.  1.
     999902    2    1    2    0    0  0.12094837980E-01  0.34391232568E-03  0.75797176104E-02  0.10296522025E+01  0.10295532054E+01 0.  0.
     999903    2    3    3    0    0  0.93972114188E-01 -0.71981075718E-03 -0.93623263231E-01  0.14007530131E+00  0.44994424603E-01 0.  0.
         14    1    1    2    0    0 -0.12094837980E-01 -0.34391232568E-03 -0.75797176104E-02  0.14277797467E-01  0.00000000000E+00 0.  1.
     999901    1    3    3    0    0 -0.81877276208E-01  0.10637230829E-02  0.10120298084E+00  0.88957690123E+00  0.88000000000E+00 0. -1.
        -11    1    4    4    0    0  0.25744171455E-01  0.19643892009E-01 -0.36439310991E-01  0.48751711392E-01  0.51100000000E-03 0. -1.
         11    1    4    4    0    0  0.68227942733E-01 -0.20363702766E-01 -0.57183952240E-01  0.91323589914E-01  0.51100000000E-03 0.  1.
</event>
<event>
 8    1  0.2959109E+004  0.1043930E+01  0.7957747E-01            NaN
         13   -1    0    0    0    0  0.00000000000E+00  0.00000000000E+00  0.74505805969E-08  0.10566000000E+00  0.10566000000E+00 0.  1.
     999900   -1    0    0    0    0 -0.00000000000E+00 -0.00000000000E+00 -0.74505805969E-08  0.93827000000E+00  0.93827000000E+00 0. -1.
     999902    2    1    2    0    0  0.77539457226E-02 -0.68483665523E-03  0.11304513036E-01  0.10302046697E+01  0.10301132350E+01 0.  0.
     999903    2    3    3    0    0  0.53068938875E-01  0.59772385124E-01  0.10813388224E+00  0.14167529431E+00  0.44608320224E-01 0.  0.
         14    1    1    2    0    0 -0.77539457226E-02  0.68483665523E-03 -0.11304513036E-01  0.13725330251E-01  0.00000000000E+00 0.  1.
     999901    1    3    3    0    0 -0.45314993152E-01 -0.60457221780E-01 -0.96829369207E-01  0.88852937543E+00  0.88000000000E+00 0. -1.
        -11    1    4    4    0    0 -0.23598332253E-02  0.23530489617E-01  0.41246146965E-01  0.47547434368E-01  0.51100000000E-03 0.  1.
         11    1    4    4    0    0  0.55428772100E-01  0.36241895508E-01  0.66887735278E-01  0.94127859946E-01  0.51100000000E-03 0. -1.
</event>
<event>
 8    1  0.2959109E+004  0.1043930E+01  0.7957747E-01            NaN
         13   -1    0    0    0    0  0.00000000000E+00  0.00000000000E+00  0.74505805969E-08  0.10566000000E+00  0.10566000000E+00 0.  1.
     999900   -1    0    0    0    0 -0.00000000000E+00 -0.00000000000E+00 -0.74505805969E-08  0.93827000000E+00  0.93827000000E+00 0. -1.
     999902    2    1    2    0    0  0.56369228148E-02  0.58612639098E-02 -0.99019948580E-02  0.10311167719E+01  0.10310371566E+01 0.  0.
     999903    2    3    3    0    0 -0.48165344270E-02  0.13244366488E+00  0.20292415275E-01  0.14148534176E+00  0.45186241746E-01 0.  0.
         14    1    1    2    0    0 -0.56369228148E-02 -0.58612639098E-02  0.99019948580E-02  0.12813228149E-01  0.00000000000E+00 0.  1.
     999901    1    3    3    0    0  0.10453457242E-01 -0.12658240097E+00 -0.30194410133E-01  0.88963143009E+00  0.88000000000E+00 0. -1.
        -11    1    4    4    0    0 -0.17773404376E-01  0.10730089608E+00  0.27711934023E-01  0.11223897991E+00  0.51100000000E-03 0.  1.
         11    1    4    4    0    0  0.12956869949E-01  0.25142768804E-01 -0.74195187483E-02  0.29246361850E-01  0.51100000000E-03 0. -1.
</event>
<event>
 8    1  0.2959109E+004  0.1043930E+01  0.7957747E-01            NaN
         13   -1    0    0    0    0  0.00000000000E+00  0.00000000000E+00  0.74505805969E-08  0.10566000000E+00  0.10566000000E+00 0.  1.
     999900   -1    0    0    0    0 -0.00000000000E+00 -0.00000000000E+00 -0.74505805969E-08  0.93827000000E+00  0.93827000000E+00 0. -1.
     999902    2    1    2    0    0  0.25401285192E-02 -0.83957494138E-02  0.11085462290E-01  0.10297939349E+01  0.10296969069E+01 0.  0.
     999903    2    3    3    0    0  0.55597797961E-01 -0.39834943605E-01  0.11498689002E+00  0.14153775236E+00  0.46184549313E-01 0.  0.
         14    1    1    2    0    0 -0.25401285192E-02  0.83957494138E-02 -0.11085462290E-01  0.14136065057E-01  0.00000000000E+00 0.  1.
     999901    1    3    3    0    0 -0.53057669441E-01  0.31439194191E-01 -0.10390142773E+00  0.88825618259E+00  0.88000000000E+00 0. -1.
        -11    1    4    4    0    0  0.57680456269E-01 -0.37083517216E-01  0.75879278724E-01  0.10227486664E+00  0.51100000000E-03 0. -1.
         11    1    4    4    0    0 -0.20826583083E-02 -0.27514263889E-02  0.39107611297E-01  0.39262885721E-01  0.51100000000E-03 0.  1.
</event>
<event>
 8    1  0.2959109E+004  0.1043930E+01  0.7957747E-01            NaN
         13   -1    0    0    0    0  0.00000000000E+00  0.00000000000E+00  0.74505805969E-08  0.10566000000E+00  0.10566000000E+00 0. -1.
     999900   -1    0    0    0    0 -0.00000000000E+00 -0.00000000000E+00 -0.74505805969E-08  0.93827000000E+00  0.93827000000E+00 0.  1.
     999902    2    1    2    0    0 -0.10690742098E-01 -0.63345972076E-02 -0.56063053816E-02  0.10302973279E+01  0.10302071317E+01 0.  0.
     999903    2    3    3    0    0 -0.12066562606E+00 -0.47930657531E-01  0.33128858399E-01  0.14163253157E+00  0.45877134778E-01 0.  0.
         14    1    1    2    0    0  0.10690742098E-01  0.63345972076E-02  0.56063053816E-02  0.13632672094E-01  0.00000000000E+00 0.  1.
     999901    1    3    3    0    0  0.10997488396E+00  0.41596060323E-01 -0.38735163781E-01  0.88866479634E+00  0.88000000000E+00 0.  1.
        -11    1    4    4    0    0 -0.95178348771E-01 -0.52183748550E-01  0.13928968926E-01  0.10943646094E+00  0.51100000000E-03 0. -1.
         11    1    4    4    0    0 -0.25487277291E-01  0.42530910188E-02  0.19199889473E-01  0.32196070625E-01  0.51100000000E-03 0.  1.
</event>
<event>
 8    1  0.2959109E+004  0.1043930E+01  0.7957747E-01            NaN
         13   -1    0    0    0    0  0.00000000000E+00  0.00000000000E+00  0.74505805969E-08  0.10566000000E+00  0.10566000000E+00 0. -1.
     999900   -1    0    0    0    0 -0.00000000000E+00 -0.00000000000E+00 -0.74505805969E-08  0.93827000000E+00  0.93827000000E+00 0.  1.
     999902    2    1    2    0    0  0.13783812396E-01 -0.37054129746E-02 -0.17613725508E-02  0.10295485535E+01  0.10294481036E+01 0.  0.
     999903    2    3    3    0    0  0.33611745476E-01 -0.12841437884E+00  0.42035299150E-02  0.14051477849E+00  0.45899141406E-01 0.  0.
         14    1    1    2    0    0 -0.13783812396E-01  0.37054129746E-02  0.17613725508E-02  0.14381446476E-01  0.00000000000E+00 0. -1.
     999901    1    3    3    0    0 -0.19827933081E-01  0.12470896587E+00 -0.59649024658E-02  0.88903377504E+00  0.88000000000E+00 0.  1.
        -11    1    4    4    0    0  0.31362915871E-01 -0.77499072044E-01  0.22131904138E-01  0.86485958174E-01  0.51100000000E-03 0.  1.
         11    1    4    4    0    0  0.22488296054E-02 -0.50915306798E-01 -0.17928374223E-01  0.54028820311E-01  0.51100000000E-03 0. -1.
</event>
<event>
 8    1  0.2959109E+004  0.1043930E+01  0.7957747E-01            NaN
         13   -1    0    0    0    0  0.00000000000E+00  0.00000000000E+00  0.74505805969E-08  0.10566000000E+00  0.10566000000E+00 0.  1.
     999900   -1    0    0    0    0 -0.00000000000E+00 -0.00000000000E+00 -0.74505805969E-08  0.93827000000E+00  0.93827000000E+00 0. -1.
     999902    2    1    2    0    0  0.87932385256E-02  0.75047439139E-02 -0.37303048133E-02  0.10317826793E+01  0.10317111708E+01 0.  0.
     999903    2    3    3    0    0 -0.11649255743E+00  0.98085492396E-02  0.63292497615E-01  0.14038271624E+00  0.45107019295E-01 0.  0.
         14    1    1    2    0    0 -0.87932385256E-02 -0.75047439139E-02  0.37303048133E-02  0.12147320650E-01  0.00000000000E+00 0. -1.
     999901    1    3    3    0    0  0.12528579596E+00 -0.23038053257E-02 -0.67022802428E-01  0.89139996311E+00  0.88000000000E+00 0.  1.
        -11    1    4    4    0    0 -0.55798740903E-01 -0.13205602462E-02  0.54572307865E-01  0.78061778563E-01  0.51100000000E-03 0. -1.
         11    1    4    4    0    0 -0.60693816527E-01  0.11129109486E-01  0.87201897493E-02  0.62320937676E-01  0.51100000000E-03 0.  1.
</event>
<event>
 8    1  0.2959109E+004  0.1043930E+01  0.7957747E-01            NaN
         13   -1    0    0    0    0  0.00000000000E+00  0.00000000000E+00  0.74505805969E-08  0.10566000000E+00  0.10566000000E+00 0. -1.
     999900   -1    0    0    0    0 -0.00000000000E+00 -0.00000000000E+00 -0.74505805969E-08  0.93827000000E+00  0.93827000000E+00 0.  1.
     999902    2    1    2    0    0 -0.32964259850E-02 -0.10603286674E-01  0.86489267951E-02  0.10298551981E+01  0.10297590151E+01 0.  0.
     999903    2    3    3    0    0 -0.97078631996E-01  0.60361684333E-02  0.91534962496E-01  0.14084334865E+00  0.44693437769E-01 0.  0.
         14    1    1    2    0    0  0.32964259850E-02  0.10603286674E-01 -0.86489267951E-02  0.14074801856E-01  0.00000000000E+00 0.  1.
     999901    1    3    3    0    0  0.93782206011E-01 -0.16639455107E-01 -0.82886035701E-01  0.88901184950E+00  0.88000000000E+00 0.  1.
        -11    1    4    4    0    0 -0.29613098595E-01 -0.15737665283E-01  0.44669449104E-01  0.55859023633E-01  0.51100000000E-03 0. -1.
         11    1    4    4    0    0 -0.67465533401E-01  0.21773833716E-01  0.46865513392E-01  0.84984325015E-01  0.51100000000E-03 0.  1.
</event>
<event>
 8    1  0.2959109E+004  0.1043930E+01  0.7957747E-01            NaN
         13   -1    0    0    0    0  0.00000000000E+00  0.00000000000E+00  0.74505805969E-08  0.10566000000E+00  0.10566000000E+00 0. -1.
     999900   -1    0    0    0    0 -0.00000000000E+00 -0.00000000000E+00 -0.74505805969E-08  0.93827000000E+00  0.93827000000E+00 0. -1.
     999902    2    1    2    0    0  0.11206125958E-01 -0.49244636149E-02 -0.25414256808E-04  0.10316895651E+01  0.10316169495E+01 0.  0.
     999903    2    3    3    0    0 -0.47002085256E-01 -0.12514466318E+00 -0.11265444230E-01  0.14153933591E+00  0.45123061009E-01 0.  0.
         14    1    1    2    0    0 -0.11206125958E-01  0.49244636149E-02  0.25414256808E-04  0.12240434909E-01  0.00000000000E+00 0. -1.
     999901    1    3    3    0    0  0.58208211214E-01  0.12022019957E+00  0.11240029973E-01  0.89015022918E+00  0.88000000000E+00 0. -1.
        -11    1    4    4    0    0 -0.43519074342E-01 -0.85696029530E-01  0.99178504399E-02  0.96624759701E-01  0.51100000000E-03 0. -1.
         11    1    4    4    0    0 -0.34830109133E-02 -0.39448633652E-01 -0.21183294669E-01  0.44914576209E-01  0.51100000000E-03 0.  1.
</event>
<event>
 8    1  0.2959109E+004  0.1043930E+01  0.7957747E-01            NaN
         13   -1    0    0    0    0  0.00000000000E+00  0.00000000000E+00  0.74505805969E-08  0.10566000000E+00  0.10566000000E+00 0.  1.
     999900   -1    0    0    0    0 -0.00000000000E+00 -0.00000000000E+00 -0.74505805969E-08  0.93827000000E+00  0.93827000000E+00 0.  1.
     999902    2    1    2    0    0  0.15675306358E-02 -0.13709710981E-01  0.28696600302E-02  0.10298357361E+01  0.10297392850E+01 0.  0.
     999903    2    3    3    0    0 -0.11047687263E+00  0.63218179719E-01  0.31992502345E-01  0.13892609495E+00  0.45555043819E-01 0.  0.
         14    1    1    2    0    0 -0.15675306358E-02  0.13709710981E-01 -0.28696600302E-02  0.14094263945E-01  0.00000000000E+00 0.  1.
     999901    1    3    3    0    0  0.11204440327E+00 -0.76927890700E-01 -0.29122842315E-01  0.89090964111E+00  0.88000000000E+00 0. -1.
        -11    1    4    4    0    0 -0.10265825323E+00  0.39870865387E-01  0.21767691012E-01  0.11226084071E+00  0.51100000000E-03 0. -1.
         11    1    4    4    0    0 -0.78186194000E-02  0.23347314332E-01  0.10224811333E-01  0.26665254239E-01  0.51100000000E-03 0.  1.
</event>
<event>
 8    1  0.2959109E+004  0.1043930E+01  0.7957747E-01            NaN
         13   -1    0    0    0    0  0.00000000000E+00  0.00000000000E+00  0.74505805969E-08  0.10566000000E+00  0.10566000000E+00 0. -1.
     999900   -1    0    0    0    0 -0.00000000000E+00 -0.00000000000E+00 -0.74505805969E-08  0.93827000000E+00  0.93827000000E+00 0.  1.
     999902    2    1    2    0    0 -0.29898884306E-03 -0.13974655643E-01  0.63201763150E-02  0.10285896929E+01  0.10284752944E+01 0.  0.
     999903    2    3    3    0    0 -0.11527043285E+00 -0.55785988875E-01  0.31761500672E-01  0.13976244220E+00  0.46102039871E-01 0.  0.
         14    1    1    2    0    0  0.29898884306E-03  0.13974655643E-01 -0.63201763150E-02  0.15340307145E-01  0.00000000000E+00 0.  1.
     999901    1    3    3    0    0  0.11497144401E+00  0.41811333232E-01 -0.25441324357E-01  0.88882725066E+00  0.88000000000E+00 0.  1.
        -11    1    4    4    0    0 -0.51323790381E-01 -0.20770936222E-01  0.37115511264E-01  0.66658724470E-01  0.51100000000E-03 0. -1.
         11    1    4    4    0    0 -0.63946642469E-01 -0.35015052654E-01 -0.53540105914E-02  0.73103717729E-01  0.51100000000E-03 0.  1.
</event>
<event>
 8    1  0.2959109E+004  0.1043930E+01  0.7957747E-01            NaN
         13   -1    0    0    0    0  0.00000000000E+00  0.00000000000E+00  0.74505805969E-08  0.10566000000E+00  0.10566000000E+00 0.  1.
     999900   -1    0    0    0    0 -0.00000000000E+00 -0.00000000000E+00 -0.74505805969E-08  0.93827000000E+00  0.93827000000E+00 0. -1.
     999902    2    1    2    0    0 -0.20811222586E-02  0.50818275220E-02  0.11549505701E-01  0.10311414456E+01  0.10310621387E+01 0.  0.
     999903    2    3    3    0    0 -0.60593759738E-01  0.81853420590E-01  0.89060650488E-01  0.14247638848E+00  0.44678133653E-01 0.  0.
         14    1    1    2    0    0  0.20811222586E-02 -0.50818275220E-02 -0.11549505701E-01  0.12788554365E-01  0.00000000000E+00 0. -1.
     999901    1    3    3    0    0  0.58512637480E-01 -0.76771593068E-01 -0.77511144787E-01  0.88866505716E+00  0.88000000000E+00 0.  1.
        -11    1    4    4    0    0 -0.43227671164E-01  0.80567637059E-01  0.62651723470E-01  0.11083896098E+00  0.51100000000E-03 0.  1.
         11    1    4    4    0    0 -0.17366088575E-01  0.12857835312E-02  0.26408927017E-01  0.31637427501E-01  0.51100000000E-03 0. -1.
</event>
<event>
 8    1  0.2959109E+004  0.1043930E+01  0.7957747E-01            NaN
         13   -1    0    0    0    0  0.00000000000E+00  0.00000000000E+00  0.74505805969E-08  0.10566000000E+00  0.10566000000E+00 0.  1.
     999900   -1    0    0    0    0 -0.00000000000E+00 -0.00000000000E+00 -0.74505805969E-08  0.93827000000E+00  0.93827000000E+00 0.  1.
     999902    2    1    2    0    0  0.12192773830E-01 -0.36639041685E-02 -0.24525060616E-02  0.10309645570E+01  0.10308830268E+01 0.  0.
     999903    2    3    3    0    0  0.53806216522E-01  0.11580204926E+00  0.39433355736E-01  0.14093185078E+00  0.44738948010E-01 0.  0.
         14    1    1    2    0    0 -0.12192773830E-01  0.36639041685E-02  0.24525060616E-02  0.12965443047E-01  0.00000000000E+00 0. -1.
     999901    1    3    3    0    0 -0.41613442692E-01 -0.11946595343E+00 -0.41885861798E-01  0.89003270617E+00  0.88000000000E+00 0.  1.
        -11    1    4    4    0    0 -0.31047464410E-02  0.40345045774E-01  0.74113221183E-02  0.41140624515E-01  0.51100000000E-03 0.  1.
         11    1    4    4    0    0  0.56910962963E-01  0.75457003490E-01  0.32022033618E-01  0.99791226263E-01  0.51100000000E-03 0. -1.
</event>
<event>
 8    1  0.2959109E+004  0.1043930E+01  0.7957747E-01            NaN
         13   -1    0    0    0    0  0.00000000000E+00  0.00000000000E+00  0.74505805969E-08  0.10566000000E+00  0.10566000000E+00 0.  1.
     999900   -1    0    0    0    0 -0.00000000000E+00 -0.00000000000E+00 -0.74505805969E-08  0.93827000000E+00  0.93827000000E+00 0.  1.
     999902    2    1    2    0    0 -0.22925317571E-02 -0.21857990173E-01  0.12833150422E-01  0.10184797115E+01  0.10181616794E+01 0.  0.
     999903    2    3    3    0    0  0.10918983017E+00  0.24565357236E-01  0.48472695795E-01  0.12951760801E+00  0.43581334963E-01 0.  0.
         14    1    1    2    0    0  0.22925317571E-02  0.21857990173E-01 -0.12833150422E-01  0.25450288526E-01  0.00000000000E+00 0. -1.
     999901    1    3    3    0    0 -0.11148236193E+00 -0.46423347410E-01 -0.35639545372E-01  0.88896210347E+00  0.88000000000E+00 0.  1.
        -11    1    4    4    0    0  0.61168268163E-01  0.85305304012E-02  0.49071674457E-01  0.78883568213E-01  0.51100000000E-03 0.  1.
         11    1    4    4    0    0  0.48021562009E-01  0.16034826835E-01 -0.59897866271E-03  0.50634039794E-01  0.51100000000E-03 0. -1.
</event>
<event>
 8    1  0.2959109E+004  0.1043930E+01  0.7957747E-01            NaN
         13   -1    0    0    0    0  0.00000000000E+00  0.00000000000E+00  0.74505805969E-08  0.10566000000E+00  0.10566000000E+00 0. -1.
     999900   -1    0    0    0    0 -0.00000000000E+00 -0.00000000000E+00 -0.74505805969E-08  0.93827000000E+00  0.93827000000E+00 0.  1.
     999902    2    1    2    0    0 -0.50268451135E-02 -0.57812522110E-02 -0.10978595750E-01  0.10305426323E+01  0.10304556737E+01 0.  0.
     999903    2    3    3    0    0  0.36633759702E-01  0.12628950713E+00 -0.14831725362E-01  0.13970418564E+00  0.44790707140E-01 0.  0.
         14    1    1    2    0    0  0.50268451135E-02  0.57812522110E-02  0.10978595750E-01  0.13387367686E-01  0.00000000000E+00 0.  1.
     999901    1    3    3    0    0 -0.41660604815E-01 -0.13207075934E+00  0.38531296121E-02  0.89083844668E+00  0.88000000000E+00 0.  1.
        -11    1    4    4    0    0  0.21210585211E-01  0.17736130559E-01  0.54869162342E-02  0.28192669667E-01  0.51100000000E-03 0.  1.
         11    1    4    4    0    0  0.15423174490E-01  0.10855337657E+00 -0.20318641597E-01  0.11151151597E+00  0.51100000000E-03 0. -1.
</event>
<event>
 8    1  0.2959109E+004  0.1043930E+01  0.7957747E-01            NaN
         13   -1    0    0    0    0  0.00000000000E+00  0.00000000000E+00  0.74505805969E-08  0.10566000000E+00  0.10566000000E+00 0.  1.
     999900   -1    0    0    0    0 -0.00000000000E+00 -0.00000000000E+00 -0.74505805969E-08  0.93827000000E+00  0.93827000000E+00 0.  1.
     999902    2    1    2    0    0  0.44614453698E-02  0.64205091879E-02  0.10082535681E-01  0.10311712791E+01  0.10310923440E+01 0.  0.
     999903    2    3    3    0    0  0.26406830162E-02  0.12088375329E+00 -0.57649142518E-01  0.14117536358E+00  0.44578073441E-01 0.  0.
         14    1    1    2    0    0 -0.44614453698E-02 -0.64205091879E-02 -0.10082535681E-01  0.12758720891E-01  0.00000000000E+00 0. -1.
     999901    1    3    3    0    0  0.18207623536E-02 -0.11446324411E+00  0.67731678200E-01  0.88999591553E+00  0.88000000000E+00 0. -1.
        -11    1    4    4    0    0 -0.15937038657E-01  0.25078170888E-01 -0.45221123787E-02  0.30060180931E-01  0.51100000000E-03 0.  1.
         11    1    4    4    0    0  0.18577721673E-01  0.95805582406E-01 -0.53127030140E-01  0.11111518265E+00  0.51100000000E-03 0. -1.
</event>
<event>
 8    1  0.2959109E+004  0.1043930E+01  0.7957747E-01            NaN
         13   -1    0    0    0    0  0.00000000000E+00  0.00000000000E+00  0.74505805969E-08  0.10566000000E+00  0.10566000000E+00 0. -1.
     999900   -1    0    0    0    0 -0.00000000000E+00 -0.00000000000E+00 -0.74505805969E-08  0.93827000000E+00  0.93827000000E+00 0. -1.
     999902    2    1    2    0    0 -0.10676240728E-01 -0.14697946194E-02  0.86362435924E-02  0.10301196012E+01  0.10300270218E+01 0.  0.
     999903    2    3    3    0    0 -0.92005561672E-01  0.11154562668E-01  0.98136968050E-01  0.14175919429E+00  0.43305392515E-01 0.  0.
         14    1    1    2    0    0  0.10676240728E-01  0.14697946194E-02 -0.86362435924E-02  0.13810398825E-01  0.00000000000E+00 0.  1.
     999901    1    3    3    0    0  0.81329320943E-01 -0.12624357287E-01 -0.89500724458E-01  0.88836040688E+00  0.88000000000E+00 0. -1.
        -11    1    4    4    0    0 -0.85718040005E-01  0.21247836524E-01  0.75516240760E-01  0.11619817847E+00  0.51100000000E-03 0. -1.
         11    1    4    4    0    0 -0.62875216673E-02 -0.10093273856E-01  0.22620727290E-01  0.25561015825E-01  0.51100000000E-03 0.  1.
</event>
<event>
 8    1  0.2959109E+004  0.1043930E+01  0.7957747E-01            NaN
         13   -1    0    0    0    0  0.00000000000E+00  0.00000000000E+00  0.74505805969E-08  0.10566000000E+00  0.10566000000E+00 0.  1.
     999900   -1    0    0    0    0 -0.00000000000E+00 -0.00000000000E+00 -0.74505805969E-08  0.93827000000E+00  0.93827000000E+00 0. -1.
     999902    2    1    2    0    0  0.51646178028E-02  0.58420519246E-02  0.12469013497E-01  0.10292235679E+01  0.10291184934E+01 0.  0.
     999903    2    3    3    0    0 -0.89467670354E-01  0.97372030295E-02  0.96684964376E-01  0.14014383663E+00  0.46829856363E-01 0.  0.
         14    1    1    2    0    0 -0.51646178028E-02 -0.58420519246E-02 -0.12469013497E-01  0.14706432107E-01  0.00000000000E+00 0. -1.
     999901    1    3    3    0    0  0.94632288156E-01 -0.38951511049E-02 -0.84215950879E-01  0.88907973127E+00  0.88000000000E+00 0. -1.
        -11    1    4    4    0    0 -0.31371475415E-01 -0.17246907515E-01  0.46951779664E-01  0.59045372580E-01  0.51100000000E-03 0.  1.
         11    1    4    4    0    0 -0.58096194939E-01  0.26984110545E-01  0.49733184713E-01  0.81098464048E-01  0.51100000000E-03 0. -1.
</event>
<event>
 8    1  0.2959109E+004  0.1043930E+01  0.7957747E-01            NaN
         13   -1    0    0    0    0  0.00000000000E+00  0.00000000000E+00  0.74505805969E-08  0.10566000000E+00  0.10566000000E+00 0.  1.
     999900   -1    0    0    0    0 -0.00000000000E+00 -0.00000000000E+00 -0.74505805969E-08  0.93827000000E+00  0.93827000000E+00 0. -1.
     999902    2    1    2    0    0  0.10603449590E-01  0.26150050326E-02  0.87428671028E-02  0.10299403924E+01  0.10298453781E+01 0.  0.
     999903    2    3    3    0    0 -0.20719017418E-01 -0.42160842306E-01 -0.12223645704E+00  0.13856978669E+00  0.45310264248E-01 0.  0.
         14    1    1    2    0    0 -0.10603449590E-01 -0.26150050326E-02 -0.87428671028E-02  0.13989607561E-01  0.00000000000E+00 0. -1.
     999901    1    3    3    0    0  0.31322467007E-01  0.44775847338E-01  0.13097932414E+00  0.89137060575E+00  0.88000000000E+00 0.  1.
        -11    1    4    4    0    0 -0.10815653888E-01 -0.23945623448E-01 -0.16977016752E-01  0.31286602087E-01  0.51100000000E-03 0. -1.
         11    1    4    4    0    0 -0.99033635292E-02 -0.18215218858E-01 -0.10525944029E+00  0.10728318460E+00  0.51100000000E-03 0.  1.
</event>
<event>
 8    1  0.2959109E+004  0.1043930E+01  0.7957747E-01            NaN
         13   -1    0    0    0    0  0.00000000000E+00  0.00000000000E+00  0.74505805969E-08  0.10566000000E+00  0.10566000000E+00 0. -1.
     999900   -1    0    0    0    0 -0.00000000000E+00 -0.00000000000E+00 -0.74505805969E-08  0.93827000000E+00  0.93827000000E+00 0.  1.
     999902    2    1    2    0    0  0.59578098485E-02  0.10002315962E-01  0.68716357011E-02  0.10304110799E+01  0.10303223925E+01 0.  0.
     999903    2    3    3    0    0  0.63875724058E-01  0.34498527810E-01  0.11308516266E+00  0.14179650516E+00  0.45251942671E-01 0.  0.
         14    1    1    2    0    0 -0.59578098485E-02 -0.10002315962E-01 -0.68716357011E-02  0.13518920075E-01  0.00000000000E+00 0.  1.
     999901    1    3    3    0    0 -0.57917914210E-01 -0.24496211848E-01 -0.10621352696E+00  0.88861457477E+00  0.88000000000E+00 0. -1.
        -11    1    4    4    0    0  0.57124885537E-01  0.13275178470E-01  0.58484575000E-01  0.82826261203E-01  0.51100000000E-03 0. -1.
         11    1    4    4    0    0  0.67508385218E-02  0.21223349340E-01  0.54600587662E-01  0.58970243954E-01  0.51100000000E-03 0.  1.
</event>
<event>
 8    1  0.2959109E+004  0.1043930E+01  0.7957747E-01            NaN
         13   -1    0    0    0    0  0.00000000000E+00  0.00000000000E+00  0.74505805969E-08  0.10566000000E+00  0.10566000000E+00 0.  1.
     999900   -1    0    0    0    0 -0.00000000000E+00 -0.00000000000E+00 -0.74505805969E-08  0.93827000000E+00  0.93827000000E+00 0.  1.
     999902    2    1    2    0    0  0.11586212062E-01 -0.78293054827E-02 -0.12910109062E-02  0.10298870287E+01  0.10297912831E+01 0.  0.
     999903    2    3    3    0    0 -0.11281545340E+00 -0.62362256951E-01 -0.26496461903E-01  0.13910931683E+00  0.45088378984E-01 0.  0.
         14    1    1    2    0    0 -0.11586212062E-01  0.78293054827E-02  0.12910109062E-02  0.14042971318E-01  0.00000000000E+00 0. -1.
     999901    1    3    3    0    0  0.12440166546E+00  0.54532951469E-01  0.25205450996E-01  0.89077771185E+00  0.88000000000E+00 0.  1.
        -11    1    4    4    0    0 -0.58322669878E-01 -0.84303338403E-02 -0.19706594308E-01  0.62138678217E-01  0.51100000000E-03 0.  1.
         11    1    4    4    0    0 -0.54492783519E-01 -0.53931923111E-01 -0.67898675950E-02  0.76970638616E-01  0.51100000000E-03 0. -1.
</event>
<event>
 8    1  0.2959109E+004  0.1043930E+01  0.7957747E-01            NaN
         13   -1    0    0    0    0  0.00000000000E+00  0.00000000000E+00  0.74505805969E-08  0.10566000000E+00  0.10566000000E+00 0. -1.
     999900   -1    0    0    0    0 -0.00000000000E+00 -0.00000000000E+00 -0.74505805969E-08  0.93827000000E+00  0.93827000000E+00 0. -1.
     999902    2    1    2    0    0  0.97834918671E-02  0.20735230277E-02 -0.95963064601E-02  0.10300697941E+01  0.10299765412E+01 0.  0.
     999903    2    3    3    0    0 -0.67853033946E-01 -0.89109573910E-02  0.11115159627E+00  0.13837021183E+00  0.45915125931E-01 0.  0.
         14    1    1    2    0    0 -0.97834918671E-02 -0.20735230277E-02  0.95963064601E-02  0.13860205934E-01  0.00000000000E+00 0. -1.
     999901    1    3    3    0    0  0.77636525813E-01  0.10984480419E-01 -0.12074790273E+00  0.89169958224E+00  0.88000000000E+00 0. -1.
        -11    1    4    4    0    0 -0.28599761910E-01 -0.26857582643E-01  0.54009491431E-01  0.66757489560E-01  0.51100000000E-03 0.  1.
         11    1    4    4    0    0 -0.39253272036E-01  0.17946625252E-01  0.57142104844E-01  0.71612722266E-01  0.51100000000E-03 0. -1.
</event>
<event>
 8    1  0.2959109E+004  0.1043930E+01  0.7957747E-01            NaN
         13   -1    0    0    0    0  0.00000000000E+00  0.00000000000E+00  0.74505805969E-08  0.10566000000E+00  0.10566000000E+00 0. -1.
     999900   -1    0    0    0    0 -0.00000000000E+00 -0.00000000000E+00 -0.74505805969E-08  0.93827000000E+00  0.93827000000E+00 0.  1.
     999902    2    1    2    0    0 -0.13766827636E-02  0.13417784779E-01  0.51975126336E-02  0.10294750236E+01  0.10293735367E+01 0.  0.
     999903    2    3    3    0    0  0.77032096919E-01 -0.14674697442E-01  0.10695988553E+00  0.13970387058E+00  0.43902888772E-01 0.  0.
         14    1    1    2    0    0  0.13766827636E-02 -0.13417784779E-01 -0.51975126336E-02  0.14454976354E-01  0.00000000000E+00 0.  1.
     999901    1    3    3    0    0 -0.78408779682E-01  0.28092482221E-01 -0.10176237289E+00  0.88977115306E+00  0.88000000000E+00 0.  1.
        -11    1    4    4    0    0  0.28511668290E-01  0.14000965178E-01  0.25971525323E-01  0.41033200011E-01  0.51100000000E-03 0. -1.
         11    1    4    4    0    0  0.48520428629E-01 -0.28675662620E-01  0.80988360205E-01  0.98670670570E-01  0.51100000000E-03 0.  1.
</event>
<event>
 8    1  0.2959109E+004  0.1043930E+01  0.7957747E-01            NaN
         13   -1    0    0    0    0  0.00000000000E+00  0.00000000000E+00  0.74505805969E-08  0.10566000000E+00  0.10566000000E+00 0. -1.
     999900   -1    0    0    0    0 -0.00000000000E+00 -0.00000000000E+00 -0.74505805969E-08  0.93827000000E+00  0.93827000000E+00 0. -1.
     999902    2    1    2    0    0 -0.86496034332E-03 -0.19269556683E-02  0.14583462124E-01  0.10291943737E+01  0.10290888787E+01 0.  0.
     999903    2    3    3    0    0 -0.11040905452E+00  0.10686837541E-02  0.73659949862E-01  0.14043179922E+00  0.45869386439E-01 0.  0.
         14    1    1    2    0    0  0.86496034332E-03  0.19269556683E-02 -0.14583462124E-01  0.14735626287E-01  0.00000000000E+00 0.  1.
     999901    1    3    3    0    0  0.10954409418E+00 -0.29956394225E-02 -0.59076487738E-01  0.88876257450E+00  0.88000000000E+00 0. -1.
        -11    1    4    4    0    0 -0.75159966733E-01 -0.18689838389E-01  0.36858718390E-01  0.85773870734E-01  0.51100000000E-03 0. -1.
         11    1    4    4    0    0 -0.35249087787E-01  0.19758522143E-01  0.36801231471E-01  0.54657928481E-01  0.51100000000E-03 0.  1.
</event>
<event>
 8    1  0.2959109E+004  0.1043930E+01  0.7957747E-01            NaN
         13   -1    0    0    0    0  0.00000000000E+00  0.00000000000E+00  0.74505805969E-08  0.10566000000E+00  0.10566000000E+00 0. -1.
     999900   -1    0    0    0    0 -0.00000000000E+00 -0.00000000000E+00 -0.74505805969E-08  0.93827000000E+00  0.93827000000E+00 0.  1.
     999902    2    1    2    0    0  0.11213936025E-01  0.40817541787E-02 -0.52517172284E-02  0.10308918402E+01  0.10308093871E+01 0.  0.
     999903    2    3    3    0    0 -0.12490146649E+00 -0.37828929265E-01  0.16816929552E-01  0.13916826563E+00  0.45316584354E-01 0.  0.
         14    1    1    2    0    0 -0.11213936025E-01 -0.40817541787E-02  0.52517172284E-02  0.13038159847E-01  0.00000000000E+00 0. -1.
     999901    1    3    3    0    0  0.13611540252E+00  0.41910683443E-01 -0.22068646780E-01  0.89172357452E+00  0.88000000000E+00 0.  1.
        -11    1    4    4    0    0 -0.10874702632E+00 -0.47887918516E-01  0.17565308574E-01  0.12011648371E+00  0.51100000000E-03 0. -1.
         11    1    4    4    0    0 -0.16154440172E-01  0.10058989251E-01 -0.74837902222E-03  0.19051781916E-01  0.51100000000E-03 0.  1.
</event>
<event>
 8    1  0.2959109E+004  0.1043930E+01  0.7957747E-01            NaN
         13   -1    0    0    0    0  0.00000000000E+00  0.00000000000E+00  0.74505805969E-08  0.10566000000E+00  0.10566000000E+00 0. -1.
     999900   -1    0    0    0    0 -0.00000000000E+00 -0.00000000000E+00 -0.74505805969E-08  0.93827000000E+00  0.93827000000E+00 0.  1.
     999902    2    1    2    0    0 -0.12906930740E-01 -0.13665983084E-01 -0.12132451011E-01  0.10215571521E+01  0.10213121319E+01 0.  0.
     999903    2    3    3    0    0 -0.58622579702E-01 -0.82173875001E-01  0.73890690650E-01  0.13353506190E+00  0.46718583117E-01 0.  0.
         14    1    1    2    0    0  0.12906930740E-01  0.13665983084E-01  0.12132451011E-01  0.22372847881E-01  0.00000000000E+00 0.  1.
     999901    1    3    3    0    0  0.45715648962E-01  0.68507891917E-01 -0.86023141661E-01  0.88802209022E+00  0.88000000000E+00 0.  1.
        -11    1    4    4    0    0  0.56876350210E-02 -0.19913114098E-01  0.72790683873E-02  0.21957396539E-01  0.51100000000E-03 0. -1.
         11    1    4    4    0    0 -0.64310214723E-01 -0.62260760903E-01  0.66611622263E-01  0.11157766536E+00  0.51100000000E-03 0.  1.
</event>
<event>
 8    1  0.2959109E+004  0.1043930E+01  0.7957747E-01            NaN
         13   -1    0    0    0    0  0.00000000000E+00  0.00000000000E+00  0.74505805969E-08  0.10566000000E+00  0.10566000000E+00 0.  1.
     999900   -1    0    0    0    0 -0.00000000000E+00 -0.00000000000E+00 -0.74505805969E-08  0.93827000000E+00  0.93827000000E+00 0.  1.
     999902    2    1    2    0    0  0.11422603215E-01 -0.72634563939E-02 -0.36270680298E-02  0.10299161038E+01  0.10298207571E+01 0.  0.
     999903    2    3    3    0    0 -0.12718377737E+00 -0.20146348049E-01  0.24270190782E-01  0.13853742186E+00  0.44966504536E-01 0.  0.
         14    1    1    2    0    0 -0.11422603215E-01  0.72634563939E-02  0.36270680298E-02  0.14013896157E-01  0.00000000000E+00 0.  1.
     999901    1    3    3    0    0  0.13860638059E+00  0.12882891655E-01 -0.27897258812E-01  0.89137868198E+00  0.88000000000E+00 0.  1.
        -11    1    4    4    0    0 -0.85054396398E-01 -0.34019760553E-01  0.11169843692E-01  0.92285540491E-01  0.51100000000E-03 0. -1.
         11    1    4    4    0    0 -0.42129380974E-01  0.13873412504E-01  0.13100347090E-01  0.46251881374E-01  0.51100000000E-03 0.  1.
</event>
<event>
 8    1  0.2959109E+004  0.1043930E+01  0.7957747E-01            NaN
         13   -1    0    0    0    0  0.00000000000E+00  0.00000000000E+00  0.74505805969E-08  0.10566000000E+00  0.10566000000E+00 0. -1.
     999900   -1    0    0    0    0 -0.00000000000E+00 -0.00000000000E+00 -0.74505805969E-08  0.93827000000E+00  0.93827000000E+00 0. -1.
     999902    2    1    2    0    0 -0.14431662687E-01 -0.35039727654E-02 -0.72135170358E-02  0.10274198352E+01  0.10272871713E+01 0.  0.
     999903    2    3    3    0    0 -0.10592249184E+00  0.35681703987E-01 -0.71057239094E-01  0.13951099422E+00  0.43834096360E-01 0.  0.
         14    1    1    2    0    0  0.14431662687E-01  0.35039727654E-02  0.72135170358E-02  0.16510164780E-01  0.00000000000E+00 0. -1.
     999901    1    3    3    0    0  0.91490829151E-01 -0.39185676752E-01  0.63843722059E-01  0.88790884100E+00  0.88000000000E+00 0. -1.
        -11    1    4    4    0    0 -0.72461010157E-02  0.15401371856E-01 -0.20949184541E-01  0.26996994071E-01  0.51100000000E-03 0. -1.
         11    1    4    4    0    0 -0.98676390822E-01  0.20280332131E-01 -0.50108054554E-01  0.11251400015E+00  0.51100000000E-03 0.  1.
</event>
<event>
 8    1  0.2959109E+004  0.1043930E+01  0.7957747E-01            NaN
         13   -1    0    0    0    0  0.00000000000E+00  0.00000000000E+00  0.74505805969E-08  0.10566000000E+00  0.10566000000E+00 0. -1.
     999900   -1    0    0    0    0 -0.00000000000E+00 -0.00000000000E+00 -0.74505805969E-08  0.93827000000E+00  0.93827000000E+00 0. -1.
     999902    2    1    2    0    0 -0.96783483474E-02  0.38262879583E-02 -0.86551547399E-02  0.10303940253E+01  0.10303051125E+01 0.  0.
     999903    2    3    3    0    0 -0.62340456176E-01 -0.28406489311E-01 -0.11160167717E+00  0.14224413033E+00  0.55544551078E-01 0.  0.
         14    1    1    2    0    0  0.96783483474E-02 -0.38262879583E-02  0.86551547399E-02  0.13535974654E-01  0.00000000000E+00 0. -1.
     999901    1    3    3    0    0  0.52662107828E-01  0.32232777269E-01  0.10294652244E+00  0.88814989501E+00  0.88000000000E+00 0.  1.
        -11    1    4    4    0    0 -0.14028680947E-01  0.16488068182E-01 -0.20871224828E-01  0.30075395729E-01  0.51100000000E-03 0.  1.
         11    1    4    4    0    0 -0.48311775229E-01 -0.44894557492E-01 -0.90730452347E-01  0.11216873460E+00  0.51100000000E-03 0. -1.
</event>
<event>
 8    1  0.2959109E+004  0.1043930E+01  0.7957747E-01            NaN
         13   -1    0    0    0    0  0.00000000000E+00  0.00000000000E+00  0.74505805969E-08  0.10566000000E+00  0.10566000000E+00 0. -1.
     999900   -1    0    0    0    0 -0.00000000000E+00 -0.00000000000E+00 -0.74505805969E-08  0.93827000000E+00  0.93827000000E+00 0. -1.
     999902    2    1    2    0    0  0.65550521810E-04  0.49555655306E-02 -0.10443227551E-01  0.10323704616E+01  0.10323057430E+01 0.  0.
     999903    2    3    3    0    0 -0.56196787472E-01 -0.76704724468E-01  0.92862168378E-01  0.14079553010E+00  0.46457564520E-01 0.  0.
         14    1    1    2    0    0 -0.65550521810E-04 -0.49555655306E-02  0.10443227551E-01  0.11559538412E-01  0.00000000000E+00 0. -1.
     999901    1    3    3    0    0  0.56262337993E-01  0.81660289998E-01 -0.10330539593E+00  0.89157493149E+00  0.88000000000E+00 0. -1.
        -11    1    4    4    0    0 -0.34891617273E-01 -0.19110580916E-01  0.57527310512E-01  0.69944920006E-01  0.51100000000E-03 0.  1.
         11    1    4    4    0    0 -0.21305170199E-01 -0.57594143552E-01  0.35334857866E-01  0.70850610090E-01  0.51100000000E-03 0. -1.
</event>
<event>
 8    1  0.2959109E+004  0.1043930E+01  0.7957747E-01            NaN
         13   -1    0    0    0    0  0.00000000000E+00  0.00000000000E+00  0.74505805969E-08  0.10566000000E+00  0.10566000000E+00 0.  1.
     999900   -1    0    0    0    0 -0.00000000000E+00 -0.00000000000E+00 -0.74505805969E-08  0.93827000000E+00  0.93827000000E+00 0. -1.
     999902    2    1    2    0    0  0.49585336323E-02  0.24478371431E-02 -0.11671282650E-01  0.10310149777E+01  0.10309340844E+01 0.  0.
     999903    2    3    3    0    0  0.70066921149E-01  0.24875342335E-01 -0.11272708154E+00  0.14255880567E+00  0.45688752095E-01 0.  0.
         14    1    1    2    0    0 -0.49585336323E-02 -0.24478371431E-02  0.11671282650E-01  0.12915022306E-01  0.00000000000E+00 0.  1.
     999901    1    3    3    0    0 -0.65108387516E-01 -0.22427505192E-01  0.10105579889E+00  0.88845617202E+00  0.88000000000E+00 0.  1.
        -11    1    4    4    0    0  0.17306546270E-01  0.75689322721E-02 -0.69968152535E-01  0.72474883717E-01  0.51100000000E-03 0.  1.
         11    1    4    4    0    0  0.52760374879E-01  0.17306410063E-01 -0.42758929000E-01  0.70083921957E-01  0.51100000000E-03 0. -1.
</event>
<event>
 8    1  0.2959109E+004  0.1043930E+01  0.7957747E-01            NaN
         13   -1    0    0    0    0  0.00000000000E+00  0.00000000000E+00  0.74505805969E-08  0.10566000000E+00  0.10566000000E+00 0.  1.
     999900   -1    0    0    0    0 -0.00000000000E+00 -0.00000000000E+00 -0.74505805969E-08  0.93827000000E+00  0.93827000000E+00 0. -1.
     999902    2    1    2    0    0  0.71915267259E-02 -0.27463823449E-02 -0.11944750015E-01  0.10297195206E+01  0.10296214612E+01 0.  0.
     999903    2    3    3    0    0  0.11549294489E+00  0.37075291892E-01  0.58282794862E-01  0.13941234270E+00  0.36410431633E-01 0.  0.
         14    1    1    2    0    0 -0.71915267259E-02  0.27463823449E-02  0.11944750015E-01  0.14210479427E-01  0.00000000000E+00 0.  1.
     999901    1    3    3    0    0 -0.10830141816E+00 -0.39821674237E-01 -0.70227544877E-01  0.89030717787E+00  0.88000000000E+00 0. -1.
        -11    1    4    4    0    0  0.67203730175E-01  0.22920929298E-01  0.53413787724E-01  0.88853836098E-01  0.51100000000E-03 0.  1.
         11    1    4    4    0    0  0.48289214715E-01  0.14154362594E-01  0.48690071382E-02  0.50558506601E-01  0.51100000000E-03 0. -1.
</event>
<event>
 8    1  0.2959109E+004  0.1043930E+01  0.7957747E-01            NaN
         13   -1    0    0    0    0  0.00000000000E+00  0.00000000000E+00  0.74505805969E-08  0.10566000000E+00  0.10566000000E+00 0.  1.
     999900   -1    0    0    0    0 -0.00000000000E+00 -0.00000000000E+00 -0.74505805969E-08  0.93827000000E+00  0.93827000000E+00 0.  1.
     999902    2    1    2    0    0  0.75693162164E-02 -0.10559963366E-01  0.49649529512E-02  0.10300210772E+01  0.10299271632E+01 0.  0.
     999903    2    3    3    0    0 -0.59539216703E-01  0.79370233472E-01  0.86482218951E-01  0.13915854007E+00  0.45181553678E-01 0.  0.
         14    1    1    2    0    0 -0.75693162164E-02  0.10559963366E-01 -0.49649529512E-02  0.13908922751E-01  0.00000000000E+00 0. -1.
     999901    1    3    3    0    0  0.67108532920E-01 -0.89930196838E-01 -0.81517265999E-01  0.89086253718E+00  0.88000000000E+00 0.  1.
        -11    1    4    4    0    0 -0.55820029846E-01  0.39161067273E-01  0.60327843212E-01  0.91044904907E-01  0.51100000000E-03 0. -1.
         11    1    4    4    0    0 -0.37191868574E-02  0.40209166199E-01  0.26154375738E-01  0.48113635163E-01  0.51100000000E-03 0.  1.
</event>
<event>
 8    1  0.2959109E+004  0.1043930E+01  0.7957747E-01            NaN
         13   -1    0    0    0    0  0.00000000000E+00  0.00000000000E+00  0.74505805969E-08  0.10566000000E+00  0.10566000000E+00 0. -1.
     999900   -1    0    0    0    0 -0.00000000000E+00 -0.00000000000E+00 -0.74505805969E-08  0.93827000000E+00  0.93827000000E+00 0.  1.
     999902    2    1    2    0    0 -0.48198919033E-02 -0.80092920865E-02  0.85554968728E-02  0.10312581160E+01  0.10311802583E+01 0.  0.
     999903    2    3    3    0    0 -0.15499389011E-01  0.23550310240E-01  0.13169459805E+00  0.14205999498E+00  0.45196535802E-01 0.  0.
         14    1    1    2    0    0  0.48198919033E-02  0.80092920865E-02 -0.85554968728E-02  0.12671884012E-01  0.00000000000E+00 0.  1.
     999901    1    3    3    0    0  0.10679497108E-01 -0.31559602327E-01 -0.12313910117E+00  0.88919812100E+00  0.88000000000E+00 0.  1.
        -11    1    4    4    0    0  0.99410588140E-02  0.25498526006E-01  0.59699288287E-01  0.65675456769E-01  0.51100000000E-03 0.  1.
         11    1    4    4    0    0 -0.25440447825E-01 -0.19482157658E-02  0.71995309759E-01  0.76384538216E-01  0.51100000000E-03 0. -1.
</event>
<event>
 8    1  0.2959109E+004  0.1043930E+01  0.7957747E-01            NaN
         13   -1    0    0    0    0  0.00000000000E+00  0.00000000000E+00  0.74505805969E-08  0.10566000000E+00  0.10566000000E+00 0. -1.
     999900   -1    0    0    0    0 -0.00000000000E+00 -0.00000000000E+00 -0.74505805969E-08  0.93827000000E+00  0.93827000000E+00 0. -1.
     999902    2    1    2    0    0 -0.11454326462E-01 -0.79283619897E-02 -0.20754429187E-02  0.10298456831E+01  0.10297493691E+01 0.  0.
     999903    2    3    3    0    0 -0.52705192451E-01  0.11816545996E+00 -0.26147881181E-01  0.13957562962E+00  0.45351201264E-01 0.  0.
         14    1    1    2    0    0  0.11454326462E-01  0.79283619897E-02  0.20754429187E-02  0.14084316875E-01  0.00000000000E+00 0.  1.
     999901    1    3    3    0    0  0.41250865989E-01 -0.12609382195E+00  0.24072438262E-01  0.89027005350E+00  0.88000000000E+00 0. -1.
        -11    1    4    4    0    0 -0.42684013211E-01  0.49566739816E-01 -0.25598367880E-01  0.70244745276E-01  0.51100000000E-03 0.  1.
         11    1    4    4    0    0 -0.10021179240E-01  0.68598720142E-01 -0.54951330143E-03  0.69330884347E-01  0.51100000000E-03 0. -1.
</event>
<event>
 8    1  0.2959109E+004  0.1043930E+01  0.7957747E-01            NaN
         13   -1    0    0    0    0  0.00000000000E+00  0.00000000000E+00  0.74505805969E-08  0.10566000000E+00  0.10566000000E+00 0. -1.
     999900   -1    0    0    0    0 -0.00000000000E+00 -0.00000000000E+00 -0.74505805969E-08  0.93827000000E+00  0.93827000000E+00 0.  1.
     999902    2    1    2    0    0  0.99390175425E-02  0.93804691803E-02  0.47246921545E-02  0.10294697100E+01  0.10293681478E+01 0.  0.
     999903    2    3    3    0    0  0.77524979406E-01 -0.52488855294E-01  0.94162707192E-01  0.14020325154E+00  0.45001488369E-01 0.  0.
         14    1    1    2    0    0 -0.99390175425E-02 -0.93804691803E-02 -0.47246921545E-02  0.14460290028E-01  0.00000000000E+00 0.  1.
     999901    1    3    3    0    0 -0.67585961864E-01  0.61869324475E-01 -0.89438015038E-01  0.88926645843E+00  0.88000000000E+00 0.  1.
        -11    1    4    4    0    0  0.69195347859E-01 -0.22714235945E-01  0.62912012993E-01  0.96239883519E-01  0.51100000000E-03 0.  1.
         11    1    4    4    0    0  0.83296315476E-02 -0.29774619349E-01  0.31250694199E-01  0.43963368024E-01  0.51100000000E-03 0. -1.
</event>
<event>
 8    1  0.2959109E+004  0.1043930E+01  0.7957747E-01            NaN
         13   -1    0    0    0    0  0.00000000000E+00  0.00000000000E+00  0.74505805969E-08  0.10566000000E+00  0.10566000000E+00 0.  1.
     999900   -1    0    0    0    0 -0.00000000000E+00 -0.00000000000E+00 -0.74505805969E-08  0.93827000000E+00  0.93827000000E+00 0. -1.
     999902    2    1    2    0    0 -0.34751900011E-02 -0.81716466847E-02 -0.13447813185E-01  0.10278149004E+01  0.10276885584E+01 0.  0.
     999903    2    3    3    0    0  0.74987173190E-01  0.33816441880E-01 -0.10302036347E+00  0.13880276114E+00  0.43432514610E-01 0.  0.
         14    1    1    2    0    0  0.34751900011E-02  0.81716466847E-02  0.13447813185E-01  0.16115099582E-01  0.00000000000E+00 0.  1.
     999901    1    3    3    0    0 -0.78462363191E-01 -0.41988088565E-01  0.89572550289E-01  0.88901213928E+00  0.88000000000E+00 0.  1.
        -11    1    4    4    0    0  0.70409875533E-01  0.25114458494E-01 -0.63534782853E-01  0.98108186973E-01  0.51100000000E-03 0. -1.
         11    1    4    4    0    0  0.45772976577E-02  0.87019833864E-02 -0.39485580620E-01  0.40694574167E-01  0.51100000000E-03 0.  1.
</event>
<event>
 8    1  0.2959109E+004  0.1043930E+01  0.7957747E-01            NaN
         13   -1    0    0    0    0  0.00000000000E+00  0.00000000000E+00  0.74505805969E-08  0.10566000000E+00  0.10566000000E+00 0. -1.
     999900   -1    0    0    0    0 -0.00000000000E+00 -0.00000000000E+00 -0.74505805969E-08  0.93827000000E+00  0.93827000000E+00 0. -1.
     999902    2    1    2    0    0  0.38443784093E-03 -0.12624293682E-01  0.69511306895E-02  0.10295133845E+01  0.10294124393E+01 0.  0.
     999903    2    3    3    0    0 -0.10966645449E+00 -0.58451434282E-01  0.49313946495E-01  0.14046561649E+00  0.43074617664E-01 0.  0.
         14    1    1    2    0    0 -0.38443784093E-03  0.12624293682E-01 -0.69511306895E-02  0.14416615458E-01  0.00000000000E+00 0.  1.
     999901    1    3    3    0    0  0.11005089233E+00  0.45827140600E-01 -0.42362815806E-01  0.88904776805E+00  0.88000000000E+00 0. -1.
        -11    1    4    4    0    0 -0.86003704207E-01 -0.51362877334E-01  0.56139317494E-01  0.11483321120E+00  0.51100000000E-03 0.  1.
         11    1    4    4    0    0 -0.23662750281E-01 -0.70885569476E-02 -0.68253709988E-02  0.25632405285E-01  0.51100000000E-03 0. -1.
</event>
<event>
 8    1  0.2959109E+004  0.1043930E+01  0.7957747E-01            NaN
         13   -1    0    0    0    0  0.00000000000E+00  0.00000000000E+00  0.74505805969E-08  0.10566000000E+00  0.10566000000E+00 0. -1.
     999900   -1    0    0    0    0 -0.00000000000E+00 -0.00000000000E+00 -0.74505805969E-08  0.93827000000E+00  0.93827000000E+00 0. -1.
     999902    2    1    2    0    0 -0.95885729873E-02  0.74234376247E-02 -0.56939805051E-02  0.10305333746E+01  0.10304462949E+01 0.  0.
     999903    2    3    3    0    0 -0.77229714962E-01  0.56399695527E-01 -0.95113090173E-01  0.14206853281E+00  0.44627497841E-01 0.  0.
         14    1    1    2    0    0  0.95885729873E-02 -0.74234376247E-02  0.56939805051E-02  0.13396625399E-01  0.00000000000E+00 0.  1.
     999901    1    3    3    0    0  0.67641141975E-01 -0.48976257902E-01  0.89419109668E-01  0.88846484179E+00  0.88000000000E+00 0.  1.
        -11    1    4    4    0    0 -0.49977844631E-01  0.90478932214E-02 -0.42694098527E-01  0.66352818295E-01  0.51100000000E-03 0.  1.
         11    1    4    4    0    0 -0.27251870331E-01  0.47351802305E-01 -0.52418991646E-01  0.75715714514E-01  0.51100000000E-03 0. -1.
</event>
<event>
 8    1  0.2959109E+004  0.1043930E+01  0.7957747E-01            NaN
         13   -1    0    0    0    0  0.00000000000E+00  0.00000000000E+00  0.74505805969E-08  0.10566000000E+00  0.10566000000E+00 0.  1.
     999900   -1    0    0    0    0 -0.00000000000E+00 -0.00000000000E+00 -0.74505805969E-08  0.93827000000E+00  0.93827000000E+00 0. -1.
     999902    2    1    2    0    0 -0.16451525473E-01  0.44482035300E-03 -0.38280449957E-04  0.10274724175E+01  0.10273406041E+01 0.  0.
     999903    2    3    3    0    0  0.18595731801E-01 -0.12667083586E+00 -0.24652082986E-02  0.13764513638E+00  0.50485685265E-01 0.  0.
         14    1    1    2    0    0  0.16451525473E-01 -0.44482035300E-03  0.38280449957E-04  0.16457582475E-01  0.00000000000E+00 0. -1.
     999901    1    3    3    0    0 -0.35047257274E-01  0.12711565622E+00  0.24269278486E-02  0.88982728115E+00  0.88000000000E+00 0.  1.
        -11    1    4    4    0    0  0.60617477075E-02 -0.10507909049E+00 -0.19992058824E-01  0.10713684511E+00  0.51100000000E-03 0.  1.
         11    1    4    4    0    0  0.12533984093E-01 -0.21591745372E-01  0.17526850526E-01  0.30508291263E-01  0.51100000000E-03 0. -1.
</event>
<event>
 8    1  0.2959109E+004  0.1043930E+01  0.7957747E-01            NaN
         13   -1    0    0    0    0  0.00000000000E+00  0.00000000000E+00  0.74505805969E-08  0.10566000000E+00  0.10566000000E+00 0. -1.
     999900   -1    0    0    0    0 -0.00000000000E+00 -0.00000000000E+00 -0.74505805969E-08  0.93827000000E+00  0.93827000000E+00 0.  1.
     999902    2    1    2    0    0 -0.82296634166E-02  0.66794454080E-02  0.91308278512E-02  0.10299402049E+01  0.10298451880E+01 0.  0.
     999903    2    3    3    0    0 -0.13599221090E-01 -0.12925976138E+00 -0.20085461300E-01  0.13900704707E+00  0.45016759676E-01 0.  0.
         14    1    1    2    0    0  0.82296634166E-02 -0.66794454080E-02 -0.91308278512E-02  0.13989795144E-01  0.00000000000E+00 0.  1.
     999901    1    3    3    0    0  0.53695576730E-02  0.13593920679E+00  0.29216289151E-01  0.89093315779E+00  0.88000000000E+00 0. -1.
        -11    1    4    4    0    0 -0.11804592576E-01 -0.25354298644E-01 -0.21168361247E-01  0.35079189051E-01  0.51100000000E-03 0. -1.
         11    1    4    4    0    0 -0.17946285136E-02 -0.10390546274E+00  0.10828999474E-02  0.10392785802E+00  0.51100000000E-03 0.  1.
</event>
<event>
 8    1  0.2959109E+004  0.1043930E+01  0.7957747E-01            NaN
         13   -1    0    0    0    0  0.00000000000E+00  0.00000000000E+00  0.74505805969E-08  0.10566000000E+00  0.10566000000E+00 0. -1.
     999900   -1    0    0    0    0 -0.00000000000E+00 -0.00000000000E+00 -0.74505805969E-08  0.93827000000E+00  0.93827000000E+00 0.  1.
     999902    2    1    2    0    0  0.11090678911E-01  0.20678441874E-02 -0.68802814600E-02  0.10307157119E+01  0.10306310015E+01 0.  0.
     999903    2    3    3    0    0 -0.28934225760E-01 -0.28516408310E-01 -0.12721838196E+00  0.14109857627E+00  0.45540273954E-01 0.  0.
         14    1    1    2    0    0 -0.11090678911E-01 -0.20678441874E-02  0.68802814600E-02  0.13214288148E-01  0.00000000000E+00 0. -1.
     999901    1    3    3    0    0  0.40024904671E-01  0.30584252497E-01  0.12033810050E+00  0.88961713559E+00  0.88000000000E+00 0. -1.
        -11    1    4    4    0    0  0.11321307638E-01  0.36367279203E-03 -0.20125996930E-01  0.23100241080E-01  0.51100000000E-03 0. -1.
         11    1    4    4    0    0 -0.40255533398E-01 -0.28880081102E-01 -0.10709238503E+00  0.11799833519E+00  0.51100000000E-03 0.  1.
</event>
<event>
 8    1  0.2959109E+004  0.1043930E+01  0.7957747E-01            NaN
         13   -1    0    0    0    0  0.00000000000E+00  0.00000000000E+00  0.74505805969E-08  0.10566000000E+00  0.10566000000E+00 0. -1.
     999900   -1    0    0    0    0 -0.00000000000E+00 -0.00000000000E+00 -0.74505805969E-08  0.93827000000E+00  0.93827000000E+00 0.  1.
     999902    2    1    2    0    0  0.10656703344E-01  0.82543252004E-02  0.42901472044E-02  0.10297841676E+01  0.10296870045E+01 0.  0.
     999903    2    3    3    0    0  0.30389591108E-01 -0.11615690873E+00 -0.53765925270E-01  0.13892051389E+00  0.44633841040E-01 0.  0.
         14    1    1    2    0    0 -0.10656703344E-01 -0.82543252004E-02 -0.42901472044E-02  0.14145832379E-01  0.00000000000E+00 0.  1.
     999901    1    3    3    0    0 -0.19732887764E-01  0.12441123393E+00  0.58056072474E-01  0.89086365373E+00  0.88000000000E+00 0.  1.
        -11    1    4    4    0    0  0.41690483044E-01 -0.81902057374E-01 -0.35929136317E-01  0.98677288857E-01  0.51100000000E-03 0.  1.
         11    1    4    4    0    0 -0.11300891936E-01 -0.34254851355E-01 -0.17836788953E-01  0.40243225033E-01  0.51100000000E-03 0. -1.
</event>
<event>
 8    1  0.2959109E+004  0.1043930E+01  0.7957747E-01            NaN
         13   -1    0    0    0    0  0.00000000000E+00  0.00000000000E+00  0.74505805969E-08  0.10566000000E+00  0.10566000000E+00 0. -1.
     999900   -1    0    0    0    0 -0.00000000000E+00 -0.00000000000E+00 -0.74505805969E-08  0.93827000000E+00  0.93827000000E+00 0. -1.
     999902    2    1    2    0    0  0.62785002292E-03 -0.21380786004E-02 -0.14140494335E-01  0.10296150024E+01  0.10295154851E+01 0.  0.
     999903    2    3    3    0    0 -0.82906716392E-01 -0.66230091842E-01  0.76732229746E-01  0.13869207538E+00  0.45691443419E-01 0.  0.
         14    1    1    2    0    0 -0.62785002292E-03  0.21380786004E-02  0.14140494335E-01  0.14314997583E-01  0.00000000000E+00 0. -1.
     999901    1    3    3    0    0  0.83534566415E-01  0.64092013242E-01 -0.90872724081E-01  0.89092292704E+00  0.88000000000E+00 0.  1.
        -11    1    4    4    0    0 -0.20365607018E-01  0.47577141082E-02  0.14250921188E-01  0.25312915052E-01  0.51100000000E-03 0. -1.
         11    1    4    4    0    0 -0.62541109375E-01 -0.70987805950E-01  0.62481308558E-01  0.11337916032E+00  0.51100000000E-03 0.  1.
</event>
<event>
 8    1  0.2959109E+004  0.1043930E+01  0.7957747E-01            NaN
         13   -1    0    0    0    0  0.00000000000E+00  0.00000000000E+00  0.74505805969E-08  0.10566000000E+00  0.10566000000E+00 0. -1.
     999900   -1    0    0    0    0 -0.00000000000E+00 -0.00000000000E+00 -0.74505805969E-08  0.93827000000E+00  0.93827000000E+00 0. -1.
     999902    2    1    2    0    0  0.62952412634E-02  0.14762779509E-01  0.81661367330E-02  0.10259229039E+01  0.10257648606E+01 0.  0.
     999903    2    3    3    0    0  0.12014063848E+00  0.18957418730E-01  0.46973686037E-01  0.13773126052E+00  0.44387117533E-01 0.  0.
         14    1    1    2    0    0 -0.62952412634E-02 -0.14762779509E-01 -0.81661367330E-02  0.18007096116E-01  0.00000000000E+00 0. -1.
     999901    1    3    3    0    0 -0.11384539722E+00 -0.41946392211E-02 -0.38807549304E-01  0.88819164337E+00  0.88000000000E+00 0. -1.
        -11    1    4    4    0    0  0.85548426592E-01  0.14007122406E-01  0.10676525354E-01  0.87344044359E-01  0.51100000000E-03 0. -1.
         11    1    4    4    0    0  0.34592211893E-01  0.49502963247E-02  0.36297160683E-01  0.50387216156E-01  0.51100000000E-03 0.  1.
</event>
<event>
 8    1  0.2959109E+004  0.1043930E+01  0.7957747E-01            NaN
         13   -1    0    0    0    0  0.00000000000E+00  0.00000000000E+00  0.74505805969E-08  0.10566000000E+00  0.10566000000E+00 0.  1.
     999900   -1    0    0    0    0 -0.00000000000E+00 -0.00000000000E+00 -0.74505805969E-08  0.93827000000E+00  0.93827000000E+00 0. -1.
     999902    2    1    2    0    0  0.58607475399E-02  0.75103136219E-03 -0.11434714357E-01  0.10310589044E+01  0.10309785639E+01 0.  0.
     999903    2    3    3    0    0  0.20958202366E-01  0.26670328013E-01 -0.13101456018E+00  0.14246502493E+00  0.44507479231E-01 0.  0.
         14    1    1    2    0    0 -0.58607475399E-02 -0.75103136219E-03  0.11434714357E-01  0.12871095613E-01  0.00000000000E+00 0.  1.
     999901    1    3    3    0    0 -0.15097454826E-01 -0.25919296651E-01  0.11957984582E+00  0.88859387946E+00  0.88000000000E+00 0.  1.
        -11    1    4    4    0    0  0.34329376510E-01  0.23556369236E-01 -0.10672073913E+00  0.11455560181E+00  0.51100000000E-03 0. -1.
         11    1    4    4    0    0 -0.13371174143E-01  0.31139587765E-02 -0.24293821044E-01  0.27909423125E-01  0.51100000000E-03 0.  1.
</event>
<event>
 7    1  0.2959109E+004  0.1043930E+01  0.7957747E-01            NaN
         13   -1    0    0    0    0  0.00000000000E+00  0.00000000000E+00  0.74505805969E-08  0.10566000000E+00  0.10566000000E+00 0.  1.
     999900   -1    0    0    0    0 -0.00000000000E+00 -0.00000000000E+00 -0.74505805969E-08  0.93827000000E+00  0.93827000000E+00 0. -1.
     999903    2    1    2    0    0  0.65850660115E-01 -0.85647433663E-01 -0.27291990837E-01  0.12070130271E+00  0.46391371832E-01 0.  0.
         14    1    1    2    0    0  0.16637145972E-01  0.19202787519E-01  0.26727637635E-01  0.36876934364E-01  0.00000000000E+00 0.  1.
     999901    1    1    2    0    0 -0.82487806087E-01  0.66444646144E-01  0.56435320218E-03  0.88635176293E+00  0.88000000000E+00 0.  1.
        -11    1    3    3    0    0  0.30559745953E-01 -0.69292884980E-01 -0.30553808406E-01  0.81665159712E-01  0.51100000000E-03 0.  1.
         11    1    3    3    0    0  0.35290914162E-01 -0.16354548682E-01  0.32618175696E-02  0.39036142994E-01  0.51100000000E-03 0. -1.
</event>
<event>
 8    1  0.2959109E+004  0.1043930E+01  0.7957747E-01            NaN
         13   -1    0    0    0    0  0.00000000000E+00  0.00000000000E+00  0.74505805969E-08  0.10566000000E+00  0.10566000000E+00 0. -1.
     999900   -1    0    0    0    0 -0.00000000000E+00 -0.00000000000E+00 -0.74505805969E-08  0.93827000000E+00  0.93827000000E+00 0.  1.
     999902    2    1    2    0    0 -0.12813380909E-01 -0.13747738634E-02  0.52423995955E-02  0.10300175780E+01  0.10299236163E+01 0.  0.
     999903    2    3    3    0    0 -0.95533553674E-01 -0.90422625176E-01  0.23537490621E-01  0.14147559406E+00  0.46458790636E-01 0.  0.
         14    1    1    2    0    0  0.12813380909E-01  0.13747738634E-02 -0.52423995955E-02  0.13912422040E-01  0.00000000000E+00 0.  1.
     999901    1    3    3    0    0  0.82720172765E-01  0.89047851312E-01 -0.18295091025E-01  0.88854198390E+00  0.88000000000E+00 0. -1.
        -11    1    4    4    0    0 -0.42049324082E-01 -0.15627671856E-01 -0.51398266452E-02  0.45155827114E-01  0.51100000000E-03 0.  1.
         11    1    4    4    0    0 -0.53484229592E-01 -0.74794953320E-01  0.28677317266E-01  0.96319766942E-01  0.51100000000E-03 0. -1.
</event>
<event>
 8    1  0.2959109E+004  0.1043930E+01  0.7957747E-01            NaN
         13   -1    0    0    0    0  0.00000000000E+00  0.00000000000E+00  0.74505805969E-08  0.10566000000E+00  0.10566000000E+00 0.  1.
     999900   -1    0    0    0    0 -0.00000000000E+00 -0.00000000000E+00 -0.74505805969E-08  0.93827000000E+00  0.93827000000E+00 0.  1.
     999902    2    1    2    0    0  0.11133973155E-01 -0.90145708741E-03  0.89247028267E-02  0.10296321574E+01  0.10295328801E+01 0.  0.
     999903    2    3    3    0    0 -0.10444439192E+00 -0.33541076435E-01  0.74431585259E-01  0.13906219669E+00  0.42007128592E-01 0.  0.
         14    1    1    2    0    0 -0.11133973155E-01  0.90145708741E-03 -0.89247028267E-02  0.14297842622E-01  0.00000000000E+00 0. -1.
     999901    1    3    3    0    0  0.11557836508E+00  0.32639619347E-01 -0.65506882432E-01  0.89056996068E+00  0.88000000000E+00 0.  1.
        -11    1    4    4    0    0 -0.87904817860E-01 -0.10197866883E-01  0.60788289416E-01  0.10736261334E+00  0.51100000000E-03 0. -1.
         11    1    4    4    0    0 -0.16539574064E-01 -0.23343209552E-01  0.13643295842E-01  0.31699583354E-01  0.51100000000E-03 0.  1.
</event>
<event>
 8    1  0.2959109E+004  0.1043930E+01  0.7957747E-01            NaN
         13   -1    0    0    0    0  0.00000000000E+00  0.00000000000E+00  0.74505805969E-08  0.10566000000E+00  0.10566000000E+00 0.  1.
     999900   -1    0    0    0    0 -0.00000000000E+00 -0.00000000000E+00 -0.74505805969E-08  0.93827000000E+00  0.93827000000E+00 0.  1.
     999902    2    1    2    0    0  0.16107469679E-02 -0.76102055337E-02 -0.10214772998E-01  0.10310905560E+01  0.10310106127E+01 0.  0.
     999903    2    3    3    0    0  0.57893791739E-01  0.10672635140E+00 -0.55161419901E-01  0.14077553849E+00  0.45086192862E-01 0.  0.
         14    1    1    2    0    0 -0.16107469679E-02  0.76102055337E-02  0.10214772998E-01  0.12839443970E-01  0.00000000000E+00 0.  1.
     999901    1    3    3    0    0 -0.56283044771E-01 -0.11433655694E+00  0.44946646902E-01  0.89031501754E+00  0.88000000000E+00 0. -1.
        -11    1    4    4    0    0  0.78604315259E-02  0.15644053685E-01 -0.28561217621E-01  0.33504135154E-01  0.51100000000E-03 0.  1.
         11    1    4    4    0    0  0.50033360213E-01  0.91082297720E-01 -0.26600202280E-01  0.10727140334E+00  0.51100000000E-03 0. -1.
</event>
<event>
 8    1  0.2959109E+004  0.1043930E+01  0.7957747E-01            NaN
         13   -1    0    0    0    0  0.00000000000E+00  0.00000000000E+00  0.74505805969E-08  0.10566000000E+00  0.10566000000E+00 0. -1.
     999900   -1    0    0    0    0 -0.00000000000E+00 -0.00000000000E+00 -0.74505805969E-08  0.93827000000E+00  0.93827000000E+00 0. -1.
     999902    2    1    2    0    0  0.56328442713E-02 -0.34051447276E-02 -0.10897605559E-01  0.10311988668E+01  0.10311202748E+01 0.  0.
     999903    2    3    3    0    0 -0.32087729493E-01  0.12905012179E+00 -0.75883411442E-02  0.14048107170E+00  0.44651901026E-01 0.  0.
         14    1    1    2    0    0 -0.56328442713E-02  0.34051447276E-02  0.10897605559E-01  0.12731133183E-01  0.00000000000E+00 0. -1.
     999901    1    3    3    0    0  0.37720573764E-01 -0.13245526652E+00 -0.33092644144E-02  0.89071779512E+00  0.88000000000E+00 0. -1.
        -11    1    4    4    0    0  0.70284501611E-02  0.34833781011E-01 -0.14155780482E-01  0.38254916720E-01  0.51100000000E-03 0. -1.
         11    1    4    4    0    0 -0.39116179654E-01  0.94216340780E-01  0.65674393383E-02  0.10222615498E+00  0.51100000000E-03 0.  1.
</event>
<event>
 8    1  0.2959109E+004  0.1043930E+01  0.7957747E-01            NaN
         13   -1    0    0    0    0  0.00000000000E+00  0.00000000000E+00  0.74505805969E-08  0.10566000000E+00  0.10566000000E+00 0.  1.
     999900   -1    0    0    0    0 -0.00000000000E+00 -0.00000000000E+00 -0.74505805969E-08  0.93827000000E+00  0.93827000000E+00 0.  1.
     999902    2    1    2    0    0 -0.33691521800E-02  0.20674312557E-03 -0.12483924878E-01  0.10309977802E+01  0.10309166700E+01 0.  0.
     999903    2    3    3    0    0  0.26851250220E-01  0.11283175027E+00 -0.66805753375E-01  0.14164491095E+00  0.46349526505E-01 0.  0.
         14    1    1    2    0    0  0.33691521800E-02 -0.20674312557E-03  0.12483924878E-01  0.12932219821E-01  0.00000000000E+00 0.  1.
     999901    1    3    3    0    0 -0.30220402400E-01 -0.11262500714E+00  0.54321828497E-01  0.88935286923E+00  0.88000000000E+00 0. -1.
        -11    1    4    4    0    0  0.26379571851E-01  0.36330286825E-01 -0.90894123349E-02  0.45811025850E-01  0.51100000000E-03 0.  1.
         11    1    4    4    0    0  0.47167836898E-03  0.76501463442E-01 -0.57716341040E-01  0.95833885100E-01  0.51100000000E-03 0. -1.
</event>
<event>
 8    1  0.2959109E+004  0.1043930E+01  0.7957747E-01            NaN
         13   -1    0    0    0    0  0.00000000000E+00  0.00000000000E+00  0.74505805969E-08  0.10566000000E+00  0.10566000000E+00 0.  1.
     999900   -1    0    0    0    0 -0.00000000000E+00 -0.00000000000E+00 -0.74505805969E-08  0.93827000000E+00  0.93827000000E+00 0. -1.
     999902    2    1    2    0    0 -0.62112895609E-02 -0.11877908808E-01 -0.38551769996E-02  0.10299826983E+01  0.10298882617E+01 0.  0.
     999903    2    3    3    0    0 -0.10635507587E+00  0.54499060697E-02 -0.80059504585E-01  0.14086171065E+00  0.45731757161E-01 0.  0.
         14    1    1    2    0    0  0.62112895609E-02  0.11877908808E-01  0.38551769996E-02  0.13947301723E-01  0.00000000000E+00 0.  1.
     999901    1    3    3    0    0  0.10014378631E+00 -0.17327814877E-01  0.76204327585E-01  0.88912098763E+00  0.88000000000E+00 0.  1.
        -11    1    4    4    0    0 -0.80563364655E-01  0.18206369486E-01 -0.40635273446E-01  0.92051149821E-01  0.51100000000E-03 0. -1.
         11    1    4    4    0    0 -0.25791711211E-01 -0.12756463417E-01 -0.39424231139E-01  0.48810560825E-01  0.51100000000E-03 0.  1.
</event>
<event>
 8    1  0.2959109E+004  0.1043930E+01  0.7957747E-01            NaN
         13   -1    0    0    0    0  0.00000000000E+00  0.00000000000E+00  0.74505805969E-08  0.10566000000E+00  0.10566000000E+00 0. -1.
     999900   -1    0    0    0    0 -0.00000000000E+00 -0.00000000000E+00 -0.74505805969E-08  0.93827000000E+00  0.93827000000E+00 0. -1.
     999902    2    1    2    0    0 -0.38778349515E-02 -0.14017218493E-01  0.76324957834E-03  0.10293662584E+01  0.10292632275E+01 0.  0.
     999903    2    3    3    0    0 -0.12749874256E+00 -0.20427923803E-01 -0.30335719571E-01  0.14015853703E+00  0.45287196828E-01 0.  0.
         14    1    1    2    0    0  0.38778349515E-02  0.14017218493E-01 -0.76324957834E-03  0.14563741556E-01  0.00000000000E+00 0. -1.
     999901    1    3    3    0    0  0.12362090760E+00  0.64107053102E-02  0.31098969149E-01  0.88920772141E+00  0.88000000000E+00 0.  1.
        -11    1    4    4    0    0 -0.38585945011E-01  0.51600516914E-02 -0.27365114745E-01  0.47587938722E-01  0.51100000000E-03 0.  1.
         11    1    4    4    0    0 -0.88912797544E-01 -0.25587975495E-01 -0.29706048260E-02  0.92570598308E-01  0.51100000000E-03 0. -1.
</event>
<event>
 8    1  0.2959109E+004  0.1043930E+01  0.7957747E-01            NaN
         13   -1    0    0    0    0  0.00000000000E+00  0.00000000000E+00  0.74505805969E-08  0.10566000000E+00  0.10566000000E+00 0.  1.
     999900   -1    0    0    0    0 -0.00000000000E+00 -0.00000000000E+00 -0.74505805969E-08  0.93827000000E+00  0.93827000000E+00 0. -1.
     999902    2    1    2    0    0 -0.76145403598E-02  0.67548454163E-02  0.40439249548E-02  0.10329772610E+01  0.10329191930E+01 0.  0.
     999903    2    3    3    0    0 -0.76170030720E-01 -0.71938687953E-02 -0.11168842528E+00  0.14264676130E+00  0.44946288403E-01 0.  0.
         14    1    1    2    0    0  0.76145403598E-02 -0.67548454163E-02 -0.40439249548E-02  0.10952738951E-01  0.00000000000E+00 0. -1.
     999901    1    3    3    0    0  0.68555490360E-01  0.13948714212E-01  0.11573235023E+00  0.89033049975E+00  0.88000000000E+00 0. -1.
        -11    1    4    4    0    0 -0.29996071329E-03  0.37466847532E-02 -0.31444191651E-01  0.31672163372E-01  0.51100000000E-03 0. -1.
         11    1    4    4    0    0 -0.75870070007E-01 -0.10940553549E-01 -0.80244233627E-01  0.11097459793E+00  0.51100000000E-03 0.  1.
</event>
<event>
 8    1  0.2959109E+004  0.1043930E+01  0.7957747E-01            NaN
         13   -1    0    0    0    0  0.00000000000E+00  0.00000000000E+00  0.74505805969E-08  0.10566000000E+00  0.10566000000E+00 0.  1.
     999900   -1    0    0    0    0 -0.00000000000E+00 -0.00000000000E+00 -0.74505805969E-08  0.93827000000E+00  0.93827000000E+00 0.  1.
     999902    2    1    2    0    0  0.27050359322E-02 -0.29667304804E-02  0.17542900756E-01  0.10259335538E+01  0.10257756990E+01 0.  0.
     999903    2    3    3    0    0 -0.70141106686E-02 -0.70839856621E-01 -0.10498472156E+00  0.13480267603E+00  0.45634270790E-01 0.  0.
         14    1    1    2    0    0 -0.27050359322E-02  0.29667304804E-02 -0.17542900756E-01  0.17996446207E-01  0.00000000000E+00 0. -1.
     999901    1    3    3    0    0  0.97191466008E-02  0.67873126140E-01  0.12252762232E+00  0.89113087776E+00  0.88000000000E+00 0. -1.
        -11    1    4    4    0    0 -0.17529823368E-01 -0.19187896258E-01 -0.13683110305E-01  0.29376158680E-01  0.51100000000E-03 0.  1.
         11    1    4    4    0    0  0.10515712699E-01 -0.51651960362E-01 -0.91301611256E-01  0.10542651736E+00  0.51100000000E-03 0. -1.
</event>
<event>
 8    1  0.2959109E+004  0.1043930E+01  0.7957747E-01            NaN
         13   -1    0    0    0    0  0.00000000000E+00  0.00000000000E+00  0.74505805969E-08  0.10566000000E+00  0.10566000000E+00 0.  1.
     999900   -1    0    0    0    0 -0.00000000000E+00 -0.00000000000E+00 -0.74505805969E-08  0.93827000000E+00  0.93827000000E+00 0.  1.
     999902    2    1    2    0    0  0.27094873907E-02 -0.41299598800E-02 -0.12721625293E-01  0.10302831088E+01  0.10301927230E+01 0.  0.
     999903    2    3    3    0    0  0.21973838145E-01  0.11661675700E+00 -0.60813791933E-01  0.14052823165E+00  0.44357062840E-01 0.  0.
         14    1    1    2    0    0 -0.27094873907E-02  0.41299598800E-02  0.12721625293E-01  0.13646891244E-01  0.00000000000E+00 0.  1.
     999901    1    3    3    0    0 -0.19264350755E-01 -0.12074671688E+00  0.48092166640E-01  0.88975487711E+00  0.88000000000E+00 0. -1.
        -11    1    4    4    0    0  0.83879389243E-02  0.38389176169E-01  0.19060527321E-02  0.39344383644E-01  0.51100000000E-03 0.  1.
         11    1    4    4    0    0  0.13585899221E-01  0.78227580834E-01 -0.62719844665E-01  0.10118384800E+00  0.51100000000E-03 0. -1.
</event>
<event>
 8    1  0.2959109E+004  0.1043930E+01  0.7957747E-01            NaN
         13   -1    0    0    0    0  0.00000000000E+00  0.00000000000E+00  0.74505805969E-08  0.10566000000E+00  0.10566000000E+00 0.  1.
     999900   -1    0    0    0    0 -0.00000000000E+00 -0.00000000000E+00 -0.74505805969E-08  0.93827000000E+00  0.93827000000E+00 0. -1.
     999902    2    1    2    0    0 -0.66055089204E-02 -0.35516776363E-03 -0.11097296839E-01  0.10310106777E+01  0.10309297302E+01 0.  0.
     999903    2    3    3    0    0  0.18582294645E-01  0.11268481116E+00  0.67055922655E-01  0.13998857469E+00  0.45355660523E-01 0.  0.
         14    1    1    2    0    0  0.66055089204E-02  0.35516776363E-03  0.11097296839E-01  0.12919322326E-01  0.00000000000E+00 0.  1.
     999901    1    3    3    0    0 -0.25187803566E-01 -0.11303997892E+00 -0.78153219493E-01  0.89102210298E+00  0.88000000000E+00 0. -1.
        -11    1    4    4    0    0  0.18041929951E-01  0.41432102170E-01  0.49459757594E-02  0.45462667363E-01  0.51100000000E-03 0. -1.
         11    1    4    4    0    0  0.54036469389E-03  0.71252708988E-01  0.62109946895E-01  0.94525907329E-01  0.51100000000E-03 0.  1.
</event>
<event>
 8    1  0.2959109E+004  0.1043930E+01  0.7957747E-01            NaN
         13   -1    0    0    0    0  0.00000000000E+00  0.00000000000E+00  0.74505805969E-08  0.10566000000E+00  0.10566000000E+00 0.  1.
     999900   -1    0    0    0    0 -0.00000000000E+00 -0.00000000000E+00 -0.74505805969E-08  0.93827000000E+00  0.93827000000E+00 0. -1.
     999902    2    1    2    0    0 -0.84076104516E-02  0.11063732451E-01 -0.18566311249E-01  0.10207394415E+01  0.10204759701E+01 0.  0.
     999903    2    3    3    0    0 -0.79794999021E-01 -0.31853974022E-01  0.86904992925E-01  0.13053593401E+00  0.45882837130E-01 0.  0.
         14    1    1    2    0    0  0.84076104516E-02 -0.11063732451E-01  0.18566311249E-01  0.23190558480E-01  0.00000000000E+00 0.  1.
     999901    1    3    3    0    0  0.71387388570E-01  0.42917706474E-01 -0.10547130417E+00  0.89020350751E+00  0.88000000000E+00 0. -1.
        -11    1    4    4    0    0 -0.67610584087E-01 -0.52865625839E-02  0.55525193752E-01  0.87649569803E-01  0.51100000000E-03 0. -1.
         11    1    4    4    0    0 -0.12184414934E-01 -0.26567411439E-01  0.31379799173E-01  0.42886364208E-01  0.51100000000E-03 0.  1.
</event>
<event>
 8    1  0.2959109E+004  0.1043930E+01  0.7957747E-01            NaN
         13   -1    0    0    0    0  0.00000000000E+00  0.00000000000E+00  0.74505805969E-08  0.10566000000E+00  0.10566000000E+00 0. -1.
     999900   -1    0    0    0    0 -0.00000000000E+00 -0.00000000000E+00 -0.74505805969E-08  0.93827000000E+00  0.93827000000E+00 0.  1.
     999902    2    1    2    0    0  0.78590216675E-02 -0.82429088635E-02  0.10119636201E-01  0.10286946200E+01  0.10285817927E+01 0.  0.
     999903    2    3    3    0    0  0.76962820390E-01 -0.59641466898E-01 -0.91248263182E-01  0.13869877851E+00  0.37824930027E-01 0.  0.
         14    1    1    2    0    0 -0.78590216675E-02  0.82429088635E-02 -0.10119636201E-01  0.15235380039E-01  0.00000000000E+00 0.  1.
     999901    1    3    3    0    0 -0.69103798722E-01  0.51398558035E-01  0.10136789938E+00  0.88999584145E+00  0.88000000000E+00 0.  1.
        -11    1    4    4    0    0  0.41469211068E-02  0.35183793142E-02 -0.14465685437E-01  0.15462636380E-01  0.51100000000E-03 0.  1.
         11    1    4    4    0    0  0.72815899283E-01 -0.63159846213E-01 -0.76782577745E-01  0.12323614213E+00  0.51100000000E-03 0. -1.
</event>
<event>
 8    1  0.2959109E+004  0.1043930E+01  0.7957747E-01            NaN
         13   -1    0    0    0    0  0.00000000000E+00  0.00000000000E+00  0.74505805969E-08  0.10566000000E+00  0.10566000000E+00 0.  1.
     999900   -1    0    0    0    0 -0.00000000000E+00 -0.00000000000E+00 -0.74505805969E-08  0.93827000000E+00  0.93827000000E+00 0.  1.
     999902    2    1    2    0    0 -0.60623795886E-02 -0.14689724053E-02  0.13170496482E-01  0.10293570009E+01  0.10292538379E+01 0.  0.
     999903    2    3    3    0    0 -0.98140118602E-01  0.87581712758E-01 -0.14904411709E-01  0.13963989132E+00  0.44442304963E-01 0.  0.
         14    1    1    2    0    0  0.60623795886E-02  0.14689724053E-02 -0.13170496482E-01  0.14572999134E-01  0.00000000000E+00 0. -1.
     999901    1    3    3    0    0  0.92077739013E-01 -0.89050685163E-01  0.28074908191E-01  0.88971710955E+00  0.88000000000E+00 0.  1.
        -11    1    4    4    0    0 -0.86139884233E-01  0.50689006931E-01 -0.84143506904E-02  0.10030213107E+00  0.51100000000E-03 0.  1.
         11    1    4    4    0    0 -0.12000234369E-01  0.36892705827E-01 -0.64900610189E-02  0.39337760246E-01  0.51100000000E-03 0. -1.
</event>
<event>
 8    1  0.2959109E+004  0.1043930E+01  0.7957747E-01            NaN
         13   -1    0    0    0    0  0.00000000000E+00  0.00000000000E+00  0.74505805969E-08  0.10566000000E+00  0.10566000000E+00 0. -1.
     999900   -1    0    0    0    0 -0.00000000000E+00 -0.00000000000E+00 -0.74505805969E-08  0.93827000000E+00  0.93827000000E+00 0.  1.
     999902    2    1    2    0    0  0.27754510364E-02 -0.12579893991E-01 -0.96915680632E-02  0.10278091020E+01  0.10276826683E+01 0.  0.
     999903    2    3    3    0    0 -0.69933933775E-01  0.99360098806E-01  0.42738451581E-01  0.13620037413E+00  0.44280722009E-01 0.  0.
         14    1    1    2    0    0 -0.27754510364E-02  0.12579893991E-01  0.96915680632E-02  0.16120898015E-01  0.00000000000E+00 0.  1.
     999901    1    3    3    0    0  0.72709384812E-01 -0.11193999280E+00 -0.52430019644E-01  0.89160872785E+00  0.88000000000E+00 0.  1.
        -11    1    4    4    0    0 -0.36582156355E-01  0.31813390514E-01 -0.21072730963E-02  0.48528833702E-01  0.51100000000E-03 0.  1.
         11    1    4    4    0    0 -0.33351777420E-01  0.67546708291E-01  0.44845724678E-01  0.87671540428E-01  0.51100000000E-03 0. -1.
</event>
<event>
 8    1  0.2959109E+004  0.1043930E+01  0.7957747E-01            NaN
         13   -1    0    0    0    0  0.00000000000E+00  0.00000000000E+00  0.74505805969E-08  0.10566000000E+00  0.10566000000E+00 0.  1.
     999900   -1    0    0    0    0 -0.00000000000E+00 -0.00000000000E+00 -0.74505805969E-08  0.93827000000E+00  0.93827000000E+00 0.  1.
     999902    2    1    2    0    0  0.62440250767E-02 -0.92744096699E-02  0.69246284394E-02  0.10307788402E+01  0.10306949425E+01 0.  0.
     999903    2    3    3    0    0 -0.66338578448E-01  0.10563470872E+00 -0.42242851178E-01  0.13898862900E+00  0.44428390002E-01 0.  0.
         14    1    1    2    0    0 -0.62440250767E-02  0.92744096699E-02 -0.69246284394E-02  0.13151159755E-01  0.00000000000E+00 0. -1.
     999901    1    3    3    0    0  0.72582603525E-01 -0.11490911839E+00  0.49167479618E-01  0.89179021125E+00  0.88000000000E+00 0.  1.
        -11    1    4    4    0    0 -0.42743311731E-01  0.28462956319E-01 -0.11472099933E-01  0.52621295861E-01  0.51100000000E-03 0.  1.
         11    1    4    4    0    0 -0.23595266717E-01  0.77171752401E-01 -0.30770751245E-01  0.86367333137E-01  0.51100000000E-03 0. -1.
</event>
<event>
 8    1  0.2959109E+004  0.1043930E+01  0.7957747E-01            NaN
         13   -1    0    0    0    0  0.00000000000E+00  0.00000000000E+00  0.74505805969E-08  0.10566000000E+00  0.10566000000E+00 0.  1.
     999900   -1    0    0    0    0 -0.00000000000E+00 -0.00000000000E+00 -0.74505805969E-08  0.93827000000E+00  0.93827000000E+00 0.  1.
     999902    2    1    2    0    0  0.88348540041E-02  0.38796506733E-02  0.10037503720E-01  0.10300067168E+01  0.10299126074E+01 0.  0.
     999903    2    3    3    0    0  0.12913517689E-02  0.12359610699E+00  0.51050065107E-01  0.14092237628E+00  0.44444816736E-01 0.  0.
         14    1    1    2    0    0 -0.88348540041E-02 -0.38796506733E-02 -0.10037503720E-01  0.13923283217E-01  0.00000000000E+00 0. -1.
     999901    1    3    3    0    0  0.75435022353E-02 -0.11971645632E+00 -0.41012561387E-01  0.88908434051E+00  0.88000000000E+00 0.  1.
        -11    1    4    4    0    0  0.10897747595E-01  0.61113077065E-01  0.41725385904E-02  0.62219291946E-01  0.51100000000E-03 0.  1.
         11    1    4    4    0    0 -0.96063958264E-02  0.62483029930E-01  0.46877526516E-01  0.78703084331E-01  0.51100000000E-03 0. -1.
</event>
<event>
 8    1  0.2959109E+004  0.1043930E+01  0.7957747E-01            NaN
         13   -1    0    0    0    0  0.00000000000E+00  0.00000000000E+00  0.74505805969E-08  0.10566000000E+00  0.10566000000E+00 0.  1.
     999900   -1    0    0    0    0 -0.00000000000E+00 -0.00000000000E+00 -0.74505805969E-08  0.93827000000E+00  0.93827000000E+00 0. -1.
     999902    2    1    2    0    0 -0.12325757154E-01 -0.46585756185E-03  0.55756028650E-02  0.10303938019E+01  0.10303048861E+01 0.  0.
     999903    2    3    3    0    0 -0.12939724329E+00  0.97104916597E-02 -0.35606087841E-01  0.14162767818E+00  0.44188975071E-01 0.  0.
         14    1    1    2    0    0  0.12325757154E-01  0.46585756185E-03 -0.55756028650E-02  0.13536198137E-01  0.00000000000E+00 0.  1.
     999901    1    3    3    0    0  0.11707148613E+00 -0.10176349222E-01  0.41181690706E-01  0.88876612368E+00  0.88000000000E+00 0.  1.
        -11    1    4    4    0    0 -0.90094500948E-01  0.48936241960E-02 -0.45148495021E-01  0.10089407506E+00  0.51100000000E-03 0. -1.
         11    1    4    4    0    0 -0.39302742340E-01  0.48168674637E-02  0.95424071799E-02  0.40733603123E-01  0.51100000000E-03 0.  1.
</event>
<event>
 7    1  0.2959109E+004  0.1043930E+01  0.7957747E-01            NaN
         13   -1    0    0    0    0  0.00000000000E+00  0.00000000000E+00  0.74505805969E-08  0.10566000000E+00  0.10566000000E+00 0.  1.
     999900   -1    0    0    0    0 -0.00000000000E+00 -0.00000000000E+00 -0.74505805969E-08  0.93827000000E+00  0.93827000000E+00 0.  1.
     999903    2    1    2    0    0  0.47345298536E-01 -0.29726358598E-01  0.30135375209E-01  0.77300114175E-01  0.44067370281E-01 0.  0.
         14    1    1    2    0    0  0.63763805027E-01 -0.36597792434E-01 -0.23356964352E-01  0.77141227799E-01  0.00000000000E+00 0. -1.
     999901    1    1    2    0    0 -0.11110910356E+00  0.66324151032E-01 -0.67784108566E-02  0.88948865803E+00  0.88000000000E+00 0. -1.
        -11    1    3    3    0    0  0.36349815907E-01 -0.22159393618E-01 -0.18735390740E-02  0.42615949029E-01  0.51100000000E-03 0. -1.
         11    1    3    3    0    0  0.10995482629E-01 -0.75669649800E-02  0.32008914283E-01  0.34684165145E-01  0.51100000000E-03 0.  1.
</event>
<event>
 8    1  0.2959109E+004  0.1043930E+01  0.7957747E-01            NaN
         13   -1    0    0    0    0  0.00000000000E+00  0.00000000000E+00  0.74505805969E-08  0.10566000000E+00  0.10566000000E+00 0.  1.
     999900   -1    0    0    0    0 -0.00000000000E+00 -0.00000000000E+00 -0.74505805969E-08  0.93827000000E+00  0.93827000000E+00 0. -1.
     999902    2    1    2    0    0 -0.23002130442E-02  0.13131868092E-01  0.14426345549E-02  0.10305203716E+01  0.10304331216E+01 0.  0.
     999903    2    3    3    0    0  0.54414580018E-01 -0.58241136125E-01 -0.10908823693E+00  0.13893316496E+00  0.32391425276E-01 0.  0.
         14    1    1    2    0    0  0.23002130442E-02 -0.13131868092E-01 -0.14426345549E-02  0.13409628410E-01  0.00000000000E+00 0.  1.
     999901    1    3    3    0    0 -0.56714793062E-01  0.71373004216E-01  0.11053087149E+00  0.89158720663E+00  0.88000000000E+00 0.  1.
        -11    1    4    4    0    0  0.31575752272E-01 -0.45652336110E-01 -0.92939909579E-01  0.10825549334E+00  0.51100000000E-03 0. -1.
         11    1    4    4    0    0  0.22838827746E-01 -0.12588800015E-01 -0.16148327356E-01  0.30677671620E-01  0.51100000000E-03 0.  1.
</event>
<event>
 7    1  0.2959109E+004  0.1043930E+01  0.7957747E-01            NaN
         13   -1    0    0    0    0  0.00000000000E+00  0.00000000000E+00  0.74505805969E-08  0.10566000000E+00  0.10566000000E+00 0. -1.
     999900   -1    0    0    0    0 -0.00000000000E+00 -0.00000000000E+00 -0.74505805969E-08  0.93827000000E+00  0.93827000000E+00 0. -1.
     999903    2    1    2    0    0 -0.14862599983E-02  0.10451558694E-01 -0.10279961898E+00  0.11271411140E+00  0.45002946545E-01 0.  0.
         14    1    1    2    0    0  0.16885118529E-01  0.20683318073E-01  0.40264894431E-01  0.48313234189E-01  0.00000000000E+00 0.  1.
     999901    1    1    2    0    0 -0.15398858531E-01 -0.31134876767E-01  0.62534724550E-01  0.88290265441E+00  0.88000000000E+00 0.  1.
        -11    1    3    3    0    0  0.19967459326E-01 -0.23173923825E-02 -0.33728108193E-01  0.39267240070E-01  0.51100000000E-03 0. -1.
         11    1    3    3    0    0 -0.21453719325E-01  0.12768951077E-01 -0.69071510787E-01  0.73446871328E-01  0.51100000000E-03 0.  1.
</event>
<event>
 8    1  0.2959109E+004  0.1043930E+01  0.7957747E-01            NaN
         13   -1    0    0    0    0  0.00000000000E+00  0.00000000000E+00  0.74505805969E-08  0.10566000000E+00  0.10566000000E+00 0. -1.
     999900   -1    0    0    0    0 -0.00000000000E+00 -0.00000000000E+00 -0.74505805969E-08  0.93827000000E+00  0.93827000000E+00 0. -1.
     999902    2    1    2    0    0 -0.39198229143E-02 -0.55936580484E-02  0.15395746963E-01  0.10270871069E+01  0.10269489969E+01 0.  0.
     999903    2    3    3    0    0 -0.10742082698E+00  0.71115528803E-01 -0.13168142071E-01  0.13724855251E+00  0.45465511064E-01 0.  0.
         14    1    1    2    0    0  0.39198229143E-02  0.55936580484E-02 -0.15395746963E-01  0.16842893059E-01  0.00000000000E+00 0.  1.
     999901    1    3    3    0    0  0.10350100406E+00 -0.76709186852E-01  0.28563889034E-01  0.88983855443E+00  0.88000000000E+00 0.  1.
        -11    1    4    4    0    0 -0.64919092177E-01  0.16132048711E-01 -0.10377068841E-01  0.67695466639E-01  0.51100000000E-03 0.  1.
         11    1    4    4    0    0 -0.42501734798E-01  0.54983480092E-01 -0.27910732295E-02  0.69553085875E-01  0.51100000000E-03 0. -1.
</event>
<event>
 8    1  0.2959109E+004  0.1043930E+01  0.7957747E-01            NaN
         13   -1    0    0    0    0  0.00000000000E+00  0.00000000000E+00  0.74505805969E-08  0.10566000000E+00  0.10566000000E+00 0.  1.
     999900   -1    0    0    0    0 -0.00000000000E+00 -0.00000000000E+00 -0.74505805969E-08  0.93827000000E+00  0.93827000000E+00 0.  1.
     999902    2    1    2    0    0 -0.67308241616E-02 -0.11746271387E-01 -0.40446971076E-02  0.10298006525E+01  0.10297037173E+01 0.  0.
     999903    2    3    3    0    0 -0.10439401703E+00  0.66778325986E-01 -0.46122873768E-01  0.13992718703E+00  0.45769450211E-01 0.  0.
         14    1    1    2    0    0  0.67308241616E-02  0.11746271387E-01  0.40446971076E-02  0.14129347476E-01  0.00000000000E+00 0.  1.
     999901    1    3    3    0    0  0.97663192871E-01 -0.78524597373E-01  0.42078176661E-01  0.88987346549E+00  0.88000000000E+00 0. -1.
        -11    1    4    4    0    0 -0.21116495809E-01 -0.54786163893E-02 -0.87187448303E-02  0.23498920511E-01  0.51100000000E-03 0. -1.
         11    1    4    4    0    0 -0.83277521224E-01  0.72256942376E-01 -0.37404128938E-01  0.11642826652E+00  0.51100000000E-03 0.  1.
</event>
<event>
 8    1  0.2959109E+004  0.1043930E+01  0.7957747E-01            NaN
         13   -1    0    0    0    0  0.00000000000E+00  0.00000000000E+00  0.74505805969E-08  0.10566000000E+00  0.10566000000E+00 0. -1.
     999900   -1    0    0    0    0 -0.00000000000E+00 -0.00000000000E+00 -0.74505805969E-08  0.93827000000E+00  0.93827000000E+00 0.  1.
     999902    2    1    2    0    0 -0.82581157607E-02 -0.48773007416E-02 -0.56737835073E-02  0.10327865554E+01  0.10327264365E+01 0.  0.
     999903    2    3    3    0    0 -0.45980290434E-01 -0.18894242399E-01 -0.12694235990E+00  0.14355907902E+00  0.44985185648E-01 0.  0.
         14    1    1    2    0    0  0.82581157607E-02  0.48773007416E-02  0.56737835073E-02  0.11143444608E-01  0.00000000000E+00 0.  1.
     999901    1    3    3    0    0  0.37722174674E-01  0.14016941657E-01  0.12126857639E+00  0.88922747637E+00  0.88000000000E+00 0. -1.
        -11    1    4    4    0    0 -0.54905976187E-02  0.13927565139E-02 -0.72579650184E-01  0.72802150894E-01  0.51100000000E-03 0. -1.
         11    1    4    4    0    0 -0.40489692816E-01 -0.20286998912E-01 -0.54362709716E-01  0.70756928126E-01  0.51100000000E-03 0.  1.
</event>
<event>
 8    1  0.2959109E+004  0.1043930E+01  0.7957747E-01            NaN
         13   -1    0    0    0    0  0.00000000000E+00  0.00000000000E+00  0.74505805969E-08  0.10566000000E+00  0.10566000000E+00 0.  1.
     999900   -1    0    0    0    0 -0.00000000000E+00 -0.00000000000E+00 -0.74505805969E-08  0.93827000000E+00  0.93827000000E+00 0. -1.
     999902    2    1    2    0    0  0.53885863863E-02  0.59147500350E-02 -0.11102365634E-01  0.10302448382E+01  0.10301539414E+01 0.  0.
     999903    2    3    3    0    0 -0.10292417742E+00  0.72818235504E-01  0.39382990871E-01  0.13965149530E+00  0.45339149187E-01 0.  0.
         14    1    1    2    0    0 -0.53885863863E-02 -0.59147500350E-02  0.11102365634E-01  0.13685161815E-01  0.00000000000E+00 0. -1.
     999901    1    3    3    0    0  0.10831276381E+00 -0.66903485469E-01 -0.50485356506E-01  0.89059334289E+00  0.88000000000E+00 0. -1.
        -11    1    4    4    0    0 -0.60766347940E-01  0.17630116922E-01  0.28333022508E-01  0.69328142555E-01  0.51100000000E-03 0. -1.
         11    1    4    4    0    0 -0.42157829483E-01  0.55188118582E-01  0.11049968364E-01  0.70323352744E-01  0.51100000000E-03 0.  1.
</event>
<event>
 8    1  0.2959109E+004  0.1043930E+01  0.7957747E-01            NaN
         13   -1    0    0    0    0  0.00000000000E+00  0.00000000000E+00  0.74505805969E-08  0.10566000000E+00  0.10566000000E+00 0. -1.
     999900   -1    0    0    0    0 -0.00000000000E+00 -0.00000000000E+00 -0.74505805969E-08  0.93827000000E+00  0.93827000000E+00 0. -1.
     999902    2    1    2    0    0  0.68067360498E-03 -0.11933413216E-01 -0.74216624359E-02  0.10298605032E+01  0.10297643931E+01 0.  0.
     999903    2    3    3    0    0  0.12819923649E+00 -0.30480204682E-01  0.15646213221E-01  0.14017679857E+00  0.45173485086E-01 0.  0.
         14    1    1    2    0    0 -0.68067360498E-03  0.11933413216E-01  0.74216624359E-02  0.14069496823E-01  0.00000000000E+00 0. -1.
     999901    1    3    3    0    0 -0.12751856289E+00  0.18546791466E-01 -0.23067875656E-01  0.88968370461E+00  0.88000000000E+00 0.  1.
        -11    1    4    4    0    0  0.73811999135E-01 -0.27177282652E-01  0.29408625855E-01  0.83975855484E-01  0.51100000000E-03 0. -1.
         11    1    4    4    0    0  0.54387237358E-01 -0.33029220298E-02 -0.13762412634E-01  0.56200943087E-01  0.51100000000E-03 0.  1.
</event>
<event>
 8    1  0.2959109E+004  0.1043930E+01  0.7957747E-01            NaN
         13   -1    0    0    0    0  0.00000000000E+00  0.00000000000E+00  0.74505805969E-08  0.10566000000E+00  0.10566000000E+00 0.  1.
     999900   -1    0    0    0    0 -0.00000000000E+00 -0.00000000000E+00 -0.74505805969E-08  0.93827000000E+00  0.93827000000E+00 0. -1.
     999902    2    1    2    0    0 -0.72986971451E-02  0.14944485362E-01 -0.16094132212E-03  0.10272976663E+01  0.10271630156E+01 0.  0.
     999903    2    3    3    0    0  0.51105039579E-02  0.13008623010E+00  0.20500055772E-01  0.13946970634E+00  0.45639918802E-01 0.  0.
         14    1    1    2    0    0  0.72986971451E-02 -0.14944485362E-01  0.16094132212E-03  0.16632333717E-01  0.00000000000E+00 0. -1.
     999901    1    3    3    0    0 -0.12409201103E-01 -0.11514174474E+00 -0.20660997094E-01  0.88782795994E+00  0.88000000000E+00 0. -1.
        -11    1    4    4    0    0 -0.13609609659E-01  0.14010629550E-01  0.84131955384E-02  0.21273509246E-01  0.51100000000E-03 0.  1.
         11    1    4    4    0    0  0.18720113617E-01  0.11607560055E+00  0.12086860234E-01  0.11819619710E+00  0.51100000000E-03 0. -1.
</event>
<event>
 8    1  0.2959109E+004  0.1043930E+01  0.7957747E-01            NaN
         13   -1    0    0    0    0  0.00000000000E+00  0.00000000000E+00  0.74505805969E-08  0.10566000000E+00  0.10566000000E+00 0. -1.
     999900   -1    0    0    0    0 -0.00000000000E+00 -0.00000000000E+00 -0.74505805969E-08  0.93827000000E+00  0.93827000000E+00 0.  1.
     999902    2    1    2    0    0 -0.13188349951E-01 -0.71556116409E-03 -0.11328792052E-05  0.10307222521E+01  0.10306376262E+01 0.  0.
     999903    2    3    3    0    0  0.11335682105E+00  0.10142896536E-01 -0.66030092110E-01  0.13915542354E+00  0.45294719434E-01 0.  0.
         14    1    1    2    0    0  0.13188349951E-01  0.71556116409E-03  0.11328792052E-05  0.13207747859E-01  0.00000000000E+00 0.  1.
     999901    1    3    3    0    0 -0.12654517100E+00 -0.10858457700E-01  0.66028959231E-01  0.89156682860E+00  0.88000000000E+00 0. -1.
        -11    1    4    4    0    0  0.28167115267E-01 -0.16002229606E-01 -0.25635138503E-01  0.41314394367E-01  0.51100000000E-03 0.  1.
         11    1    4    4    0    0  0.85189705778E-01  0.26145126142E-01 -0.40394953608E-01  0.97841029173E-01  0.51100000000E-03 0. -1.
</event>
<event>
 8    1  0.2959109E+004  0.1043930E+01  0.7957747E-01            NaN
         13   -1    0    0    0    0  0.00000000000E+00  0.00000000000E+00  0.74505805969E-08  0.10566000000E+00  0.10566000000E+00 0.  1.
     999900   -1    0    0    0    0 -0.00000000000E+00 -0.00000000000E+00 -0.74505805969E-08  0.93827000000E+00  0.93827000000E+00 0. -1.
     999902    2    1    2    0    0  0.16267574939E-02 -0.12688329171E-01  0.25725567048E-02  0.10308817018E+01  0.10307991197E+01 0.  0.
     999903    2    3    3    0    0 -0.38994606328E-01 -0.98494508480E-01 -0.82857696106E-01  0.14166231175E+00  0.44509159082E-01 0.  0.
         14    1    1    2    0    0 -0.16267574939E-02  0.12688329171E-01 -0.25725567048E-02  0.13048298168E-01  0.00000000000E+00 0. -1.
     999901    1    3    3    0    0  0.40621363821E-01  0.85806179310E-01  0.85430252811E-01  0.88921939008E+00  0.88000000000E+00 0.  1.
        -11    1    4    4    0    0 -0.12500535252E-01 -0.42357207514E-01 -0.62104599383E-01  0.76207865706E-01  0.51100000000E-03 0.  1.
         11    1    4    4    0    0 -0.26494071075E-01 -0.56137300967E-01 -0.20753096723E-01  0.65454446041E-01  0.51100000000E-03 0. -1.
</event>
<event>
 8    1  0.2959109E+004  0.1043930E+01  0.7957747E-01            NaN
         13   -1    0    0    0    0  0.00000000000E+00  0.00000000000E+00  0.74505805969E-08  0.10566000000E+00  0.10566000000E+00 0.  1.
     999900   -1    0    0    0    0 -0.00000000000E+00 -0.00000000000E+00 -0.74505805969E-08  0.93827000000E+00  0.93827000000E+00 0.  1.
     999902    2    1    2    0    0  0.36478565781E-02  0.18493045520E-01 -0.65259701777E-03  0.10250693141E+01  0.10248957865E+01 0.  0.
     999903    2    3    3    0    0  0.10333405013E+00  0.73781739372E-01  0.26747678465E-01  0.13729403174E+00  0.44861362741E-01 0.  0.
         14    1    1    2    0    0 -0.36478565781E-02 -0.18493045520E-01  0.65259701777E-03  0.18860685913E-01  0.00000000000E+00 0.  1.
     999901    1    3    3    0    0 -0.99686193551E-01 -0.55288693852E-01 -0.27400275483E-01  0.88777528235E+00  0.88000000000E+00 0. -1.
        -11    1    4    4    0    0  0.81841288198E-01  0.59064001338E-01  0.39378645368E-01  0.10833970436E+00  0.51100000000E-03 0. -1.
         11    1    4    4    0    0  0.21492761931E-01  0.14717738033E-01 -0.12630966903E-01  0.28954327382E-01  0.51100000000E-03 0.  1.
</event>
<event>
 8    1  0.2959109E+004  0.1043930E+01  0.7957747E-01            NaN
         13   -1    0    0    0    0  0.00000000000E+00  0.00000000000E+00  0.74505805969E-08  0.10566000000E+00  0.10566000000E+00 0.  1.
     999900   -1    0    0    0    0 -0.00000000000E+00 -0.00000000000E+00 -0.74505805969E-08  0.93827000000E+00  0.93827000000E+00 0.  1.
     999902    2    1    2    0    0 -0.15013241851E-01  0.88729040721E-02  0.19855645470E-02  0.10263781248E+01  0.10262280383E+01 0.  0.
     999903    2    3    3    0    0 -0.74115349918E-01  0.81573550227E-02  0.10717991269E+00  0.13814424674E+00  0.45129499102E-01 0.  0.
         14    1    1    2    0    0  0.15013241851E-01 -0.88729040721E-02 -0.19855645470E-02  0.17551875231E-01  0.00000000000E+00 0. -1.
     999901    1    3    3    0    0  0.59102108067E-01  0.71554904949E-03 -0.10519434815E+00  0.88823387802E+00  0.88000000000E+00 0.  1.
        -11    1    4    4    0    0 -0.37513832401E-01  0.72358514591E-02  0.89843798391E-01  0.97631011457E-01  0.51100000000E-03 0. -1.
         11    1    4    4    0    0 -0.36601517517E-01  0.92150356351E-03  0.17336114303E-01  0.40513235288E-01  0.51100000000E-03 0.  1.
</event>
<event>
 8    1  0.2959109E+004  0.1043930E+01  0.7957747E-01            NaN
         13   -1    0    0    0    0  0.00000000000E+00  0.00000000000E+00  0.74505805969E-08  0.10566000000E+00  0.10566000000E+00 0.  1.
     999900   -1    0    0    0    0 -0.00000000000E+00 -0.00000000000E+00 -0.74505805969E-08  0.93827000000E+00  0.93827000000E+00 0.  1.
     999902    2    1    2    0    0 -0.24270401688E-02  0.81513687588E-03  0.14935074851E-01  0.10287770652E+01  0.10286654648E+01 0.  0.
     999903    2    3    3    0    0  0.12039673620E+00 -0.45887876574E-01  0.26210427843E-01  0.13894900030E+00  0.44930689440E-01 0.  0.
         14    1    1    2    0    0  0.24270401688E-02 -0.81513687588E-03 -0.14935074851E-01  0.15152934795E-01  0.00000000000E+00 0. -1.
     999901    1    3    3    0    0 -0.12282377637E+00  0.46703013450E-01 -0.11275352992E-01  0.88982806490E+00  0.88000000000E+00 0. -1.
        -11    1    4    4    0    0  0.19273281145E-01  0.80985062720E-02 -0.16564297187E-02  0.20977369958E-01  0.51100000000E-03 0.  1.
         11    1    4    4    0    0  0.10112345505E+00 -0.53986382846E-01  0.27866857562E-01  0.11797163034E+00  0.51100000000E-03 0. -1.
</event>
<event>
 8    1  0.2959109E+004  0.1043930E+01  0.7957747E-01            NaN
         13   -1    0    0    0    0  0.00000000000E+00  0.00000000000E+00  0.74505805969E-08  0.10566000000E+00  0.10566000000E+00 0.  1.
     999900   -1    0    0    0    0 -0.00000000000E+00 -0.00000000000E+00 -0.74505805969E-08  0.93827000000E+00  0.93827000000E+00 0.  1.
     999902    2    1    2    0    0  0.96836252776E-02  0.70117478340E-02 -0.47006729676E-02  0.10310834622E+01  0.10310034299E+01 0.  0.
     999903    2    3    3    0    0  0.74754664568E-01 -0.53417911814E-01  0.96793775906E-01  0.14080984864E+00  0.44907073399E-01 0.  0.
         14    1    1    2    0    0 -0.96836252776E-02 -0.70117478340E-02  0.47006729676E-02  0.12846537765E-01  0.00000000000E+00 0.  1.
     999901    1    3    3    0    0 -0.65071039290E-01  0.60429659648E-01 -0.10149444887E+00  0.89027361360E+00  0.88000000000E+00 0.  1.
        -11    1    4    4    0    0  0.53144471268E-01 -0.10694834547E-01  0.47295734879E-01  0.71943463713E-01  0.51100000000E-03 0. -1.
         11    1    4    4    0    0  0.21610193300E-01 -0.42723077267E-01  0.49498041028E-01  0.68866384922E-01  0.51100000000E-03 0.  1.
</event>
<event>
 7    1  0.2959109E+004  0.1043930E+01  0.7957747E-01            NaN
         13   -1    0    0    0    0  0.00000000000E+00  0.00000000000E+00  0.74505805969E-08  0.10566000000E+00  0.10566000000E+00 0.  1.
     999900   -1    0    0    0    0 -0.00000000000E+00 -0.00000000000E+00 -0.74505805969E-08  0.93827000000E+00  0.93827000000E+00 0. -1.
     999903    2    1    2    0    0  0.44333201704E-01  0.41415689210E-01 -0.34904555258E-01  0.83366917988E-01  0.45288220885E-01 0.  0.
         14    1    1    2    0    0 -0.68162907216E-01 -0.18025958506E-01 -0.31926038183E-01  0.77397603414E-01  0.00000000000E+00 0. -1.
     999901    1    1    2    0    0  0.23829705512E-01 -0.23389730704E-01  0.66830593441E-01  0.88316547860E+00  0.88000000000E+00 0.  1.
        -11    1    3    3    0    0  0.67172923277E-02  0.26483382667E-01 -0.33002584458E-01  0.42847675265E-01  0.51100000000E-03 0. -1.
         11    1    3    3    0    0  0.37615909376E-01  0.14932306544E-01 -0.19019707998E-02  0.40519242723E-01  0.51100000000E-03 0.  1.
</event>
<event>
 8    1  0.2959109E+004  0.1043930E+01  0.7957747E-01            NaN
         13   -1    0    0    0    0  0.00000000000E+00  0.00000000000E+00  0.74505805969E-08  0.10566000000E+00  0.10566000000E+00 0.  1.
     999900   -1    0    0    0    0 -0.00000000000E+00 -0.00000000000E+00 -0.74505805969E-08  0.93827000000E+00  0.93827000000E+00 0. -1.
     999902    2    1    2    0    0  0.12575718924E-01  0.95423085256E-02 -0.81914157387E-02  0.10261450724E+01  0.10259909385E+01 0.  0.
     999903    2    3    3    0    0 -0.49579040162E-01  0.80458181596E-01 -0.88974494192E-01  0.13742791778E+00  0.45148330632E-01 0.  0.
         14    1    1    2    0    0 -0.12575718924E-01 -0.95423085256E-02  0.81914157387E-02  0.17784927614E-01  0.00000000000E+00 0.  1.
     999901    1    3    3    0    0  0.62154759085E-01 -0.70915873071E-01  0.80783078453E-01  0.88871715461E+00  0.88000000000E+00 0. -1.
        -11    1    4    4    0    0 -0.32791476073E-01  0.47339935123E-01 -0.23589231577E-01  0.62233940321E-01  0.51100000000E-03 0.  1.
         11    1    4    4    0    0 -0.16787564089E-01  0.33118246473E-01 -0.65385262615E-01  0.75193977457E-01  0.51100000000E-03 0. -1.
</event>
<event>
 8    1  0.2959109E+004  0.1043930E+01  0.7957747E-01            NaN
         13   -1    0    0    0    0  0.00000000000E+00  0.00000000000E+00  0.74505805969E-08  0.10566000000E+00  0.10566000000E+00 0.  1.
     999900   -1    0    0    0    0 -0.00000000000E+00 -0.00000000000E+00 -0.74505805969E-08  0.93827000000E+00  0.93827000000E+00 0.  1.
     999902    2    1    2    0    0  0.15889216129E-02 -0.27216545706E-01  0.45736163898E-02  0.10162861399E+01  0.10159101019E+01 0.  0.
     999903    2    3    3    0    0  0.97232888857E-01  0.50550419741E-01 -0.44360374277E-01  0.12634793713E+00  0.44568809709E-01 0.  0.
         14    1    1    2    0    0 -0.15889216129E-02  0.27216545706E-01 -0.45736163898E-02  0.27643860059E-01  0.00000000000E+00 0.  1.
     999901    1    3    3    0    0 -0.95643967244E-01 -0.77766965447E-01  0.48933990667E-01  0.88993820281E+00  0.88000000000E+00 0.  1.
        -11    1    4    4    0    0  0.37229462639E-01  0.38021812879E-01 -0.36536043751E-01  0.64551024446E-01  0.51100000000E-03 0.  1.
         11    1    4    4    0    0  0.60003426218E-01  0.12528606861E-01 -0.78243305261E-02  0.61796912681E-01  0.51100000000E-03 0. -1.
</event>
<event>
 7    1  0.2959109E+004  0.1043930E+01  0.7957747E-01            NaN
         13   -1    0    0    0    0  0.00000000000E+00  0.00000000000E+00  0.74505805969E-08  0.10566000000E+00  0.10566000000E+00 0.  1.
     999900   -1    0    0    0    0 -0.00000000000E+00 -0.00000000000E+00 -0.74505805969E-08  0.93827000000E+00  0.93827000000E+00 0.  1.
     999903    2    1    2    0    0 -0.62646996652E-02 -0.35916266827E-01  0.65669205516E-01  0.87675833603E-01  0.45225905853E-01 0.  0.
         14    1    1    2    0    0  0.13288163191E-01  0.47601089541E-01  0.47932205602E-01  0.68847188326E-01  0.00000000000E+00 0.  1.
     999901    1    1    2    0    0 -0.70234635258E-02 -0.11684822714E-01 -0.11360141112E+00  0.88740697807E+00  0.88000000000E+00 0.  1.
        -11    1    3    3    0    0 -0.15787132733E-01 -0.31387659033E-01  0.19238167154E-01  0.40059791512E-01  0.51100000000E-03 0.  1.
         11    1    3    3    0    0  0.95224330682E-02 -0.45286077935E-02  0.46431038361E-01  0.47616042091E-01  0.51100000000E-03 0. -1.
</event>
<event>
 8    1  0.2959109E+004  0.1043930E+01  0.7957747E-01            NaN
         13   -1    0    0    0    0  0.00000000000E+00  0.00000000000E+00  0.74505805969E-08  0.10566000000E+00  0.10566000000E+00 0. -1.
     999900   -1    0    0    0    0 -0.00000000000E+00 -0.00000000000E+00 -0.74505805969E-08  0.93827000000E+00  0.93827000000E+00 0.  1.
     999902    2    1    2    0    0 -0.12164297476E-01 -0.15763058009E-03  0.76019446860E-02  0.10295848077E+01  0.10294848671E+01 0.  0.
     999903    2    3    3    0    0  0.10078033149E+00 -0.10207449928E-02  0.84441771210E-01  0.13904475065E+00  0.45225134871E-01 0.  0.
         14    1    1    2    0    0  0.12164297476E-01  0.15763058009E-03 -0.76019446860E-02  0.14345192347E-01  0.00000000000E+00 0.  1.
     999901    1    3    3    0    0 -0.11294462896E+00  0.86311441273E-03 -0.76839826524E-01  0.89054005700E+00  0.88000000000E+00 0. -1.
        -11    1    4    4    0    0  0.51065303117E-01  0.20806827693E-01  0.33091378531E-01  0.64310883334E-01  0.51100000000E-03 0. -1.
         11    1    4    4    0    0  0.49715028372E-01 -0.21827572686E-01  0.51350392679E-01  0.74733867320E-01  0.51100000000E-03 0.  1.
</event>
<event>
 8    1  0.2959109E+004  0.1043930E+01  0.7957747E-01            NaN
         13   -1    0    0    0    0  0.00000000000E+00  0.00000000000E+00  0.74505805969E-08  0.10566000000E+00  0.10566000000E+00 0. -1.
     999900   -1    0    0    0    0 -0.00000000000E+00 -0.00000000000E+00 -0.74505805969E-08  0.93827000000E+00  0.93827000000E+00 0. -1.
     999902    2    1    2    0    0  0.63058261409E-02  0.12814380686E-01  0.74492672510E-03  0.10296287164E+01  0.10295293910E+01 0.  0.
     999903    2    3    3    0    0  0.21621314403E-01 -0.90115371979E-01 -0.92169896209E-01  0.13863923138E+00  0.46230782029E-01 0.  0.
         14    1    1    2    0    0 -0.63058261409E-02 -0.12814380686E-01 -0.74492672510E-03  0.14301283562E-01  0.00000000000E+00 0. -1.
     999901    1    3    3    0    0 -0.15315488262E-01  0.10292975266E+00  0.92914822934E-01  0.89098948506E+00  0.88000000000E+00 0.  1.
        -11    1    4    4    0    0 -0.87931180877E-02 -0.48700563981E-01 -0.29575694051E-01  0.57654545852E-01  0.51100000000E-03 0.  1.
         11    1    4    4    0    0  0.30414432491E-01 -0.41414807997E-01 -0.62594202158E-01  0.80984685528E-01  0.51100000000E-03 0. -1.
</event>
<event>
 8    1  0.2959109E+004  0.1043930E+01  0.7957747E-01            NaN
         13   -1    0    0    0    0  0.00000000000E+00  0.00000000000E+00  0.74505805969E-08  0.10566000000E+00  0.10566000000E+00 0. -1.
     999900   -1    0    0    0    0 -0.00000000000E+00 -0.00000000000E+00 -0.74505805969E-08  0.93827000000E+00  0.93827000000E+00 0.  1.
     999902    2    1    2    0    0  0.17245097510E-01  0.48054932959E-02 -0.37389081008E-02  0.10256415996E+01  0.10254785348E+01 0.  0.
     999903    2    3    3    0    0 -0.16183829449E-01 -0.11289985430E+00  0.58222156458E-01  0.13501754004E+00  0.42797466976E-01 0.  0.
         14    1    1    2    0    0 -0.17245097510E-01 -0.48054932959E-02  0.37389081008E-02  0.18288400360E-01  0.00000000000E+00 0. -1.
     999901    1    3    3    0    0  0.33428926960E-01  0.11770534760E+00 -0.61961064558E-01  0.89062405960E+00  0.88000000000E+00 0.  1.
        -11    1    4    4    0    0 -0.26706206159E-01 -0.77719079971E-01  0.26097149348E-01  0.86225281467E-01  0.51100000000E-03 0. -1.
         11    1    4    4    0    0  0.10522376710E-01 -0.35180774331E-01  0.32125007110E-01  0.48792258576E-01  0.51100000000E-03 0.  1.
</event>
<event>
 8    1  0.2959109E+004  0.1043930E+01  0.7957747E-01            NaN
         13   -1    0    0    0    0  0.00000000000E+00  0.00000000000E+00  0.74505805969E-08  0.10566000000E+00  0.10566000000E+00 0.  1.
     999900   -1    0    0    0    0 -0.00000000000E+00 -0.00000000000E+00 -0.74505805969E-08  0.93827000000E+00  0.93827000000E+00 0. -1.
     999902    2    1    2    0    0 -0.24543452403E-01  0.35681717910E-02  0.13965223649E-01  0.10154670350E+01  0.10150680562E+01 0.  0.
     999903    2    3    3    0    0  0.16801630204E-01  0.11580770914E+00  0.21783923197E-01  0.12734077050E+00  0.45248339738E-01 0.  0.
         14    1    1    2    0    0  0.24543452403E-01 -0.35681717910E-02 -0.13965223649E-01  0.28462965014E-01  0.00000000000E+00 0.  1.
     999901    1    3    3    0    0 -0.41345082608E-01 -0.11223953735E+00 -0.78186995480E-02  0.88812626448E+00  0.88000000000E+00 0. -1.
        -11    1    4    4    0    0  0.30027306140E-01  0.87749054818E-01  0.70991931606E-02  0.93017177983E-01  0.51100000000E-03 0. -1.
         11    1    4    4    0    0 -0.13225675936E-01  0.28058654322E-01  0.14684730036E-01  0.34323592521E-01  0.51100000000E-03 0.  1.
</event>
<event>
 8    1  0.2959109E+004  0.1043930E+01  0.7957747E-01            NaN
         13   -1    0    0    0    0  0.00000000000E+00  0.00000000000E+00  0.74505805969E-08  0.10566000000E+00  0.10566000000E+00 0.  1.
     999900   -1    0    0    0    0 -0.00000000000E+00 -0.00000000000E+00 -0.74505805969E-08  0.93827000000E+00  0.93827000000E+00 0.  1.
     999902    2    1    2    0    0 -0.22456032606E-02 -0.44809269156E-02  0.13292230941E-01  0.10297241968E+01  0.10296262024E+01 0.  0.
     999903    2    3    3    0    0  0.53450595865E-01  0.85987546228E-01  0.86199024552E-01  0.14034125807E+00  0.44883990209E-01 0.  0.
         14    1    1    2    0    0  0.22456032606E-02  0.44809269156E-02 -0.13292230941E-01  0.14205803160E-01  0.00000000000E+00 0. -1.
     999901    1    3    3    0    0 -0.55696199125E-01 -0.90468473143E-01 -0.72906793611E-01  0.88938293878E+00  0.88000000000E+00 0. -1.
        -11    1    4    4    0    0  0.33751868137E-01  0.22565176133E-01  0.50960909926E-01  0.65158662035E-01  0.51100000000E-03 0.  1.
         11    1    4    4    0    0  0.19698727727E-01  0.63422370095E-01  0.35238114626E-01  0.75182596031E-01  0.51100000000E-03 0. -1.
</event>
<event>
 8    1  0.2959109E+004  0.1043930E+01  0.7957747E-01            NaN
         13   -1    0    0    0    0  0.00000000000E+00  0.00000000000E+00  0.74505805969E-08  0.10566000000E+00  0.10566000000E+00 0. -1.
     999900   -1    0    0    0    0 -0.00000000000E+00 -0.00000000000E+00 -0.74505805969E-08  0.93827000000E+00  0.93827000000E+00 0. -1.
     999902    2    1    2    0    0  0.13097440525E-01  0.82008803944E-03  0.55330488337E-02  0.10296881559E+01  0.10295896602E+01 0.  0.
     999903    2    3    3    0    0  0.13518417626E-01  0.11568013699E+00 -0.62353134883E-01  0.13963111170E+00  0.45213849815E-01 0.  0.
         14    1    1    2    0    0 -0.13097440525E-01 -0.82008803944E-03 -0.55330488337E-02  0.14241844055E-01  0.00000000000E+00 0.  1.
     999901    1    3    3    0    0 -0.42097710046E-03 -0.11486004895E+00  0.67886183717E-01  0.89005704424E+00  0.88000000000E+00 0.  1.
        -11    1    4    4    0    0  0.29185587323E-01  0.65020090896E-01 -0.28755885233E-01  0.76854230750E-01  0.51100000000E-03 0. -1.
         11    1    4    4    0    0 -0.15667169698E-01  0.50660046098E-01 -0.33597249650E-01  0.62776880952E-01  0.51100000000E-03 0.  1.
</event>
<event>
 8    1  0.2959109E+004  0.1043930E+01  0.7957747E-01            NaN
         13   -1    0    0    0    0  0.00000000000E+00  0.00000000000E+00  0.74505805969E-08  0.10566000000E+00  0.10566000000E+00 0. -1.
     999900   -1    0    0    0    0 -0.00000000000E+00 -0.00000000000E+00 -0.74505805969E-08  0.93827000000E+00  0.93827000000E+00 0.  1.
     999902    2    1    2    0    0 -0.16590252601E-01 -0.98695079088E-03 -0.42974253150E-02  0.10267638001E+01  0.10266202915E+01 0.  0.
     999903    2    3    3    0    0 -0.76589331573E-01  0.42025935119E-01 -0.97939854241E-01  0.13872162641E+00  0.44937397027E-01 0.  0.
         14    1    1    2    0    0  0.16590252601E-01  0.98695079088E-03  0.42974253150E-02  0.17166199858E-01  0.00000000000E+00 0. -1.
     999901    1    3    3    0    0  0.59999078973E-01 -0.43012885910E-01  0.93642428926E-01  0.88804217373E+00  0.88000000000E+00 0. -1.
        -11    1    4    4    0    0 -0.36118285255E-01  0.41457301004E-01 -0.72193401472E-01  0.90749031253E-01  0.51100000000E-03 0.  1.
         11    1    4    4    0    0 -0.40471046319E-01  0.56863411543E-03 -0.25746452769E-01  0.47972595157E-01  0.51100000000E-03 0. -1.
</event>
<event>
 8    1  0.2959109E+004  0.1043930E+01  0.7957747E-01            NaN
         13   -1    0    0    0    0  0.00000000000E+00  0.00000000000E+00  0.74505805969E-08  0.10566000000E+00  0.10566000000E+00 0.  1.
     999900   -1    0    0    0    0 -0.00000000000E+00 -0.00000000000E+00 -0.74505805969E-08  0.93827000000E+00  0.93827000000E+00 0. -1.
     999902    2    1    2    0    0  0.10341547944E-01 -0.37097982577E-02  0.92535498814E-02  0.10295655159E+01  0.10294653045E+01 0.  0.
     999903    2    3    3    0    0 -0.80870884554E-02  0.13167914080E+00  0.20727499353E-02  0.13899191238E+00  0.43699637239E-01 0.  0.
         14    1    1    2    0    0 -0.10341547944E-01  0.37097982577E-02 -0.92535498814E-02  0.14364484063E-01  0.00000000000E+00 0. -1.
     999901    1    3    3    0    0  0.18428636399E-01 -0.13538893906E+00  0.71807999461E-02  0.89057360355E+00  0.88000000000E+00 0.  1.
        -11    1    4    4    0    0  0.26779163007E-02  0.14786309071E-01 -0.13955684732E-01  0.20514103173E-01  0.51100000000E-03 0. -1.
         11    1    4    4    0    0 -0.10765004756E-01  0.11689283173E+00  0.16028434667E-01  0.11847780921E+00  0.51100000000E-03 0.  1.
</event>
<event>
 8    1  0.2959109E+004  0.1043930E+01  0.7957747E-01            NaN
         13   -1    0    0    0    0  0.00000000000E+00  0.00000000000E+00  0.74505805969E-08  0.10566000000E+00  0.10566000000E+00 0.  1.
     999900   -1    0    0    0    0 -0.00000000000E+00 -0.00000000000E+00 -0.74505805969E-08  0.93827000000E+00  0.93827000000E+00 0. -1.
     999902    2    1    2    0    0  0.45516318648E-02 -0.99930091481E-02 -0.78281790973E-02  0.10304445274E+01  0.10303562811E+01 0.  0.
     999903    2    3    3    0    0  0.94137409613E-01 -0.24954797109E-01 -0.92985874868E-01  0.14168061055E+00  0.44072992775E-01 0.  0.
         14    1    1    2    0    0 -0.45516318648E-02  0.99930091481E-02  0.78281790973E-02  0.13485472645E-01  0.00000000000E+00 0.  1.
     999901    1    3    3    0    0 -0.89585777749E-01  0.14961787961E-01  0.85157695771E-01  0.88876391681E+00  0.88000000000E+00 0.  1.
        -11    1    4    4    0    0  0.39722189008E-01 -0.24402537443E-01 -0.20225449009E-01  0.50819937445E-01  0.51100000000E-03 0.  1.
         11    1    4    4    0    0  0.54415220605E-01 -0.55225966669E-03 -0.72760425859E-01  0.90860673101E-01  0.51100000000E-03 0. -1.
</event>
<event>
 8    1  0.2959109E+004  0.1043930E+01  0.7957747E-01            NaN
         13   -1    0    0    0    0  0.00000000000E+00  0.00000000000E+00  0.74505805969E-08  0.10566000000E+00  0.10566000000E+00 0.  1.
     999900   -1    0    0    0    0 -0.00000000000E+00 -0.00000000000E+00 -0.74505805969E-08  0.93827000000E+00  0.93827000000E+00 0.  1.
     999902    2    1    2    0    0 -0.28807148610E-02 -0.10318824053E-02  0.12878972955E-01  0.10306925061E+01  0.10306074961E+01 0.  0.
     999903    2    3    3    0    0 -0.11144675892E+00 -0.12365444821E-01  0.72655499119E-01  0.14193592043E+00  0.47892584565E-01 0.  0.
         14    1    1    2    0    0  0.28807148610E-02  0.10318824053E-02 -0.12878972955E-01  0.13237493863E-01  0.00000000000E+00 0. -1.
     999901    1    3    3    0    0  0.10856604406E+00  0.11333562416E-01 -0.59776526165E-01  0.88875658571E+00  0.88000000000E+00 0.  1.
        -11    1    4    4    0    0 -0.62312748841E-01  0.12996024229E-01  0.54312231507E-01  0.83677087223E-01  0.51100000000E-03 0.  1.
         11    1    4    4    0    0 -0.49134010079E-01 -0.25361469050E-01  0.18343267612E-01  0.58258833205E-01  0.51100000000E-03 0. -1.
</event>
<event>
 8    1  0.2959109E+004  0.1043930E+01  0.7957747E-01            NaN
         13   -1    0    0    0    0  0.00000000000E+00  0.00000000000E+00  0.74505805969E-08  0.10566000000E+00  0.10566000000E+00 0.  1.
     999900   -1    0    0    0    0 -0.00000000000E+00 -0.00000000000E+00 -0.74505805969E-08  0.93827000000E+00  0.93827000000E+00 0.  1.
     999902    2    1    2    0    0  0.34541323289E-02 -0.14245789135E-01 -0.36851886609E-04  0.10292713883E+01  0.10291670010E+01 0.  0.
     999903    2    3    3    0    0  0.35475566807E-01  0.10227210019E+00 -0.72813560590E-01  0.13803727759E+00  0.45104069461E-01 0.  0.
         14    1    1    2    0    0 -0.34541323289E-02  0.14245789135E-01  0.36851886609E-04  0.14658611677E-01  0.00000000000E+00 0. -1.
     999901    1    3    3    0    0 -0.32021434478E-01 -0.11651788933E+00  0.72776708704E-01  0.89123411073E+00  0.88000000000E+00 0.  1.
        -11    1    4    4    0    0  0.18683574100E-02  0.27940153668E-01 -0.42727036893E-01  0.51088195790E-01  0.51100000000E-03 0.  1.
         11    1    4    4    0    0  0.33607209397E-01  0.74331946522E-01 -0.30086523697E-01  0.86949081803E-01  0.51100000000E-03 0. -1.
</event>
<event>
 8    1  0.2959109E+004  0.1043930E+01  0.7957747E-01            NaN
         13   -1    0    0    0    0  0.00000000000E+00  0.00000000000E+00  0.74505805969E-08  0.10566000000E+00  0.10566000000E+00 0.  1.
     999900   -1    0    0    0    0 -0.00000000000E+00 -0.00000000000E+00 -0.74505805969E-08  0.93827000000E+00  0.93827000000E+00 0.  1.
     999902    2    1    2    0    0  0.81502637591E-02 -0.47890625079E-02  0.96702503802E-02  0.10304068472E+01  0.10303181038E+01 0.  0.
     999903    2    3    3    0    0  0.35098668621E-01 -0.12448082154E+00  0.35542445707E-01  0.14151894415E+00  0.45132633844E-01 0.  0.
         14    1    1    2    0    0 -0.81502637591E-02  0.47890625079E-02 -0.96702503802E-02  0.13523152793E-01  0.00000000000E+00 0. -1.
     999901    1    3    3    0    0 -0.26948404862E-01  0.11969175903E+00 -0.25872195327E-01  0.88888790305E+00  0.88000000000E+00 0. -1.
        -11    1    4    4    0    0 -0.10840486033E-01 -0.28028738347E-01  0.99624916311E-02  0.31664470172E-01  0.51100000000E-03 0.  1.
         11    1    4    4    0    0  0.45939154654E-01 -0.96452083191E-01  0.25579954076E-01  0.10985447398E+00  0.51100000000E-03 0. -1.
</event>
<event>
 8    1  0.2959109E+004  0.1043930E+01  0.7957747E-01            NaN
         13   -1    0    0    0    0  0.00000000000E+00  0.00000000000E+00  0.74505805969E-08  0.10566000000E+00  0.10566000000E+00 0.  1.
     999900   -1    0    0    0    0 -0.00000000000E+00 -0.00000000000E+00 -0.74505805969E-08  0.93827000000E+00  0.93827000000E+00 0. -1.
     999902    2    1    2    0    0  0.37001939691E-02  0.12276437691E-01  0.51230300616E-02  0.10301224733E+01  0.10300299326E+01 0.  0.
     999903    2    3    3    0    0 -0.25054758118E-01 -0.30980987330E-01  0.12716964702E+00  0.14018234673E+00  0.43490329169E-01 0.  0.
         14    1    1    2    0    0 -0.37001939691E-02 -0.12276437691E-01 -0.51230300616E-02  0.13807526745E-01  0.00000000000E+00 0. -1.
     999901    1    3    3    0    0  0.28754952087E-01  0.43257425021E-01 -0.12204661696E+00  0.88994012653E+00  0.88000000000E+00 0. -1.
        -11    1    4    4    0    0 -0.35590078730E-01 -0.16140585583E-01  0.10103872112E+00  0.10833400433E+00  0.51100000000E-03 0. -1.
         11    1    4    4    0    0  0.10535320612E-01 -0.14840401747E-01  0.26130925897E-01  0.31848342400E-01  0.51100000000E-03 0.  1.
</event>
<event>
 8    1  0.2959109E+004  0.1043930E+01  0.7957747E-01            NaN
         13   -1    0    0    0    0  0.00000000000E+00  0.00000000000E+00  0.74505805969E-08  0.10566000000E+00  0.10566000000E+00 0.  1.
     999900   -1    0    0    0    0 -0.00000000000E+00 -0.00000000000E+00 -0.74505805969E-08  0.93827000000E+00  0.93827000000E+00 0. -1.
     999902    2    1    2    0    0 -0.62347183027E-02  0.73068831183E-02 -0.10274768565E-01  0.10298646837E+01  0.10297686311E+01 0.  0.
     999903    2    3    3    0    0  0.78313510520E-02 -0.31206766713E-01 -0.12994689631E+00  0.14081880543E+00  0.43686928886E-01 0.  0.
         14    1    1    2    0    0  0.62347183027E-02 -0.73068831183E-02  0.10274768565E-01  0.14065316288E-01  0.00000000000E+00 0.  1.
     999901    1    3    3    0    0 -0.14066069355E-01  0.38513649831E-01  0.11967212774E+00  0.88904587828E+00  0.88000000000E+00 0.  1.
        -11    1    4    4    0    0  0.21641638642E-01 -0.33828327126E-01 -0.94218842286E-01  0.10242151923E+00  0.51100000000E-03 0.  1.
         11    1    4    4    0    0 -0.13810287590E-01  0.26215604136E-02 -0.35728054020E-01  0.38397286198E-01  0.51100000000E-03 0. -1.
</event>
<event>
 8    1  0.2959109E+004  0.1043930E+01  0.7957747E-01            NaN
         13   -1    0    0    0    0  0.00000000000E+00  0.00000000000E+00  0.74505805969E-08  0.10566000000E+00  0.10566000000E+00 0.  1.
     999900   -1    0    0    0    0 -0.00000000000E+00 -0.00000000000E+00 -0.74505805969E-08  0.93827000000E+00  0.93827000000E+00 0.  1.
     999902    2    1    2    0    0  0.95672805197E-04  0.60430347494E-02  0.11912846496E-01  0.10305717316E+01  0.10304851531E+01 0.  0.
     999903    2    3    3    0    0 -0.36072132515E-01  0.12583748680E+00 -0.26149495972E-01  0.14090462377E+00  0.45100388383E-01 0.  0.
         14    1    1    2    0    0 -0.95672805197E-04 -0.60430347494E-02 -0.11912846496E-01  0.13358268372E-01  0.00000000000E+00 0. -1.
     999901    1    3    3    0    0  0.36167805320E-01 -0.11979445205E+00  0.38062342468E-01  0.88966710785E+00  0.88000000000E+00 0.  1.
        -11    1    4    4    0    0 -0.19259567060E-01  0.54294916464E-01  0.10847744833E-01  0.58624257489E-01  0.51100000000E-03 0. -1.
         11    1    4    4    0    0 -0.16812565455E-01  0.71542570338E-01 -0.36997240805E-01  0.82280366284E-01  0.51100000000E-03 0.  1.
</event>
<event>
 8    1  0.2959109E+004  0.1043930E+01  0.7957747E-01            NaN
         13   -1    0    0    0    0  0.00000000000E+00  0.00000000000E+00  0.74505805969E-08  0.10566000000E+00  0.10566000000E+00 0. -1.
     999900   -1    0    0    0    0 -0.00000000000E+00 -0.00000000000E+00 -0.74505805969E-08  0.93827000000E+00  0.93827000000E+00 0.  1.
     999902    2    1    2    0    0 -0.87583854088E-02  0.36523368015E-02 -0.99573729980E-02  0.10301750679E+01  0.10300832357E+01 0.  0.
     999903    2    3    3    0    0  0.18969501943E-01 -0.12201982441E+00 -0.48039298995E-01  0.13999948923E+00  0.45204017321E-01 0.  0.
         14    1    1    2    0    0  0.87583854088E-02 -0.36523368015E-02  0.99573729980E-02  0.13754932065E-01  0.00000000000E+00 0. -1.
     999901    1    3    3    0    0 -0.27727887352E-01  0.12567216122E+00  0.38081925997E-01  0.89017557871E+00  0.88000000000E+00 0. -1.
        -11    1    4    4    0    0  0.30634332805E-01 -0.10900550824E+00 -0.36167212525E-01  0.11886543465E+00  0.51100000000E-03 0. -1.
         11    1    4    4    0    0 -0.11664830862E-01 -0.13014316178E-01 -0.11872086470E-01  0.21134054575E-01  0.51100000000E-03 0.  1.
</event>
<event>
 8    1  0.2959109E+004  0.1043930E+01  0.7957747E-01            NaN
         13   -1    0    0    0    0  0.00000000000E+00  0.00000000000E+00  0.74505805969E-08  0.10566000000E+00  0.10566000000E+00 0. -1.
     999900   -1    0    0    0    0 -0.00000000000E+00 -0.00000000000E+00 -0.74505805969E-08  0.93827000000E+00  0.93827000000E+00 0. -1.
     999902    2    1    2    0    0 -0.68029919887E-02  0.15582628562E-01  0.88875288811E-03  0.10269038761E+01  0.10267627194E+01 0.  0.
     999903    2    3    3    0    0 -0.64870688924E-01  0.31967096867E-02 -0.11401852647E+00  0.13744957641E+00  0.40911324133E-01 0.  0.
         14    1    1    2    0    0  0.68029919887E-02 -0.15582628562E-01 -0.88875288811E-03  0.17026123886E-01  0.00000000000E+00 0.  1.
     999901    1    3    3    0    0  0.58067696935E-01  0.12385918875E-01  0.11490727936E+00  0.88945429970E+00  0.88000000000E+00 0.  1.
        -11    1    4    4    0    0 -0.33772635145E-01 -0.18654617079E-01 -0.52946411168E-01  0.65514648740E-01  0.51100000000E-03 0. -1.
         11    1    4    4    0    0 -0.31098053779E-01  0.21851326765E-01 -0.61072115302E-01  0.71934927669E-01  0.51100000000E-03 0.  1.
</event>
<event>
 8    1  0.2959109E+004  0.1043930E+01  0.7957747E-01            NaN
         13   -1    0    0    0    0  0.00000000000E+00  0.00000000000E+00  0.74505805969E-08  0.10566000000E+00  0.10566000000E+00 0.  1.
     999900   -1    0    0    0    0 -0.00000000000E+00 -0.00000000000E+00 -0.74505805969E-08  0.93827000000E+00  0.93827000000E+00 0. -1.
     999902    2    1    2    0    0  0.83157850521E-02  0.78910347653E-02 -0.77984809947E-02  0.10300650436E+01  0.10299717263E+01 0.  0.
     999903    2    3    3    0    0 -0.12785148282E+00  0.40095293364E-02  0.29747992880E-01  0.13879273467E+00  0.44904366508E-01 0.  0.
         14    1    1    2    0    0 -0.83157850521E-02 -0.78910347653E-02  0.77984809947E-02  0.13864956420E-01  0.00000000000E+00 0.  1.
     999901    1    3    3    0    0  0.13616726788E+00  0.38815054290E-02 -0.37546473875E-01  0.89127230891E+00  0.88000000000E+00 0.  1.
        -11    1    4    4    0    0 -0.39866003114E-01  0.10729852561E-01 -0.92578436262E-02  0.42313079891E-01  0.51100000000E-03 0. -1.
         11    1    4    4    0    0 -0.87985479710E-01 -0.67203232242E-02  0.39005836506E-01  0.96479654781E-01  0.51100000000E-03 0.  1.
</event>
<event>
 8    1  0.2959109E+004  0.1043930E+01  0.7957747E-01            NaN
         13   -1    0    0    0    0  0.00000000000E+00  0.00000000000E+00  0.74505805969E-08  0.10566000000E+00  0.10566000000E+00 0. -1.
     999900   -1    0    0    0    0 -0.00000000000E+00 -0.00000000000E+00 -0.74505805969E-08  0.93827000000E+00  0.93827000000E+00 0. -1.
     999902    2    1    2    0    0  0.52905016463E-02 -0.11442211508E-01 -0.59945348416E-02  0.10299712013E+01  0.10298766079E+01 0.  0.
     999903    2    3    3    0    0 -0.48618127001E-01  0.80317150036E-01 -0.93934344482E-01  0.13920785972E+00  0.41720501800E-01 0.  0.
         14    1    1    2    0    0 -0.52905016463E-02  0.11442211508E-01  0.59945348416E-02  0.13958798653E-01  0.00000000000E+00 0.  1.
     999901    1    3    3    0    0  0.53908628648E-01 -0.91759361544E-01  0.87939809641E-01  0.89076334163E+00  0.88000000000E+00 0.  1.
        -11    1    4    4    0    0 -0.16323969722E-01  0.59527390674E-02 -0.34661895222E-01  0.38776477294E-01  0.51100000000E-03 0.  1.
         11    1    4    4    0    0 -0.32294157279E-01  0.74364410968E-01 -0.59272449260E-01  0.10043138242E+00  0.51100000000E-03 0. -1.
</event>
<event>
 8    1  0.2959109E+004  0.1043930E+01  0.7957747E-01            NaN
         13   -1    0    0    0    0  0.00000000000E+00  0.00000000000E+00  0.74505805969E-08  0.10566000000E+00  0.10566000000E+00 0.  1.
     999900   -1    0    0    0    0 -0.00000000000E+00 -0.00000000000E+00 -0.74505805969E-08  0.93827000000E+00  0.93827000000E+00 0.  1.
     999902    2    1    2    0    0 -0.62513946822E-03 -0.28447220906E-02 -0.13525304285E-01  0.10300946432E+01  0.10300017266E+01 0.  0.
     999903    2    3    3    0    0  0.28410310249E-01 -0.41163121259E-01  0.12059829202E+00  0.13863488739E+00  0.46627627892E-01 0.  0.
         14    1    1    2    0    0  0.62513946822E-03  0.28447220906E-02  0.13525304285E-01  0.13835356849E-01  0.00000000000E+00 0.  1.
     999901    1    3    3    0    0 -0.29035449717E-01  0.38318399169E-01 -0.13412359631E+00  0.89145975576E+00  0.88000000000E+00 0.  1.
        -11    1    4    4    0    0  0.15148322102E-01 -0.11955155345E-01  0.96757706103E-01  0.98664645204E-01  0.51100000000E-03 0.  1.
         11    1    4    4    0    0  0.13261988147E-01 -0.29207965915E-01  0.23840585919E-01  0.39970242186E-01  0.51100000000E-03 0. -1.
</event>
<event>
 8    1  0.2959109E+004  0.1043930E+01  0.7957747E-01            NaN
         13   -1    0    0    0    0  0.00000000000E+00  0.00000000000E+00  0.74505805969E-08  0.10566000000E+00  0.10566000000E+00 0. -1.
     999900   -1    0    0    0    0 -0.00000000000E+00 -0.00000000000E+00 -0.74505805969E-08  0.93827000000E+00  0.93827000000E+00 0. -1.
     999902    2    1    2    0    0 -0.66135803471E-02 -0.10661773921E-01  0.72850864179E-02  0.10294218867E+01  0.10293196469E+01 0.  0.
     999903    2    3    3    0    0  0.40599762254E-01  0.11142842561E+00  0.55815870543E-01  0.13841663779E+00  0.44487295746E-01 0.  0.
         14    1    1    2    0    0  0.66135803471E-02  0.10661773921E-01 -0.72850864179E-02  0.14508113326E-01  0.00000000000E+00 0. -1.
     999901    1    3    3    0    0 -0.47213342601E-01 -0.12209019953E+00 -0.48530784125E-01  0.89100524889E+00  0.88000000000E+00 0. -1.
        -11    1    4    4    0    0  0.10758836580E-01  0.85889691766E-01  0.45555919054E-01  0.97818171104E-01  0.51100000000E-03 0.  1.
         11    1    4    4    0    0  0.29840925674E-01  0.25538733841E-01  0.10259951488E-01  0.40598466681E-01  0.51100000000E-03 0. -1.
</event>
<event>
 8    1  0.2959109E+004  0.1043930E+01  0.7957747E-01            NaN
         13   -1    0    0    0    0  0.00000000000E+00  0.00000000000E+00  0.74505805969E-08  0.10566000000E+00  0.10566000000E+00 0. -1.
     999900   -1    0    0    0    0 -0.00000000000E+00 -0.00000000000E+00 -0.74505805969E-08  0.93827000000E+00  0.93827000000E+00 0. -1.
     999902    2    1    2    0    0 -0.21290484220E-02 -0.14048790925E-01  0.60080327461E-02  0.10285028217E+01  0.10283871141E+01 0.  0.
     999903    2    3    3    0    0 -0.69948603598E-01  0.90527949600E-01  0.62567159658E-01  0.13792170714E+00  0.44940305175E-01 0.  0.
         14    1    1    2    0    0  0.21290484220E-02  0.14048790925E-01 -0.60080327461E-02  0.15427178327E-01  0.00000000000E+00 0.  1.
     999901    1    3    3    0    0  0.67819555176E-01 -0.10457674053E+00 -0.56559126912E-01  0.89058111453E+00  0.88000000000E+00 0. -1.
        -11    1    4    4    0    0 -0.30455446200E-01  0.72816762634E-01  0.33286005906E-01  0.85662327974E-01  0.51100000000E-03 0.  1.
         11    1    4    4    0    0 -0.39493157398E-01  0.17711186966E-01  0.29281153752E-01  0.52259379168E-01  0.51100000000E-03 0. -1.
</event>
<event>
 8    1  0.2959109E+004  0.1043930E+01  0.7957747E-01            NaN
         13   -1    0    0    0    0  0.00000000000E+00  0.00000000000E+00  0.74505805969E-08  0.10566000000E+00  0.10566000000E+00 0. -1.
     999900   -1    0    0    0    0 -0.00000000000E+00 -0.00000000000E+00 -0.74505805969E-08  0.93827000000E+00  0.93827000000E+00 0. -1.
     999902    2    1    2    0    0  0.22185041451E-02  0.14266046636E-01  0.20173101476E-01  0.10191228262E+01  0.10188208572E+01 0.  0.
     999903    2    3    3    0    0  0.10634475884E+00 -0.57242669353E-01  0.13446864518E-01  0.13007782420E+00  0.46405724365E-01 0.  0.
         14    1    1    2    0    0 -0.22185041451E-02 -0.14266046636E-01 -0.20173101476E-01  0.24807173769E-01  0.00000000000E+00 0.  1.
     999901    1    3    3    0    0 -0.10412625470E+00  0.71508715989E-01  0.67262369578E-02  0.88904500204E+00  0.88000000000E+00 0.  1.
        -11    1    4    4    0    0  0.10348717537E+00 -0.40326770959E-01  0.17511237109E-01  0.11243997718E+00  0.51100000000E-03 0. -1.
         11    1    4    4    0    0  0.28575834733E-02 -0.16915898394E-01 -0.40643725912E-02  0.17637847015E-01  0.51100000000E-03 0.  1.
</event>
<event>
 8    1  0.2959109E+004  0.1043930E+01  0.7957747E-01            NaN
         13   -1    0    0    0    0  0.00000000000E+00  0.00000000000E+00  0.74505805969E-08  0.10566000000E+00  0.10566000000E+00 0. -1.
     999900   -1    0    0    0    0 -0.00000000000E+00 -0.00000000000E+00 -0.74505805969E-08  0.93827000000E+00  0.93827000000E+00 0.  1.
     999902    2    1    2    0    0  0.80168399414E-02 -0.83689459046E-02 -0.68015210523E-02  0.10304923787E+01  0.10304047617E+01 0.  0.
     999903    2    3    3    0    0 -0.23129416982E-01 -0.95148095962E-01 -0.91716045361E-01  0.14161039177E+00  0.45316001433E-01 0.  0.
         14    1    1    2    0    0 -0.80168399414E-02  0.83689459046E-02  0.68015210523E-02  0.13437621323E-01  0.00000000000E+00 0. -1.
     999901    1    3    3    0    0  0.31146256924E-01  0.86779150058E-01  0.84914524309E-01  0.88888198690E+00  0.88000000000E+00 0. -1.
        -11    1    4    4    0    0 -0.36057212164E-01 -0.75768432136E-01 -0.64875105164E-01  0.10606610320E+00  0.51100000000E-03 0.  1.
         11    1    4    4    0    0  0.12927795182E-01 -0.19379663826E-01 -0.26840940197E-01  0.35544288570E-01  0.51100000000E-03 0. -1.
</event>
<event>
 8    1  0.2959109E+004  0.1043930E+01  0.7957747E-01            NaN
         13   -1    0    0    0    0  0.00000000000E+00  0.00000000000E+00  0.74505805969E-08  0.10566000000E+00  0.10566000000E+00 0. -1.
     999900   -1    0    0    0    0 -0.00000000000E+00 -0.00000000000E+00 -0.74505805969E-08  0.93827000000E+00  0.93827000000E+00 0. -1.
     999902    2    1    2    0    0 -0.11306217734E-01  0.32706492933E-02  0.73406085116E-02  0.10300587261E+01  0.10299653232E+01 0.  0.
     999903    2    3    3    0    0  0.17182806908E-01  0.13160671441E+00  0.59288933392E-02  0.14029259780E+00  0.45069780216E-01 0.  0.
         14    1    1    2    0    0  0.11306217734E-01 -0.32706492933E-02 -0.73406085116E-02  0.13871273899E-01  0.00000000000E+00 0.  1.
     999901    1    3    3    0    0 -0.28489024642E-01 -0.12833606512E+00  0.14117151724E-02  0.88976612830E+00  0.88000000000E+00 0.  1.
        -11    1    4    4    0    0 -0.87094943066E-02  0.88804783193E-01  0.11442225070E-01  0.89962939284E-01  0.51100000000E-03 0. -1.
         11    1    4    4    0    0  0.25892301214E-01  0.42801931220E-01 -0.55133317306E-02  0.50329658514E-01  0.51100000000E-03 0.  1.
</event>
<event>
 8    1  0.2959109E+004  0.1043930E+01  0.7957747E-01            NaN
         13   -1    0    0    0    0  0.00000000000E+00  0.00000000000E+00  0.74505805969E-08  0.10566000000E+00  0.10566000000E+00 0. -1.
     999900   -1    0    0    0    0 -0.00000000000E+00 -0.00000000000E+00 -0.74505805969E-08  0.93827000000E+00  0.93827000000E+00 0.  1.
     999902    2    1    2    0    0 -0.75485473106E-02 -0.10101964313E-01 -0.61234298460E-02  0.10299112040E+01  0.10298157900E+01 0.  0.
     999903    2    3    3    0    0 -0.11526153318E+00 -0.13294050904E-01 -0.67154590265E-01  0.14123967899E+00  0.44462963325E-01 0.  0.
         14    1    1    2    0    0  0.75485473106E-02  0.10101964313E-01  0.61234298460E-02  0.14018796045E-01  0.00000000000E+00 0. -1.
     999901    1    3    3    0    0  0.10771298587E+00  0.31920865917E-02  0.61031160419E-01  0.88867152496E+00  0.88000000000E+00 0.  1.
        -11    1    4    4    0    0 -0.39022726484E-01  0.15674908162E-01 -0.29735754020E-01  0.51506816212E-01  0.51100000000E-03 0.  1.
         11    1    4    4    0    0 -0.76238806694E-01 -0.28968959066E-01 -0.37418836245E-01  0.89732862778E-01  0.51100000000E-03 0. -1.
</event>
<event>
 8    1  0.2959109E+004  0.1043930E+01  0.7957747E-01            NaN
         13   -1    0    0    0    0  0.00000000000E+00  0.00000000000E+00  0.74505805969E-08  0.10566000000E+00  0.10566000000E+00 0.  1.
     999900   -1    0    0    0    0 -0.00000000000E+00 -0.00000000000E+00 -0.74505805969E-08  0.93827000000E+00  0.93827000000E+00 0.  1.
     999902    2    1    2    0    0  0.44244330153E-02 -0.13229841529E-01 -0.14588198002E-02  0.10299038648E+01  0.10298083502E+01 0.  0.
     999903    2    3    3    0    0 -0.12293990148E+00  0.99732187933E-02 -0.47266962699E-01  0.13925329262E+00  0.44086611051E-01 0.  0.
         14    1    1    2    0    0 -0.44244330153E-02  0.13229841529E-01  0.14588198002E-02  0.14026135234E-01  0.00000000000E+00 0.  1.
     999901    1    3    3    0    0  0.12736433449E+00 -0.23203060322E-01  0.45808142898E-01  0.89065057215E+00  0.88000000000E+00 0. -1.
        -11    1    4    4    0    0 -0.71345561378E-01 -0.16031908878E-01 -0.28812991817E-01  0.78598096981E-01  0.51100000000E-03 0.  1.
         11    1    4    4    0    0 -0.51594340101E-01  0.26005127671E-01 -0.18453970882E-01  0.60655195639E-01  0.51100000000E-03 0. -1.
</event>
<event>
 8    1  0.2959109E+004  0.1043930E+01  0.7957747E-01            NaN
         13   -1    0    0    0    0  0.00000000000E+00  0.00000000000E+00  0.74505805969E-08  0.10566000000E+00  0.10566000000E+00 0.  1.
     999900   -1    0    0    0    0 -0.00000000000E+00 -0.00000000000E+00 -0.74505805969E-08  0.93827000000E+00  0.93827000000E+00 0.  1.
     999902    2    1    2    0    0 -0.11351499393E-01  0.70776540668E-02  0.20838504149E-02  0.10303914566E+01  0.10303025098E+01 0.  0.
     999903    2    3    3    0    0  0.10136405994E+00  0.82625296753E-01  0.20076702198E-01  0.13980963195E+00  0.45189013104E-01 0.  0.
         14    1    1    2    0    0  0.11351499393E-01 -0.70776540668E-02 -0.20838504149E-02  0.13538543427E-01  0.00000000000E+00 0.  1.
     999901    1    3    3    0    0 -0.11271555933E+00 -0.75547642686E-01 -0.17992851783E-01  0.89058182462E+00  0.88000000000E+00 0.  1.
        -11    1    4    4    0    0  0.94751243719E-01  0.55760886672E-01  0.10142075876E-01  0.11040922739E+00  0.51100000000E-03 0. -1.
         11    1    4    4    0    0  0.66128162172E-02  0.26864410080E-01  0.99346263216E-02  0.29400404563E-01  0.51100000000E-03 0.  1.
</event>
<event>
 8    1  0.2959109E+004  0.1043930E+01  0.7957747E-01            NaN
         13   -1    0    0    0    0  0.00000000000E+00  0.00000000000E+00  0.74505805969E-08  0.10566000000E+00  0.10566000000E+00 0.  1.
     999900   -1    0    0    0    0 -0.00000000000E+00 -0.00000000000E+00 -0.74505805969E-08  0.93827000000E+00  0.93827000000E+00 0. -1.
     999902    2    1    2    0    0 -0.24298486256E-02  0.14514627413E-02  0.13356636991E-01  0.10302767711E+01  0.10301863008E+01 0.  0.
     999903    2    3    3    0    0 -0.60754722828E-01  0.19962164905E-01 -0.11418305294E+00  0.13897950890E+00  0.46775099607E-01 0.  0.
         14    1    1    2    0    0  0.24298486256E-02 -0.14514627413E-02 -0.13356636991E-01  0.13653228927E-01  0.00000000000E+00 0. -1.
     999901    1    3    3    0    0  0.58324874203E-01 -0.18510702164E-01  0.12753968993E+00  0.89129726217E+00  0.88000000000E+00 0.  1.
        -11    1    4    4    0    0 -0.87771743261E-02  0.22935164475E-01 -0.54493277480E-01  0.59773229544E-01  0.51100000000E-03 0.  1.
         11    1    4    4    0    0 -0.51977548502E-01 -0.29729995700E-02 -0.59689775457E-01  0.79206279359E-01  0.51100000000E-03 0. -1.
</event>
<event>
 8    1  0.2959109E+004  0.1043930E+01  0.7957747E-01            NaN
         13   -1    0    0    0    0  0.00000000000E+00  0.00000000000E+00  0.74505805969E-08  0.10566000000E+00  0.10566000000E+00 0.  1.
     999900   -1    0    0    0    0 -0.00000000000E+00 -0.00000000000E+00 -0.74505805969E-08  0.93827000000E+00  0.93827000000E+00 0. -1.
     999902    2    1    2    0    0  0.13320755300E-01 -0.23504036879E-03  0.13178793105E-02  0.10305421484E+01  0.10304551834E+01 0.  0.
     999903    2    3    3    0    0 -0.69648621107E-01  0.10807716763E+00 -0.37361355458E-01  0.13918838300E+00  0.38025392753E-01 0.  0.
         14    1    1    2    0    0 -0.13320755300E-01  0.23504036879E-03 -0.13178793105E-02  0.13387851643E-01  0.00000000000E+00 0.  1.
     999901    1    3    3    0    0  0.82969376407E-01 -0.10831220800E+00  0.38679234768E-01  0.89135376536E+00  0.88000000000E+00 0. -1.
        -11    1    4    4    0    0 -0.82655885300E-02  0.45156695871E-01 -0.86765364686E-02  0.46722484328E-01  0.51100000000E-03 0.  1.
         11    1    4    4    0    0 -0.61383032577E-01  0.62920471760E-01 -0.28684818989E-01  0.92465898667E-01  0.51100000000E-03 0. -1.
</event>
<event>
 8    1  0.2959109E+004  0.1043930E+01  0.7957747E-01            NaN
         13   -1    0    0    0    0  0.00000000000E+00  0.00000000000E+00  0.74505805969E-08  0.10566000000E+00  0.10566000000E+00 0. -1.
     999900   -1    0    0    0    0 -0.00000000000E+00 -0.00000000000E+00 -0.74505805969E-08  0.93827000000E+00  0.93827000000E+00 0.  1.
     999902    2    1    2    0    0  0.78836225356E-03 -0.18079677079E-02  0.12907618945E-01  0.10308725543E+01  0.10307898555E+01 0.  0.
     999903    2    3    3    0    0 -0.94183629231E-01  0.31061772867E-01  0.90193947972E-01  0.14178691403E+00  0.46186480617E-01 0.  0.
         14    1    1    2    0    0 -0.78836225356E-03  0.18079677079E-02 -0.12907618945E-01  0.13057445734E-01  0.00000000000E+00 0.  1.
     999901    1    3    3    0    0  0.94971991485E-01 -0.32869740575E-01 -0.77286329027E-01  0.88908564023E+00  0.88000000000E+00 0.  1.
        -11    1    4    4    0    0 -0.69256288786E-01  0.90978719998E-02  0.81700090178E-01  0.10749125856E+00  0.51100000000E-03 0.  1.
         11    1    4    4    0    0 -0.24927340445E-01  0.21963900867E-01  0.84938577931E-02  0.34295655471E-01  0.51100000000E-03 0. -1.
</event>
<event>
 8    1  0.2959109E+004  0.1043930E+01  0.7957747E-01            NaN
         13   -1    0    0    0    0  0.00000000000E+00  0.00000000000E+00  0.74505805969E-08  0.10566000000E+00  0.10566000000E+00 0. -1.
     999900   -1    0    0    0    0 -0.00000000000E+00 -0.00000000000E+00 -0.74505805969E-08  0.93827000000E+00  0.93827000000E+00 0. -1.
     999902    2    1    2    0    0 -0.93635920999E-02 -0.41136972144E-02 -0.10195460341E-01  0.10294888514E+01  0.10293875598E+01 0.  0.
     999903    2    3    3    0    0 -0.88779730370E-01  0.23130279692E-01  0.94549409641E-01  0.13930873192E+00  0.45282243357E-01 0.  0.
         14    1    1    2    0    0  0.93635920999E-02  0.41136972144E-02  0.10195460341E-01  0.14441148616E-01  0.00000000000E+00 0. -1.
     999901    1    3    3    0    0  0.79416138270E-01 -0.27243976907E-01 -0.10474486998E+00  0.89018011946E+00  0.88000000000E+00 0. -1.
        -11    1    4    4    0    0 -0.93287206154E-01  0.25850388453E-01  0.87445982683E-01  0.13045231475E+00  0.51100000000E-03 0. -1.
         11    1    4    4    0    0  0.45074757837E-02 -0.27201087605E-02  0.71034269575E-02  0.88564171734E-02  0.51100000000E-03 0.  1.
</event>
<event>
 8    1  0.2959109E+004  0.1043930E+01  0.7957747E-01            NaN
         13   -1    0    0    0    0  0.00000000000E+00  0.00000000000E+00  0.74505805969E-08  0.10566000000E+00  0.10566000000E+00 0.  1.
     999900   -1    0    0    0    0 -0.00000000000E+00 -0.00000000000E+00 -0.74505805969E-08  0.93827000000E+00  0.93827000000E+00 0.  1.
     999902    2    1    2    0    0 -0.13274322174E-01 -0.32507282283E-02  0.38160125039E-03  0.10302581134E+01  0.10301673941E+01 0.  0.
     999903    2    3    3    0    0  0.92976593762E-01  0.83936901919E-01 -0.39475124673E-01  0.13869796481E+00  0.44595846023E-01 0.  0.
         14    1    1    2    0    0  0.13274322174E-01  0.32507282283E-02 -0.38160125039E-03  0.13671886582E-01  0.00000000000E+00 0. -1.
     999901    1    3    3    0    0 -0.10625091594E+00 -0.87187630148E-01  0.39856725924E-01  0.89156014861E+00  0.88000000000E+00 0. -1.
        -11    1    4    4    0    0  0.11356279277E-01  0.27325315094E-01 -0.24132202132E-01  0.38187199750E-01  0.51100000000E-03 0.  1.
         11    1    4    4    0    0  0.81620314485E-01  0.56611586826E-01 -0.15342922541E-01  0.10051076506E+00  0.51100000000E-03 0. -1.
</event>
<event>
 8    1  0.2959109E+004  0.1043930E+01  0.7957747E-01            NaN
         13   -1    0    0    0    0  0.00000000000E+00  0.00000000000E+00  0.74505805969E-08  0.10566000000E+00  0.10566000000E+00 0.  1.
     999900   -1    0    0    0    0 -0.00000000000E+00 -0.00000000000E+00 -0.74505805969E-08  0.93827000000E+00  0.93827000000E+00 0.  1.
     999902    2    1    2    0    0 -0.28515383957E-02 -0.25235196174E-02 -0.16988148148E-01  0.10265203303E+01  0.10263726866E+01 0.  0.
     999903    2    3    3    0    0 -0.11173614157E+00  0.63834086956E-01 -0.15706039423E-01  0.13732921889E+00  0.45308704414E-01 0.  0.
         14    1    1    2    0    0  0.28515383957E-02  0.25235196174E-02  0.16988148148E-01  0.17409669726E-01  0.00000000000E+00 0.  1.
     999901    1    3    3    0    0  0.10888460318E+00 -0.66357606573E-01 -0.12821087245E-02  0.88919111138E+00  0.88000000000E+00 0.  1.
        -11    1    4    4    0    0 -0.50940460102E-01  0.51744605168E-01  0.27081659972E-02  0.72663814402E-01  0.51100000000E-03 0.  1.
         11    1    4    4    0    0 -0.60795681471E-01  0.12089481788E-01 -0.18414205421E-01  0.64665404489E-01  0.51100000000E-03 0. -1.
</event>
<event>
 8    1  0.2959109E+004  0.1043930E+01  0.7957747E-01            NaN
         13   -1    0    0    0    0  0.00000000000E+00  0.00000000000E+00  0.74505805969E-08  0.10566000000E+00  0.10566000000E+00 0. -1.
     999900   -1    0    0    0    0 -0.00000000000E+00 -0.00000000000E+00 -0.74505805969E-08  0.93827000000E+00  0.93827000000E+00 0.  1.
     999902    2    1    2    0    0  0.10516517217E-01 -0.36479865028E-02 -0.74825710656E-02  0.10305175502E+01  0.10304302633E+01 0.  0.
     999903    2    3    3    0    0  0.11616410584E+00 -0.57987066013E-01 -0.36085054519E-01  0.14207382626E+00  0.45013793873E-01 0.  0.
         14    1    1    2    0    0 -0.10516517217E-01  0.36479865028E-02  0.74825710656E-02  0.13412449800E-01  0.00000000000E+00 0. -1.
     999901    1    3    3    0    0 -0.10564758862E+00  0.54339079510E-01  0.28602483454E-01  0.88844372394E+00  0.88000000000E+00 0. -1.
        -11    1    4    4    0    0  0.76592964744E-01 -0.13770099765E-01 -0.24724967618E-01  0.81655881849E-01  0.51100000000E-03 0.  1.
         11    1    4    4    0    0  0.39571141096E-01 -0.44216966247E-01 -0.11360086901E-01  0.60417944413E-01  0.51100000000E-03 0. -1.
</event>
<event>
 8    1  0.2959109E+004  0.1043930E+01  0.7957747E-01            NaN
         13   -1    0    0    0    0  0.00000000000E+00  0.00000000000E+00  0.74505805969E-08  0.10566000000E+00  0.10566000000E+00 0.  1.
     999900   -1    0    0    0    0 -0.00000000000E+00 -0.00000000000E+00 -0.74505805969E-08  0.93827000000E+00  0.93827000000E+00 0.  1.
     999902    2    1    2    0    0 -0.99142143912E-02 -0.44877021796E-02  0.85191735587E-02  0.10301094560E+01  0.10300167396E+01 0.  0.
     999903    2    3    3    0    0 -0.79050540737E-01  0.99433849478E-01 -0.38283795123E-01  0.14007010947E+00  0.44921132956E-01 0.  0.
         14    1    1    2    0    0  0.99142143912E-02  0.44877021796E-02 -0.85191735587E-02  0.13820543982E-01  0.00000000000E+00 0. -1.
     999901    1    3    3    0    0  0.69136326346E-01 -0.10392155166E+00  0.46802968682E-01  0.89003934654E+00  0.88000000000E+00 0. -1.
        -11    1    4    4    0    0 -0.43854591513E-01  0.37086783230E-01 -0.37264142485E-01  0.68465554283E-01  0.51100000000E-03 0. -1.
         11    1    4    4    0    0 -0.35195949224E-01  0.62347066248E-01 -0.10196526381E-02  0.71604555190E-01  0.51100000000E-03 0.  1.
</event>
<event>
 8    1  0.2959109E+004  0.1043930E+01  0.7957747E-01            NaN
         13   -1    0    0    0    0  0.00000000000E+00  0.00000000000E+00  0.74505805969E-08  0.10566000000E+00  0.10566000000E+00 0. -1.
     999900   -1    0    0    0    0 -0.00000000000E+00 -0.00000000000E+00 -0.74505805969E-08  0.93827000000E+00  0.93827000000E+00 0. -1.
     999902    2    1    2    0    0  0.47130260593E-02 -0.91786378551E-02  0.10436136529E-01  0.10292544096E+01  0.10291497786E+01 0.  0.
     999903    2    3    3    0    0 -0.30306187541E-01  0.12485024914E+00 -0.22117820563E-01  0.13782306173E+00  0.44720785378E-01 0.  0.
         14    1    1    2    0    0 -0.47130260593E-02  0.91786378551E-02 -0.10436136529E-01  0.14675590385E-01  0.00000000000E+00 0. -1.
     999901    1    3    3    0    0  0.35019213600E-01 -0.13402888699E+00  0.32553957092E-01  0.89143134789E+00  0.88000000000E+00 0.  1.
        -11    1    4    4    0    0 -0.35347324392E-01  0.67611844420E-01 -0.12517171323E-03  0.76295947707E-01  0.51100000000E-03 0. -1.
         11    1    4    4    0    0  0.50411368515E-02  0.57238404719E-01 -0.21992648850E-01  0.61527114022E-01  0.51100000000E-03 0.  1.
</event>
<event>
 7    1  0.2959109E+004  0.1043930E+01  0.7957747E-01            NaN
         13   -1    0    0    0    0  0.00000000000E+00  0.00000000000E+00  0.74505805969E-08  0.10566000000E+00  0.10566000000E+00 0.  1.
     999900   -1    0    0    0    0 -0.00000000000E+00 -0.00000000000E+00 -0.74505805969E-08  0.93827000000E+00  0.93827000000E+00 0. -1.
     999902    2    1    2    0    0  0.13029442941E-02  0.11004487928E-01 -0.10170096057E-01  0.10288891466E+01  0.10287792031E+01 0.  0.
         14    1    1    2    0    0 -0.13029442941E-02 -0.11004487928E-01  0.10170096057E-01  0.15040853439E-01  0.00000000000E+00 0.  1.
     999901    1    3    3    0    0  0.12474544141E+00 -0.12658181704E-01 -0.62497838216E-01  0.89108228268E+00  0.88000000000E+00 0. -1.
        -11    1    3    3    0    0 -0.40635366578E-01 -0.12064064038E-02  0.21662622618E-01  0.46067545767E-01  0.51100000000E-03 0. -1.
         11    1    3    3    0    0 -0.82807130540E-01  0.24869076036E-01  0.30665119541E-01  0.91739318117E-01  0.51100000000E-03 0.  1.
</event>
<event>
 8    1  0.2959109E+004  0.1043930E+01  0.7957747E-01            NaN
         13   -1    0    0    0    0  0.00000000000E+00  0.00000000000E+00  0.74505805969E-08  0.10566000000E+00  0.10566000000E+00 0.  1.
     999900   -1    0    0    0    0 -0.00000000000E+00 -0.00000000000E+00 -0.74505805969E-08  0.93827000000E+00  0.93827000000E+00 0.  1.
     999902    2    1    2    0    0 -0.26628830935E-03 -0.44685711843E-02 -0.12168466233E-01  0.10309642525E+01  0.10308827185E+01 0.  0.
     999903    2    3    3    0    0 -0.45792409682E-01 -0.12303598912E+00 -0.27751824807E-01  0.14170967624E+00  0.45570485596E-01 0.  0.
         14    1    1    2    0    0  0.26628830935E-03  0.44685711843E-02  0.12168466233E-01  0.12965747505E-01  0.00000000000E+00 0.  1.
     999901    1    3    3    0    0  0.45526121372E-01  0.11856741793E+00  0.15583358574E-01  0.88925457625E+00  0.88000000000E+00 0.  1.
        -11    1    4    4    0    0 -0.51738712691E-01 -0.96738254230E-01 -0.11702407174E-01  0.11032856238E+00  0.51100000000E-03 0. -1.
         11    1    4    4    0    0  0.59463030097E-02 -0.26297734889E-01 -0.16049417633E-01  0.31381113861E-01  0.51100000000E-03 0.  1.
</event>
<event>
 8    1  0.2959109E+004  0.1043930E+01  0.7957747E-01            NaN
         13   -1    0    0    0    0  0.00000000000E+00  0.00000000000E+00  0.74505805969E-08  0.10566000000E+00  0.10566000000E+00 0.  1.
     999900   -1    0    0    0    0 -0.00000000000E+00 -0.00000000000E+00 -0.74505805969E-08  0.93827000000E+00  0.93827000000E+00 0.  1.
     999902    2    1    2    0    0 -0.53986895708E-02 -0.12322381927E-01  0.52043238788E-02  0.10295053013E+01  0.10294042420E+01 0.  0.
     999903    2    3    3    0    0  0.75741758857E-01 -0.52968548887E-01 -0.94698544459E-01  0.13921519894E+00  0.43250157089E-01 0.  0.
         14    1    1    2    0    0  0.53986895708E-02  0.12322381927E-01 -0.52043238788E-02  0.14424698696E-01  0.00000000000E+00 0.  1.
     999901    1    3    3    0    0 -0.81140448427E-01  0.40646166960E-01  0.99902868338E-01  0.89029010236E+00  0.88000000000E+00 0. -1.
        -11    1    4    4    0    0  0.47371786321E-01 -0.79183649100E-02 -0.36418965862E-01  0.60277598140E-01  0.51100000000E-03 0. -1.
         11    1    4    4    0    0  0.28369972535E-01 -0.45050183977E-01 -0.58279578598E-01  0.78937600803E-01  0.51100000000E-03 0.  1.
</event>
<event>
 8    1  0.2959109E+004  0.1043930E+01  0.7957747E-01            NaN
         13   -1    0    0    0    0  0.00000000000E+00  0.00000000000E+00  0.74505805969E-08  0.10566000000E+00  0.10566000000E+00 0. -1.
     999900   -1    0    0    0    0 -0.00000000000E+00 -0.00000000000E+00 -0.74505805969E-08  0.93827000000E+00  0.93827000000E+00 0.  1.
     999902    2    1    2    0    0 -0.50514887315E-02  0.46229629076E-03 -0.12974315774E-01  0.10299993099E+01  0.10299050997E+01 0.  0.
     999903    2    3    3    0    0  0.81520995344E-01 -0.78456227857E-01 -0.70251576698E-01  0.14039062456E+00  0.44420615306E-01 0.  0.
         14    1    1    2    0    0  0.50514887315E-02 -0.46229629076E-03  0.12974315774E-01  0.13930690079E-01  0.00000000000E+00 0. -1.
     999901    1    3    3    0    0 -0.86572484076E-01  0.78918524147E-01  0.57277260924E-01  0.88960868536E+00  0.88000000000E+00 0.  1.
        -11    1    4    4    0    0  0.59993177834E-02 -0.25814459735E-01 -0.29661707755E-01  0.39780097702E-01  0.51100000000E-03 0.  1.
         11    1    4    4    0    0  0.75521677561E-01 -0.52641768122E-01 -0.40589868943E-01  0.10061052686E+00  0.51100000000E-03 0. -1.
</event>
<event>
 8    1  0.2959109E+004  0.1043930E+01  0.7957747E-01            NaN
         13   -1    0    0    0    0  0.00000000000E+00  0.00000000000E+00  0.74505805969E-08  0.10566000000E+00  0.10566000000E+00 0. -1.
     999900   -1    0    0    0    0 -0.00000000000E+00 -0.00000000000E+00 -0.74505805969E-08  0.93827000000E+00  0.93827000000E+00 0. -1.
     999902    2    1    2    0    0 -0.94197270813E-03  0.41833315022E-02 -0.13391423994E-01  0.10298687834E+01  0.10297727872E+01 0.  0.
     999903    2    3    3    0    0  0.81433962900E-01  0.10376769624E+00 -0.16268914646E-01  0.14042450725E+00  0.45333647067E-01 0.  0.
         14    1    1    2    0    0  0.94197270813E-03 -0.41833315022E-02  0.13391423994E-01  0.14061216577E-01  0.00000000000E+00 0. -1.
     999901    1    3    3    0    0 -0.82375935609E-01 -0.99584364734E-01  0.28774906519E-02  0.88944427617E+00  0.88000000000E+00 0.  1.
        -11    1    4    4    0    0  0.52222489650E-01  0.68865556325E-01  0.11370672203E-01  0.87173428179E-01  0.51100000000E-03 0. -1.
         11    1    4    4    0    0  0.29211473251E-01  0.34902139912E-01 -0.27639586849E-01  0.53251079070E-01  0.51100000000E-03 0.  1.
</event>
<event>
 8    1  0.2959109E+004  0.1043930E+01  0.7957747E-01            NaN
         13   -1    0    0    0    0  0.00000000000E+00  0.00000000000E+00  0.74505805969E-08  0.10566000000E+00  0.10566000000E+00 0.  1.
     999900   -1    0    0    0    0 -0.00000000000E+00 -0.00000000000E+00 -0.74505805969E-08  0.93827000000E+00  0.93827000000E+00 0. -1.
     999902    2    1    2    0    0  0.12665063792E-02 -0.97536170044E-02  0.94159811622E-02  0.10303139145E+01  0.10302239391E+01 0.  0.
     999903    2    3    3    0    0 -0.11211532411E+00  0.60783927879E-01 -0.39748163213E-01  0.13888354828E+00  0.38002522485E-01 0.  0.
         14    1    1    2    0    0 -0.12665063792E-02  0.97536170044E-02 -0.94159811622E-02  0.13616085499E-01  0.00000000000E+00 0. -1.
     999901    1    3    3    0    0  0.11338183049E+00 -0.70537544884E-01  0.49164144376E-01  0.89143036622E+00  0.88000000000E+00 0.  1.
        -11    1    4    4    0    0 -0.70632938346E-01  0.23550455353E-01 -0.36817236464E-01  0.83062662783E-01  0.51100000000E-03 0. -1.
         11    1    4    4    0    0 -0.41482385767E-01  0.37233472527E-01 -0.29309267490E-02  0.55820885499E-01  0.51100000000E-03 0.  1.
</event>
<event>
 8    1  0.2959109E+004  0.1043930E+01  0.7957747E-01            NaN
         13   -1    0    0    0    0  0.00000000000E+00  0.00000000000E+00  0.74505805969E-08  0.10566000000E+00  0.10566000000E+00 0. -1.
     999900   -1    0    0    0    0 -0.00000000000E+00 -0.00000000000E+00 -0.74505805969E-08  0.93827000000E+00  0.93827000000E+00 0.  1.
     999902    2    1    2    0    0  0.10021318374E-01 -0.34474861733E-02  0.82976202146E-02  0.10304703386E+01  0.10303824321E+01 0.  0.
     999903    2    3    3    0    0  0.26166327929E-01  0.13042172167E+00 -0.58493187434E-02  0.14008740864E+00  0.43540387321E-01 0.  0.
         14    1    1    2    0    0 -0.10021318374E-01  0.34474861733E-02 -0.82976202146E-02  0.13459661366E-01  0.00000000000E+00 0. -1.
     999901    1    3    3    0    0 -0.16145009555E-01 -0.13386920785E+00  0.14146938958E-01  0.89038292999E+00  0.88000000000E+00 0.  1.
        -11    1    4    4    0    0  0.14089415347E-02  0.10290575312E+00 -0.55969415631E-02  0.10306874414E+00  0.51100000000E-03 0. -1.
         11    1    4    4    0    0  0.24757386395E-01  0.27515968551E-01 -0.25237718029E-03  0.37018664504E-01  0.51100000000E-03 0.  1.
</event>
<event>
 8    1  0.2959109E+004  0.1043930E+01  0.7957747E-01            NaN
         13   -1    0    0    0    0  0.00000000000E+00  0.00000000000E+00  0.74505805969E-08  0.10566000000E+00  0.10566000000E+00 0. -1.
     999900   -1    0    0    0    0 -0.00000000000E+00 -0.00000000000E+00 -0.74505805969E-08  0.93827000000E+00  0.93827000000E+00 0. -1.
     999902    2    1    2    0    0 -0.40579759308E-02  0.35745244198E-02  0.11605946195E-01  0.10311260014E+01  0.10310465015E+01 0.  0.
     999903    2    3    3    0    0  0.47373714277E-01 -0.12203480097E+00 -0.19227189452E-01  0.14018627074E+00  0.46322178679E-01 0.  0.
         14    1    1    2    0    0  0.40579759308E-02 -0.35745244198E-02 -0.11605946195E-01  0.12803998616E-01  0.00000000000E+00 0. -1.
     999901    1    3    3    0    0 -0.51431690208E-01  0.12560932539E+00  0.30833135646E-01  0.89093973064E+00  0.88000000000E+00 0.  1.
        -11    1    4    4    0    0  0.95439084300E-02 -0.94684991954E-02 -0.16647511053E-01  0.21404191421E-01  0.51100000000E-03 0. -1.
         11    1    4    4    0    0  0.37829805847E-01 -0.11256630178E+00 -0.25796783988E-02  0.11878207932E+00  0.51100000000E-03 0.  1.
</event>
<event>
 8    1  0.2959109E+004  0.1043930E+01  0.7957747E-01            NaN
         13   -1    0    0    0    0  0.00000000000E+00  0.00000000000E+00  0.74505805969E-08  0.10566000000E+00  0.10566000000E+00 0. -1.
     999900   -1    0    0    0    0 -0.00000000000E+00 -0.00000000000E+00 -0.74505805969E-08  0.93827000000E+00  0.93827000000E+00 0. -1.
     999902    2    1    2    0    0  0.38124939513E-02 -0.90278216056E-02 -0.86340682044E-02  0.10308692264E+01  0.10307864852E+01 0.  0.
     999903    2    3    3    0    0 -0.80645083626E-01  0.95450125289E-01 -0.41784367101E-01  0.14005630210E+00  0.47491878179E-01 0.  0.
         14    1    1    2    0    0 -0.38124939513E-02  0.90278216056E-02  0.86340682044E-02  0.13060773592E-01  0.00000000000E+00 0. -1.
     999901    1    3    3    0    0  0.84457577577E-01 -0.10447794689E+00  0.33150298896E-01  0.89081292431E+00  0.88000000000E+00 0.  1.
        -11    1    4    4    0    0 -0.54012699835E-01  0.49346751964E-01 -0.46361169177E-01  0.86614622330E-01  0.51100000000E-03 0.  1.
         11    1    4    4    0    0 -0.26632383791E-01  0.46103373326E-01  0.45768020759E-02  0.53441679770E-01  0.51100000000E-03 0. -1.
</event>
<event>
 8    1  0.2959109E+004  0.1043930E+01  0.7957747E-01            NaN
         13   -1    0    0    0    0  0.00000000000E+00  0.00000000000E+00  0.74505805969E-08  0.10566000000E+00  0.10566000000E+00 0.  1.
     999900   -1    0    0    0    0 -0.00000000000E+00 -0.00000000000E+00 -0.74505805969E-08  0.93827000000E+00  0.93827000000E+00 0.  1.
     999902    2    1    2    0    0 -0.81087415609E-02  0.64904340091E-02  0.79597048315E-02  0.10308443466E+01  0.10307612879E+01 0.  0.
     999903    2    3    3    0    0 -0.12377103786E+00  0.47260860495E-01 -0.20911117346E-01  0.14187105184E+00  0.46230528589E-01 0.  0.
         14    1    1    2    0    0  0.81087415609E-02 -0.64904340091E-02 -0.79597048315E-02  0.13085653378E-01  0.00000000000E+00 0. -1.
     999901    1    3    3    0    0  0.11566229630E+00 -0.40770426485E-01  0.28870822177E-01  0.88897329478E+00  0.88000000000E+00 0. -1.
        -11    1    4    4    0    0 -0.34288253495E-01  0.29651975715E-01 -0.22599813346E-01  0.50655075518E-01  0.51100000000E-03 0.  1.
         11    1    4    4    0    0 -0.89482784367E-01  0.17608884780E-01  0.16886959999E-02  0.91215976322E-01  0.51100000000E-03 0. -1.
</event>
<event>
 8    1  0.2959109E+004  0.1043930E+01  0.7957747E-01            NaN
         13   -1    0    0    0    0  0.00000000000E+00  0.00000000000E+00  0.74505805969E-08  0.10566000000E+00  0.10566000000E+00 0.  1.
     999900   -1    0    0    0    0 -0.00000000000E+00 -0.00000000000E+00 -0.74505805969E-08  0.93827000000E+00  0.93827000000E+00 0. -1.
     999902    2    1    2    0    0 -0.87082260389E-02  0.66473313440E-02  0.10416917879E-01  0.10288127121E+01  0.10287016400E+01 0.  0.
     999903    2    3    3    0    0 -0.12860964899E+00 -0.24151825894E-01  0.23011405991E-01  0.14005877517E+00  0.44307823107E-01 0.  0.
         14    1    1    2    0    0  0.87082260389E-02 -0.66473313440E-02 -0.10416917879E-01  0.15117287880E-01  0.00000000000E+00 0. -1.
     999901    1    3    3    0    0  0.11990142295E+00  0.30799157238E-01 -0.12594488112E-01  0.88875393695E+00  0.88000000000E+00 0. -1.
        -11    1    4    4    0    0 -0.70105417007E-01 -0.12933644326E-02  0.31137691828E-01  0.76721960732E-01  0.51100000000E-03 0. -1.
         11    1    4    4    0    0 -0.58504231986E-01 -0.22858461461E-01 -0.81262858366E-02  0.63336814438E-01  0.51100000000E-03 0.  1.
</event>
<event>
 8    1  0.2959109E+004  0.1043930E+01  0.7957747E-01            NaN
         13   -1    0    0    0    0  0.00000000000E+00  0.00000000000E+00  0.74505805969E-08  0.10566000000E+00  0.10566000000E+00 0.  1.
     999900   -1    0    0    0    0 -0.00000000000E+00 -0.00000000000E+00 -0.74505805969E-08  0.93827000000E+00  0.93827000000E+00 0.  1.
     999902    2    1    2    0    0 -0.39575678725E-02 -0.77726529593E-02 -0.11310938446E-01  0.10296466598E+01  0.10295475853E+01 0.  0.
     999903    2    3    3    0    0  0.93297336239E-01 -0.91638458043E-01  0.20962177322E-01  0.13974017957E+00  0.44563493642E-01 0.  0.
         14    1    1    2    0    0  0.39575678725E-02  0.77726529593E-02  0.11310938446E-01  0.14283340156E-01  0.00000000000E+00 0.  1.
     999901    1    3    3    0    0 -0.97254904111E-01  0.83865805084E-01 -0.32273115769E-01  0.88990648028E+00  0.88000000000E+00 0. -1.
        -11    1    4    4    0    0  0.48592048264E-01 -0.17931629171E-01  0.46680385553E-02  0.52007520458E-01  0.51100000000E-03 0.  1.
         11    1    4    4    0    0  0.44705287975E-01 -0.73706828872E-01  0.16294138767E-01  0.87732659110E-01  0.51100000000E-03 0. -1.
</event>
<event>
 8    1  0.2959109E+004  0.1043930E+01  0.7957747E-01            NaN
         13   -1    0    0    0    0  0.00000000000E+00  0.00000000000E+00  0.74505805969E-08  0.10566000000E+00  0.10566000000E+00 0.  1.
     999900   -1    0    0    0    0 -0.00000000000E+00 -0.00000000000E+00 -0.74505805969E-08  0.93827000000E+00  0.93827000000E+00 0. -1.
     999902    2    1    2    0    0 -0.76415516263E-02 -0.10010974824E-01 -0.70154159521E-02  0.10295137249E+01  0.10294127844E+01 0.  0.
     999903    2    3    3    0    0 -0.94289125012E-02  0.12747287595E+00 -0.28826488391E-01  0.13856999668E+00  0.45082580369E-01 0.  0.
         14    1    1    2    0    0  0.76415516263E-02  0.10010974824E-01  0.70154159521E-02  0.14416275149E-01  0.00000000000E+00 0.  1.
     999901    1    3    3    0    0  0.17873608749E-02 -0.13748385078E+00  0.21811072439E-01  0.89094372817E+00  0.88000000000E+00 0. -1.
        -11    1    4    4    0    0  0.53330888439E-02  0.78604822863E-01  0.22214871962E-02  0.78818501256E-01  0.51100000000E-03 0. -1.
         11    1    4    4    0    0 -0.14762001345E-01  0.48868053090E-01 -0.31047975587E-01  0.59751495426E-01  0.51100000000E-03 0.  1.
</event>
<event>
 8    1  0.2959109E+004  0.1043930E+01  0.7957747E-01            NaN
         13   -1    0    0    0    0  0.00000000000E+00  0.00000000000E+00  0.74505805969E-08  0.10566000000E+00  0.10566000000E+00 0.  1.
     999900   -1    0    0    0    0 -0.00000000000E+00 -0.00000000000E+00 -0.74505805969E-08  0.93827000000E+00  0.93827000000E+00 0. -1.
     999902    2    1    2    0    0  0.27195273042E-04 -0.47728488458E-02 -0.83232073755E-02  0.10343353866E+01  0.10342908853E+01 0.  0.
     999903    2    3    3    0    0  0.92093087450E-01  0.87284414045E-01 -0.51413714321E-01  0.14371343539E+00  0.43708989919E-01 0.  0.
         14    1    1    2    0    0 -0.27195273042E-04  0.47728488458E-02  0.83232073755E-02  0.95946134212E-02  0.00000000000E+00 0.  1.
     999901    1    3    3    0    0 -0.92065892177E-01 -0.92057262891E-01  0.43090506946E-01  0.89062195119E+00  0.88000000000E+00 0. -1.
        -11    1    4    4    0    0  0.57296791962E-01  0.27443826222E-01 -0.35138603274E-01  0.72602124816E-01  0.51100000000E-03 0. -1.
         11    1    4    4    0    0  0.34796295488E-01  0.59840587823E-01 -0.16275111047E-01  0.71111310572E-01  0.51100000000E-03 0.  1.
</event>
<event>
 8    1  0.2959109E+004  0.1043930E+01  0.7957747E-01            NaN
         13   -1    0    0    0    0  0.00000000000E+00  0.00000000000E+00  0.74505805969E-08  0.10566000000E+00  0.10566000000E+00 0. -1.
     999900   -1    0    0    0    0 -0.00000000000E+00 -0.00000000000E+00 -0.74505805969E-08  0.93827000000E+00  0.93827000000E+00 0.  1.
     999902    2    1    2    0    0  0.41427885899E-02  0.13286339325E-01 -0.40139477203E-02  0.10294454812E+01  0.10293435760E+01 0.  0.
     999903    2    3    3    0    0 -0.58779574000E-01  0.30806080585E-01 -0.11456419292E+00  0.14012690957E+00  0.45897097584E-01 0.  0.
         14    1    1    2    0    0 -0.41427885899E-02 -0.13286339325E-01  0.40139477203E-02  0.14484518848E-01  0.00000000000E+00 0. -1.
     999901    1    3    3    0    0  0.62922362590E-01 -0.17519741260E-01  0.11055024520E+00  0.88931857158E+00  0.88000000000E+00 0. -1.
        -11    1    4    4    0    0 -0.20327300937E-01 -0.95355229674E-02 -0.18638006635E-01  0.29184958009E-01  0.51100000000E-03 0.  1.
         11    1    4    4    0    0 -0.38452273063E-01  0.40341603553E-01 -0.95926186281E-01  0.11094195156E+00  0.51100000000E-03 0. -1.
</event>
<event>
 7    1  0.2959109E+004  0.1043930E+01  0.7957747E-01            NaN
         13   -1    0    0    0    0  0.00000000000E+00  0.00000000000E+00  0.74505805969E-08  0.10566000000E+00  0.10566000000E+00 0. -1.
     999900   -1    0    0    0    0 -0.00000000000E+00 -0.00000000000E+00 -0.74505805969E-08  0.93827000000E+00  0.93827000000E+00 0.  1.
     999902    2    1    2    0    0 -0.85420248622E-02 -0.45573936281E-02 -0.93613575970E-02  0.10304625934E+01  0.10303745849E+01 0.  0.
         14    1    1    2    0    0  0.85420248622E-02  0.45573936281E-02  0.93613575970E-02  0.13467406636E-01  0.00000000000E+00 0. -1.
     999901    1    3    3    0    0 -0.29395662780E-01  0.56481903197E-01  0.98276313642E-01  0.88775702994E+00  0.88000000000E+00 0. -1.
        -11    1    3    3    0    0 -0.10216975478E-01  0.94496986374E-02 -0.31278351150E-01  0.34238571289E-01  0.51100000000E-03 0. -1.
         11    1    3    3    0    0  0.31070613395E-01 -0.70488995463E-01 -0.76359320089E-01  0.10846699214E+00  0.51100000000E-03 0.  1.
</event>
<event>
 8    1  0.2959109E+004  0.1043930E+01  0.7957747E-01            NaN
         13   -1    0    0    0    0  0.00000000000E+00  0.00000000000E+00  0.74505805969E-08  0.10566000000E+00  0.10566000000E+00 0.  1.
     999900   -1    0    0    0    0 -0.00000000000E+00 -0.00000000000E+00 -0.74505805969E-08  0.93827000000E+00  0.93827000000E+00 0.  1.
     999902    2    1    2    0    0  0.19312073658E-02  0.20169139871E-02 -0.13089084693E-01  0.10305463666E+01  0.10304594568E+01 0.  0.
     999903    2    3    3    0    0 -0.12747179019E+00 -0.13223709813E-01  0.32021418221E-01  0.13980938533E+00  0.45797043632E-01 0.  0.
         14    1    1    2    0    0 -0.19312073658E-02 -0.20169139871E-02  0.13089084693E-01  0.13383633364E-01  0.00000000000E+00 0.  1.
     999901    1    3    3    0    0  0.12940299756E+00  0.15240623800E-01 -0.45110502914E-01  0.89073698130E+00  0.88000000000E+00 0. -1.
        -11    1    4    4    0    0 -0.52359394022E-01  0.10919951061E-01 -0.28138193400E-02  0.53562395146E-01  0.51100000000E-03 0.  1.
         11    1    4    4    0    0 -0.75112396172E-01 -0.24143660874E-01  0.34835237561E-01  0.86246990185E-01  0.51100000000E-03 0. -1.
</event>
<event>
 8    1  0.2959109E+004  0.1043930E+01  0.7957747E-01            NaN
         13   -1    0    0    0    0  0.00000000000E+00  0.00000000000E+00  0.74505805969E-08  0.10566000000E+00  0.10566000000E+00 0.  1.
     999900   -1    0    0    0    0 -0.00000000000E+00 -0.00000000000E+00 -0.74505805969E-08  0.93827000000E+00  0.93827000000E+00 0. -1.
     999902    2    1    2    0    0  0.12311165188E-01  0.26070535317E-02  0.75744614074E-02  0.10292421144E+01  0.10291373068E+01 0.  0.
     999903    2    3    3    0    0 -0.56865857581E-01 -0.82433115520E-01 -0.84466387338E-01  0.13767674462E+00  0.42324592466E-01 0.  0.
         14    1    1    2    0    0 -0.12311165188E-01 -0.26070535317E-02 -0.75744614074E-02  0.14687885553E-01  0.00000000000E+00 0.  1.
     999901    1    3    3    0    0  0.69177022769E-01  0.85040169052E-01  0.92040848745E-01  0.89156536982E+00  0.88000000000E+00 0.  1.
        -11    1    4    4    0    0 -0.26693031639E-01 -0.15622618002E-01 -0.44457826262E-01  0.54160350519E-01  0.51100000000E-03 0.  1.
         11    1    4    4    0    0 -0.30172825942E-01 -0.66810497518E-01 -0.40008561076E-01  0.83516394105E-01  0.51100000000E-03 0. -1.
</event>
<event>
 8    1  0.2959109E+004  0.1043930E+01  0.7957747E-01            NaN
         13   -1    0    0    0    0  0.00000000000E+00  0.00000000000E+00  0.74505805969E-08  0.10566000000E+00  0.10566000000E+00 0.  1.
     999900   -1    0    0    0    0 -0.00000000000E+00 -0.00000000000E+00 -0.74505805969E-08  0.93827000000E+00  0.93827000000E+00 0.  1.
     999902    2    1    2    0    0 -0.11269450923E-01 -0.74621481968E-02  0.49432518806E-02  0.10295383386E+01  0.10294377449E+01 0.  0.
     999903    2    3    3    0    0  0.10948312971E+00 -0.71824335376E-01  0.11305331589E-01  0.13894070050E+00  0.45071242378E-01 0.  0.
         14    1    1    2    0    0  0.11269450923E-01  0.74621481968E-02 -0.49432518806E-02  0.14391661439E-01  0.00000000000E+00 0.  1.
     999901    1    3    3    0    0 -0.12075258063E+00  0.64362187180E-01 -0.63620797079E-02  0.89059763806E+00  0.88000000000E+00 0. -1.
        -11    1    4    4    0    0  0.10389801858E+00 -0.50595988148E-01  0.15462982935E-01  0.11659381306E+00  0.51100000000E-03 0. -1.
         11    1    4    4    0    0  0.55851111243E-02 -0.21228347228E-01 -0.41576513463E-02  0.22346887435E-01  0.51100000000E-03 0.  1.
</event>
<event>
 8    1  0.2959109E+004  0.1043930E+01  0.7957747E-01            NaN
         13   -1    0    0    0    0  0.00000000000E+00  0.00000000000E+00  0.74505805969E-08  0.10566000000E+00  0.10566000000E+00 0.  1.
     999900   -1    0    0    0    0 -0.00000000000E+00 -0.00000000000E+00 -0.74505805969E-08  0.93827000000E+00  0.93827000000E+00 0.  1.
     999902    2    1    2    0    0 -0.21325401224E-02  0.27943754423E-03 -0.13945605960E-01  0.10298195167E+01  0.10297228420E+01 0.  0.
     999903    2    3    3    0    0  0.99890601614E-01 -0.45841966083E-01 -0.75022017843E-01  0.14062536840E+00  0.45470572149E-01 0.  0.
         14    1    1    2    0    0  0.21325401224E-02 -0.27943754423E-03  0.13945605960E-01  0.14110483277E-01  0.00000000000E+00 0.  1.
     999901    1    3    3    0    0 -0.10202314174E+00  0.46121403627E-01  0.61076411883E-01  0.88919414832E+00  0.88000000000E+00 0. -1.
        -11    1    4    4    0    0  0.34469563779E-01  0.31677589079E-03 -0.61645727679E-02  0.35021625497E-01  0.51100000000E-03 0. -1.
         11    1    4    4    0    0  0.65421037835E-01 -0.46158741974E-01 -0.68857445075E-01  0.10560374290E+00  0.51100000000E-03 0.  1.
</event>
<event>
 8    1  0.2959109E+004  0.1043930E+01  0.7957747E-01            NaN
         13   -1    0    0    0    0  0.00000000000E+00  0.00000000000E+00  0.74505805969E-08  0.10566000000E+00  0.10566000000E+00 0.  1.
     999900   -1    0    0    0    0 -0.00000000000E+00 -0.00000000000E+00 -0.74505805969E-08  0.93827000000E+00  0.93827000000E+00 0.  1.
     999902    2    1    2    0    0 -0.37161398952E-02 -0.12676072324E-01  0.43108791506E-02  0.10300348143E+01  0.10299410869E+01 0.  0.
     999903    2    3    3    0    0  0.11050568566E+00  0.57134962224E-01 -0.42013464739E-01  0.13870650737E+00  0.44704065761E-01 0.  0.
         14    1    1    2    0    0  0.37161398952E-02  0.12676072324E-01 -0.43108791506E-02  0.13895185654E-01  0.00000000000E+00 0. -1.
     999901    1    3    3    0    0 -0.11422182556E+00 -0.69811034549E-01  0.46324343890E-01  0.89132830698E+00  0.88000000000E+00 0. -1.
        -11    1    4    4    0    0  0.74721665920E-01  0.33796443731E-01 -0.48820738108E-01  0.95442404398E-01  0.51100000000E-03 0.  1.
         11    1    4    4    0    0  0.35784019743E-01  0.23338518493E-01  0.68072733692E-02  0.43264102974E-01  0.51100000000E-03 0. -1.
</event>
<event>
 8    1  0.2959109E+004  0.1043930E+01  0.7957747E-01            NaN
         13   -1    0    0    0    0  0.00000000000E+00  0.00000000000E+00  0.74505805969E-08  0.10566000000E+00  0.10566000000E+00 0. -1.
     999900   -1    0    0    0    0 -0.00000000000E+00 -0.00000000000E+00 -0.74505805969E-08  0.93827000000E+00  0.93827000000E+00 0. -1.
     999902    2    1    2    0    0  0.10853887661E-01  0.58300357934E-02  0.66146228935E-02  0.10299461010E+01  0.10298511648E+01 0.  0.
     999903    2    3    3    0    0 -0.12041671531E+00 -0.49411510444E-01 -0.11803725925E-01  0.13830557076E+00  0.45248428326E-01 0.  0.
         14    1    1    2    0    0 -0.10853887661E-01 -0.58300357934E-02 -0.66146228935E-02  0.13983898982E-01  0.00000000000E+00 0.  1.
     999901    1    3    3    0    0  0.13127060297E+00  0.55241546238E-01  0.18418348818E-01  0.89164053026E+00  0.88000000000E+00 0.  1.
        -11    1    4    4    0    0 -0.58453612492E-01 -0.41621056017E-01  0.93531026005E-02  0.72366281973E-01  0.51100000000E-03 0.  1.
         11    1    4    4    0    0 -0.61963102817E-01 -0.77904544279E-02 -0.21156828525E-01  0.65939288782E-01  0.51100000000E-03 0. -1.
</event>
<event>
 8    1  0.2959109E+004  0.1043930E+01  0.7957747E-01            NaN
         13   -1    0    0    0    0  0.00000000000E+00  0.00000000000E+00  0.74505805969E-08  0.10566000000E+00  0.10566000000E+00 0. -1.
     999900   -1    0    0    0    0 -0.00000000000E+00 -0.00000000000E+00 -0.74505805969E-08  0.93827000000E+00  0.93827000000E+00 0.  1.
     999902    2    1    2    0    0 -0.57832959610E-02  0.11838311952E-01 -0.20131842001E-02  0.10306016448E+01  0.10305154561E+01 0.  0.
     999903    2    3    3    0    0  0.67005025605E-02  0.13405853100E+00 -0.10849082256E-01  0.14202317315E+00  0.45125299500E-01 0.  0.
         14    1    1    2    0    0  0.57832959610E-02 -0.11838311952E-01  0.20131842001E-02  0.13328355213E-01  0.00000000000E+00 0. -1.
     999901    1    3    3    0    0 -0.12483798521E-01 -0.12222021905E+00  0.88358980561E-02  0.88857847164E+00  0.88000000000E+00 0. -1.
        -11    1    4    4    0    0 -0.11698423064E-01  0.33344470424E-01 -0.17478311587E-01  0.39426631951E-01  0.51100000000E-03 0.  1.
         11    1    4    4    0    0  0.18398925625E-01  0.10071406058E+00  0.66292293303E-02  0.10259654119E+00  0.51100000000E-03 0. -1.
</event>
<event>
 8    1  0.2959109E+004  0.1043930E+01  0.7957747E-01            NaN
         13   -1    0    0    0    0  0.00000000000E+00  0.00000000000E+00  0.74505805969E-08  0.10566000000E+00  0.10566000000E+00 0. -1.
     999900   -1    0    0    0    0 -0.00000000000E+00 -0.00000000000E+00 -0.74505805969E-08  0.93827000000E+00  0.93827000000E+00 0.  1.
     999902    2    1    2    0    0  0.10325414220E-01  0.11742165997E-01  0.36671287296E-02  0.10278694747E+01  0.10277439936E+01 0.  0.
     999903    2    3    3    0    0 -0.75935474503E-01  0.87922928533E-01 -0.59376628245E-01  0.13813976020E+00  0.45391317624E-01 0.  0.
         14    1    1    2    0    0 -0.10325414220E-01 -0.11742165997E-01 -0.36671287296E-02  0.16060525341E-01  0.00000000000E+00 0. -1.
     999901    1    3    3    0    0  0.86260888723E-01 -0.76180762536E-01  0.63043756974E-01  0.88972971446E+00  0.88000000000E+00 0. -1.
        -11    1    4    4    0    0 -0.71200297946E-01  0.51894644049E-01 -0.46185038084E-01  0.99477913993E-01  0.51100000000E-03 0. -1.
         11    1    4    4    0    0 -0.47351765568E-02  0.36028284484E-01 -0.13191590161E-01  0.38661846204E-01  0.51100000000E-03 0.  1.
</event>
<event>
 8    1  0.2959109E+004  0.1043930E+01  0.7957747E-01            NaN
         13   -1    0    0    0    0  0.00000000000E+00  0.00000000000E+00  0.74505805969E-08  0.10566000000E+00  0.10566000000E+00 0. -1.
     999900   -1    0    0    0    0 -0.00000000000E+00 -0.00000000000E+00 -0.74505805969E-08  0.93827000000E+00  0.93827000000E+00 0.  1.
     999902    2    1    2    0    0  0.93361947365E-02 -0.77902011496E-02 -0.10835180604E-01  0.10276434133E+01  0.10275143464E+01 0.  0.
     999903    2    3    3    0    0 -0.97906934509E-01  0.45101903649E-01  0.70154306027E-01  0.13587104303E+00  0.43810548289E-01 0.  0.
         14    1    1    2    0    0 -0.93361947365E-02  0.77902011496E-02  0.10835180604E-01  0.16286586654E-01  0.00000000000E+00 0.  1.
     999901    1    3    3    0    0  0.10724312925E+00 -0.52892104799E-01 -0.80989486631E-01  0.89177237032E+00  0.88000000000E+00 0.  1.
        -11    1    4    4    0    0 -0.84264092433E-01  0.20705529998E-01  0.42782818637E-01  0.96745991842E-01  0.51100000000E-03 0. -1.
         11    1    4    4    0    0 -0.13642842076E-01  0.24396373652E-01  0.27371487390E-01  0.39125051185E-01  0.51100000000E-03 0.  1.
</event>
<event>
 8    1  0.2959109E+004  0.1043930E+01  0.7957747E-01            NaN
         13   -1    0    0    0    0  0.00000000000E+00  0.00000000000E+00  0.74505805969E-08  0.10566000000E+00  0.10566000000E+00 0. -1.
     999900   -1    0    0    0    0 -0.00000000000E+00 -0.00000000000E+00 -0.74505805969E-08  0.93827000000E+00  0.93827000000E+00 0.  1.
     999902    2    1    2    0    0 -0.85032696366E-02  0.48395088126E-02  0.10089336431E-01  0.10298757782E+01  0.10297798781E+01 0.  0.
     999903    2    3    3    0    0 -0.83534681300E-01 -0.52905396295E-01 -0.87862270107E-01  0.13939349091E+00  0.43974343227E-01 0.  0.
         14    1    1    2    0    0  0.85032696366E-02 -0.48395088126E-02 -0.10089336431E-01  0.14054221774E-01  0.00000000000E+00 0.  1.
     999901    1    3    3    0    0  0.75031411664E-01  0.57744905107E-01  0.97951606538E-01  0.89048228732E+00  0.88000000000E+00 0. -1.
        -11    1    4    4    0    0 -0.34074190991E-01 -0.11134101044E-01 -0.57793838874E-01  0.68010349437E-01  0.51100000000E-03 0.  1.
         11    1    4    4    0    0 -0.49460490309E-01 -0.41771295250E-01 -0.30068431233E-01  0.71383141471E-01  0.51100000000E-03 0. -1.
</event>
<event>
 8    1  0.2959109E+004  0.1043930E+01  0.7957747E-01            NaN
         13   -1    0    0    0    0  0.00000000000E+00  0.00000000000E+00  0.74505805969E-08  0.10566000000E+00  0.10566000000E+00 0.  1.
     999900   -1    0    0    0    0 -0.00000000000E+00 -0.00000000000E+00 -0.74505805969E-08  0.93827000000E+00  0.93827000000E+00 0. -1.
     999902    2    1    2    0    0 -0.36445680894E-02 -0.40965488216E-02 -0.13276788780E-01  0.10295655401E+01  0.10294653290E+01 0.  0.
     999903    2    3    3    0    0 -0.42017457723E-03 -0.29674939730E-01  0.12778928362E+00  0.13795784182E+00  0.42678876689E-01 0.  0.
         14    1    1    2    0    0  0.36445680894E-02  0.40965488216E-02  0.13276788780E-01  0.14364459932E-01  0.00000000000E+00 0.  1.
     999901    1    3    3    0    0 -0.32243935122E-02  0.25578390908E-01 -0.14106607240E+00  0.89160769825E+00  0.88000000000E+00 0. -1.
        -11    1    4    4    0    0 -0.17783867367E-01 -0.21811685398E-01  0.10244541918E+00  0.10624189659E+00  0.51100000000E-03 0.  1.
         11    1    4    4    0    0  0.17363692790E-01 -0.78632543313E-02  0.25343864446E-01  0.31715945233E-01  0.51100000000E-03 0. -1.
</event>
<event>
 8    1  0.2959109E+004  0.1043930E+01  0.7957747E-01            NaN
         13   -1    0    0    0    0  0.00000000000E+00  0.00000000000E+00  0.74505805969E-08  0.10566000000E+00  0.10566000000E+00 0.  1.
     999900   -1    0    0    0    0 -0.00000000000E+00 -0.00000000000E+00 -0.74505805969E-08  0.93827000000E+00  0.93827000000E+00 0. -1.
     999902    2    1    2    0    0  0.13708459651E-01 -0.43589427472E-03  0.18333368891E-02  0.10300926233E+01  0.10299996794E+01 0.  0.
     999903    2    3    3    0    0 -0.11069038904E+00 -0.20093365900E-01  0.68022435560E-01  0.13866540444E+00  0.44101440668E-01 0.  0.
         14    1    1    2    0    0 -0.13708459651E-01  0.43589427472E-03 -0.18333368891E-02  0.13837376701E-01  0.00000000000E+00 0.  1.
     999901    1    3    3    0    0  0.12439884869E+00  0.19657471626E-01 -0.66189098671E-01  0.89142721886E+00  0.88000000000E+00 0. -1.
        -11    1    4    4    0    0 -0.82176131634E-01 -0.14660903979E-01  0.25698594116E-01  0.87341499738E-01  0.51100000000E-03 0. -1.
         11    1    4    4    0    0 -0.28514257405E-01 -0.54324619212E-02  0.42323841444E-01  0.51323904698E-01  0.51100000000E-03 0.  1.
</event>
<event>
 8    1  0.2959109E+004  0.1043930E+01  0.7957747E-01            NaN
         13   -1    0    0    0    0  0.00000000000E+00  0.00000000000E+00  0.74505805969E-08  0.10566000000E+00  0.10566000000E+00 0. -1.
     999900   -1    0    0    0    0 -0.00000000000E+00 -0.00000000000E+00 -0.74505805969E-08  0.93827000000E+00  0.93827000000E+00 0.  1.
     999902    2    1    2    0    0 -0.11923846732E-01  0.13735727052E-02 -0.81079089059E-02  0.10294454217E+01  0.10293435156E+01 0.  0.
     999903    2    3    3    0    0  0.73365741688E-01  0.17910473916E-01 -0.10848904511E+00  0.13948803195E+00  0.44538983127E-01 0.  0.
         14    1    1    2    0    0  0.11923846732E-01 -0.13735727052E-02  0.81079089059E-02  0.14484578340E-01  0.00000000000E+00 0. -1.
     999901    1    3    3    0    0 -0.85289588420E-01 -0.16536901211E-01  0.10038113621E+00  0.88995738971E+00  0.88000000000E+00 0. -1.
        -11    1    4    4    0    0  0.49413471382E-01  0.19648769531E-01 -0.10130720221E+00  0.11441667552E+00  0.51100000000E-03 0.  1.
         11    1    4    4    0    0  0.23952270306E-01 -0.17382956145E-02 -0.71818429074E-02  0.25071356425E-01  0.51100000000E-03 0. -1.
</event>
<event>
 8    1  0.2959109E+004  0.1043930E+01  0.7957747E-01            NaN
         13   -1    0    0    0    0  0.00000000000E+00  0.00000000000E+00  0.74505805969E-08  0.10566000000E+00  0.10566000000E+00 0. -1.
     999900   -1    0    0    0    0 -0.00000000000E+00 -0.00000000000E+00 -0.74505805969E-08  0.93827000000E+00  0.93827000000E+00 0.  1.
     999902    2    1    2    0    0  0.83631954697E-02 -0.64758220597E-02  0.71677417271E-02  0.10311528395E+01  0.10310736746E+01 0.  0.
     999903    2    3    3    0    0 -0.14419714383E-01 -0.10077195388E+00  0.88583768938E-01  0.14208625538E+00  0.44480388896E-01 0.  0.
         14    1    1    2    0    0 -0.83631954697E-02  0.64758220597E-02 -0.71677417271E-02  0.12777160533E-01  0.00000000000E+00 0.  1.
     999901    1    3    3    0    0  0.22782909852E-01  0.94296131820E-01 -0.81416027211E-01  0.88906658409E+00  0.88000000000E+00 0.  1.
        -11    1    4    4    0    0 -0.14393101128E-01 -0.70972815183E-01  0.85613778420E-01  0.11213510615E+00  0.51100000000E-03 0.  1.
         11    1    4    4    0    0 -0.26613254932E-04 -0.29799138697E-01  0.29699905180E-02  0.29951149227E-01  0.51100000000E-03 0. -1.
</event>
<event>
 8    1  0.2959109E+004  0.1043930E+01  0.7957747E-01            NaN
         13   -1    0    0    0    0  0.00000000000E+00  0.00000000000E+00  0.74505805969E-08  0.10566000000E+00  0.10566000000E+00 0. -1.
     999900   -1    0    0    0    0 -0.00000000000E+00 -0.00000000000E+00 -0.74505805969E-08  0.93827000000E+00  0.93827000000E+00 0. -1.
     999902    2    1    2    0    0 -0.13036429871E-02  0.94728173651E-02 -0.10193863585E-01  0.10299532833E+01  0.10298584452E+01 0.  0.
     999903    2    3    3    0    0 -0.23635695664E-01 -0.12710130129E+00 -0.23050661526E-01  0.13904559580E+00  0.45705118049E-01 0.  0.
         14    1    1    2    0    0  0.13036429871E-02 -0.94728173651E-02  0.10193863585E-01  0.13976716662E-01  0.00000000000E+00 0. -1.
     999901    1    3    3    0    0  0.22332052676E-01  0.13657411865E+00  0.12856797941E-01  0.89090768754E+00  0.88000000000E+00 0.  1.
        -11    1    4    4    0    0 -0.32013246009E-01 -0.53861817974E-01 -0.17806686401E-01  0.65140483243E-01  0.51100000000E-03 0. -1.
         11    1    4    4    0    0  0.83775503459E-02 -0.73239483313E-01 -0.52439751250E-02  0.73905112556E-01  0.51100000000E-03 0.  1.
</event>
<event>
 8    1  0.2959109E+004  0.1043930E+01  0.7957747E-01            NaN
         13   -1    0    0    0    0  0.00000000000E+00  0.00000000000E+00  0.74505805969E-08  0.10566000000E+00  0.10566000000E+00 0.  1.
     999900   -1    0    0    0    0 -0.00000000000E+00 -0.00000000000E+00 -0.74505805969E-08  0.93827000000E+00  0.93827000000E+00 0. -1.
     999902    2    1    2    0    0  0.99675411583E-02 -0.97771008400E-02  0.34870127120E-02  0.10295389321E+01  0.10294383468E+01 0.  0.
     999903    2    3    3    0    0  0.75758890978E-01 -0.93027218879E-01  0.59854399775E-01  0.14137432676E+00  0.44840585177E-01 0.  0.
         14    1    1    2    0    0 -0.99675411583E-02  0.97771008400E-02 -0.34870127120E-02  0.14391067897E-01  0.00000000000E+00 0.  1.
     999901    1    3    3    0    0 -0.65791349820E-01  0.83250118039E-01 -0.56367387063E-01  0.88816460535E+00  0.88000000000E+00 0. -1.
        -11    1    4    4    0    0  0.41956786359E-01 -0.37963225759E-01  0.53401493112E-02  0.56836227420E-01  0.51100000000E-03 0. -1.
         11    1    4    4    0    0  0.33802104618E-01 -0.55063993120E-01  0.54514250463E-01  0.84538099337E-01  0.51100000000E-03 0.  1.
</event>
<event>
 8    1  0.2959109E+004  0.1043930E+01  0.7957747E-01            NaN
         13   -1    0    0    0    0  0.00000000000E+00  0.00000000000E+00  0.74505805969E-08  0.10566000000E+00  0.10566000000E+00 0. -1.
     999900   -1    0    0    0    0 -0.00000000000E+00 -0.00000000000E+00 -0.74505805969E-08  0.93827000000E+00  0.93827000000E+00 0. -1.
     999902    2    1    2    0    0 -0.14098314582E-01 -0.22790145227E-02 -0.34614917261E-03  0.10296444758E+01  0.10295453707E+01 0.  0.
     999903    2    3    3    0    0 -0.11192209213E+00  0.66383168327E-01  0.32369478519E-01  0.14096326241E+00  0.43469281858E-01 0.  0.
         14    1    1    2    0    0  0.14098314582E-01  0.22790145227E-02  0.34614917261E-03  0.14285524159E-01  0.00000000000E+00 0.  1.
     999901    1    3    3    0    0  0.97823777551E-01 -0.68662182850E-01 -0.32715627692E-01  0.88868121343E+00  0.88000000000E+00 0. -1.
        -11    1    4    4    0    0 -0.63917726954E-01  0.34052913105E-01 -0.41211066184E-02  0.72541859300E-01  0.51100000000E-03 0. -1.
         11    1    4    4    0    0 -0.48004365179E-01  0.32330255222E-01  0.36490585137E-01  0.68421403111E-01  0.51100000000E-03 0.  1.
</event>
<event>
 8    1  0.2959109E+004  0.1043930E+01  0.7957747E-01            NaN
         13   -1    0    0    0    0  0.00000000000E+00  0.00000000000E+00  0.74505805969E-08  0.10566000000E+00  0.10566000000E+00 0. -1.
     999900   -1    0    0    0    0 -0.00000000000E+00 -0.00000000000E+00 -0.74505805969E-08  0.93827000000E+00  0.93827000000E+00 0.  1.
     999902    2    1    2    0    0  0.64460443911E-02 -0.11262912017E-01 -0.13804743610E-02  0.10308796979E+01  0.10307970902E+01 0.  0.
     999903    2    3    3    0    0 -0.99550743610E-01 -0.48637673502E-01 -0.73549477589E-01  0.14080073686E+00  0.46253086489E-01 0.  0.
         14    1    1    2    0    0 -0.64460443911E-02  0.11262912017E-01  0.13804743610E-02  0.13050302098E-01  0.00000000000E+00 0. -1.
     999901    1    3    3    0    0  0.10599678800E+00  0.37374761485E-01  0.72169003228E-01  0.89007896104E+00  0.88000000000E+00 0. -1.
        -11    1    4    4    0    0 -0.84831421004E-01 -0.22063945802E-01 -0.42701519194E-01  0.97503172033E-01  0.51100000000E-03 0. -1.
         11    1    4    4    0    0 -0.14719322605E-01 -0.26573727700E-01 -0.30847958395E-01  0.43297564827E-01  0.51100000000E-03 0.  1.
</event>
<event>
 8    1  0.2959109E+004  0.1043930E+01  0.7957747E-01            NaN
         13   -1    0    0    0    0  0.00000000000E+00  0.00000000000E+00  0.74505805969E-08  0.10566000000E+00  0.10566000000E+00 0.  1.
     999900   -1    0    0    0    0 -0.00000000000E+00 -0.00000000000E+00 -0.74505805969E-08  0.93827000000E+00  0.93827000000E+00 0.  1.
     999902    2    1    2    0    0  0.63562254688E-04 -0.92039356181E-02 -0.10457702182E-01  0.10299987400E+01  0.10299045220E+01 0.  0.
     999903    2    3    3    0    0 -0.32990005273E-01  0.52041623487E-01 -0.11855639707E+00  0.14065691330E+00  0.43955397266E-01 0.  0.
         14    1    1    2    0    0 -0.63562254688E-04  0.92039356181E-02  0.10457702182E-01  0.13931260028E-01  0.00000000000E+00 0.  1.
     999901    1    3    3    0    0  0.33053567528E-01 -0.61245559105E-01  0.10809869489E+00  0.88934182667E+00  0.88000000000E+00 0.  1.
        -11    1    4    4    0    0 -0.29055986249E-01  0.58334750307E-01 -0.89820884999E-01  0.11097407775E+00  0.51100000000E-03 0.  1.
         11    1    4    4    0    0 -0.39340190246E-02 -0.62931268204E-02 -0.28735512072E-01  0.29682835544E-01  0.51100000000E-03 0. -1.
</event>
<event>
 8    1  0.2959109E+004  0.1043930E+01  0.7957747E-01            NaN
         13   -1    0    0    0    0  0.00000000000E+00  0.00000000000E+00  0.74505805969E-08  0.10566000000E+00  0.10566000000E+00 0. -1.
     999900   -1    0    0    0    0 -0.00000000000E+00 -0.00000000000E+00 -0.74505805969E-08  0.93827000000E+00  0.93827000000E+00 0.  1.
     999902    2    1    2    0    0 -0.51724651127E-02 -0.49677194899E-02 -0.11545145769E-01  0.10303387152E+01  0.10302490694E+01 0.  0.
     999903    2    3    3    0    0  0.37475216360E-01 -0.42272765566E-01  0.11875082471E+00  0.13894232124E+00  0.44853447048E-01 0.  0.
         14    1    1    2    0    0  0.51724651127E-02  0.49677194899E-02  0.11545145769E-01  0.13591284822E-01  0.00000000000E+00 0. -1.
     999901    1    3    3    0    0 -0.42647681472E-01  0.37305046076E-01 -0.13029597048E+00  0.89139639394E+00  0.88000000000E+00 0.  1.
        -11    1    4    4    0    0 -0.46429828807E-02 -0.20230835569E-01  0.17764007202E-01  0.27325172840E-01  0.51100000000E-03 0.  1.
         11    1    4    4    0    0  0.42118199241E-01 -0.22041929997E-01  0.10098681751E+00  0.11161714840E+00  0.51100000000E-03 0. -1.
</event>
<event>
 8    1  0.2959109E+004  0.1043930E+01  0.7957747E-01            NaN
         13   -1    0    0    0    0  0.00000000000E+00  0.00000000000E+00  0.74505805969E-08  0.10566000000E+00  0.10566000000E+00 0.  1.
     999900   -1    0    0    0    0 -0.00000000000E+00 -0.00000000000E+00 -0.74505805969E-08  0.93827000000E+00  0.93827000000E+00 0. -1.
     999902    2    1    2    0    0 -0.47028502139E-02  0.90704839437E-02 -0.53957896954E-02  0.10323755625E+01  0.10323109014E+01 0.  0.
     999903    2    3    3    0    0 -0.10720622955E-01 -0.13158031353E+00  0.19547658598E-01  0.14083698454E+00  0.44995939730E-01 0.  0.
         14    1    1    2    0    0  0.47028502139E-02 -0.90704839437E-02  0.53957896954E-02  0.11554437483E-01  0.00000000000E+00 0.  1.
     999901    1    3    3    0    0  0.60177727414E-02  0.14065079747E+00 -0.24943448293E-01  0.89153857798E+00  0.88000000000E+00 0. -1.
        -11    1    4    4    0    0 -0.22963475048E-01 -0.88340560637E-01  0.27207487303E-01  0.95246439966E-01  0.51100000000E-03 0. -1.
         11    1    4    4    0    0  0.12242852093E-01 -0.43239752889E-01 -0.76598287054E-02  0.45590544569E-01  0.51100000000E-03 0.  1.
</event>
<event>
 8    1  0.2959109E+004  0.1043930E+01  0.7957747E-01            NaN
         13   -1    0    0    0    0  0.00000000000E+00  0.00000000000E+00  0.74505805969E-08  0.10566000000E+00  0.10566000000E+00 0. -1.
     999900   -1    0    0    0    0 -0.00000000000E+00 -0.00000000000E+00 -0.74505805969E-08  0.93827000000E+00  0.93827000000E+00 0.  1.
     999902    2    1    2    0    0  0.13138358100E-01 -0.45660803472E-02  0.77402398874E-03  0.10299992909E+01  0.10299050804E+01 0.  0.
     999903    2    3    3    0    0 -0.16276465772E-01  0.88443403760E-02 -0.13050647231E+00  0.13967371001E+00  0.46191560461E-01 0.  0.
         14    1    1    2    0    0 -0.13138358100E-01  0.45660803472E-02 -0.77402398874E-03  0.13930709115E-01  0.00000000000E+00 0.  1.
     999901    1    3    3    0    0  0.29414823872E-01 -0.13410420723E-01  0.13128049630E+00  0.89032558087E+00  0.88000000000E+00 0. -1.
        -11    1    4    4    0    0 -0.31477302762E-01  0.52150386326E-02 -0.66144827015E-01  0.73439883435E-01  0.51100000000E-03 0.  1.
         11    1    4    4    0    0  0.15200836990E-01  0.36293017434E-02 -0.64361645300E-01  0.66233826577E-01  0.51100000000E-03 0. -1.
</event>
<event>
 8    1  0.2959109E+004  0.1043930E+01  0.7957747E-01            NaN
         13   -1    0    0    0    0  0.00000000000E+00  0.00000000000E+00  0.74505805969E-08  0.10566000000E+00  0.10566000000E+00 0. -1.
     999900   -1    0    0    0    0 -0.00000000000E+00 -0.00000000000E+00 -0.74505805969E-08  0.93827000000E+00  0.93827000000E+00 0.  1.
     999902    2    1    2    0    0 -0.20003238201E-02  0.12570413094E-01  0.20263240799E-02  0.10310411455E+01  0.10309605818E+01 0.  0.
     999903    2    3    3    0    0 -0.28901613925E-01 -0.10781354982E-01 -0.12933222109E+00  0.14057831537E+00  0.45649736428E-01 0.  0.
         14    1    1    2    0    0  0.20003238201E-02 -0.12570413094E-01 -0.20263240799E-02  0.12888854488E-01  0.00000000000E+00 0. -1.
     999901    1    3    3    0    0  0.26901290105E-01  0.23351768076E-01  0.13135854517E+00  0.89046283015E+00  0.88000000000E+00 0. -1.
        -11    1    4    4    0    0 -0.24042819209E-02 -0.13729931589E-01 -0.99875103526E-01  0.10084438020E+00  0.51100000000E-03 0. -1.
         11    1    4    4    0    0 -0.26497332004E-01  0.29485766069E-02 -0.29457117565E-01  0.39733935164E-01  0.51100000000E-03 0.  1.
</event>
<event>
 8    1  0.2959109E+004  0.1043930E+01  0.7957747E-01            NaN
         13   -1    0    0    0    0  0.00000000000E+00  0.00000000000E+00  0.74505805969E-08  0.10566000000E+00  0.10566000000E+00 0. -1.
     999900   -1    0    0    0    0 -0.00000000000E+00 -0.00000000000E+00 -0.74505805969E-08  0.93827000000E+00  0.93827000000E+00 0.  1.
     999902    2    1    2    0    0  0.12795980190E-01  0.39787747887E-02  0.42672997419E-02  0.10298666574E+01  0.10297706320E+01 0.  0.
     999903    2    3    3    0    0  0.12694080014E+00 -0.42737582518E-01 -0.10555072294E-02  0.14124987260E+00  0.44832406966E-01 0.  0.
         14    1    1    2    0    0 -0.12795980190E-01 -0.39787747887E-02 -0.42672997419E-02  0.14063342594E-01  0.00000000000E+00 0. -1.
     999901    1    3    3    0    0 -0.11414481995E+00  0.46716357307E-01  0.53228069712E-02  0.88861678480E+00  0.88000000000E+00 0.  1.
        -11    1    4    4    0    0  0.19996593963E-01  0.52034554739E-02  0.11032325205E-01  0.23428893260E-01  0.51100000000E-03 0.  1.
         11    1    4    4    0    0  0.10694420618E+00 -0.47941037992E-01 -0.12087832434E-01  0.11782097934E+00  0.51100000000E-03 0. -1.
</event>
<event>
 8    1  0.2959109E+004  0.1043930E+01  0.7957747E-01            NaN
         13   -1    0    0    0    0  0.00000000000E+00  0.00000000000E+00  0.74505805969E-08  0.10566000000E+00  0.10566000000E+00 0. -1.
     999900   -1    0    0    0    0 -0.00000000000E+00 -0.00000000000E+00 -0.74505805969E-08  0.93827000000E+00  0.93827000000E+00 0. -1.
     999902    2    1    2    0    0  0.36792263402E-02  0.68386798495E-02 -0.10346400028E-01  0.10309935305E+01  0.10309123667E+01 0.  0.
     999903    2    3    3    0    0 -0.13205862473E+00  0.20523239906E-01 -0.80478823993E-02  0.14047833439E+00  0.42528934605E-01 0.  0.
         14    1    1    2    0    0 -0.36792263402E-02 -0.68386798495E-02  0.10346400028E-01  0.12936469460E-01  0.00000000000E+00 0. -1.
     999901    1    3    3    0    0  0.13573785107E+00 -0.13684560056E-01 -0.22985176288E-02  0.89051519615E+00  0.88000000000E+00 0.  1.
        -11    1    4    4    0    0 -0.32415580086E-01 -0.51400501683E-02 -0.17412415264E-01  0.37157008415E-01  0.51100000000E-03 0. -1.
         11    1    4    4    0    0 -0.99643044645E-01  0.25663290074E-01  0.93645328649E-02  0.10332132597E+00  0.51100000000E-03 0.  1.
</event>
<event>
 8    1  0.2959109E+004  0.1043930E+01  0.7957747E-01            NaN
         13   -1    0    0    0    0  0.00000000000E+00  0.00000000000E+00  0.74505805969E-08  0.10566000000E+00  0.10566000000E+00 0.  1.
     999900   -1    0    0    0    0 -0.00000000000E+00 -0.00000000000E+00 -0.74505805969E-08  0.93827000000E+00  0.93827000000E+00 0. -1.
     999902    2    1    2    0    0  0.12418675935E-01  0.63653829784E-02  0.12710411318E-02  0.10299172502E+01  0.10298219191E+01 0.  0.
     999903    2    3    3    0    0  0.11187177101E+00 -0.17220517427E-01 -0.70989772758E-01  0.14105908485E+00  0.45235806761E-01 0.  0.
         14    1    1    2    0    0 -0.12418675935E-01 -0.63653829784E-02 -0.12710411318E-02  0.14012749837E-01  0.00000000000E+00 0. -1.
     999901    1    3    3    0    0 -0.99453095074E-01  0.23585900406E-01  0.72260813890E-01  0.88885816531E+00  0.88000000000E+00 0.  1.
        -11    1    4    4    0    0  0.20842878746E-01  0.24160734915E-02  0.41570564664E-02  0.21396383923E-01  0.51100000000E-03 0. -1.
         11    1    4    4    0    0  0.91028892264E-01 -0.19636590919E-01 -0.75146829225E-01  0.11966270093E+00  0.51100000000E-03 0.  1.
</event>
<event>
 7    1  0.2959109E+004  0.1043930E+01  0.7957747E-01            NaN
         13   -1    0    0    0    0  0.00000000000E+00  0.00000000000E+00  0.74505805969E-08  0.10566000000E+00  0.10566000000E+00 0.  1.
     999900   -1    0    0    0    0 -0.00000000000E+00 -0.00000000000E+00 -0.74505805969E-08  0.93827000000E+00  0.93827000000E+00 0.  1.
     999903    2    1    2    0    0 -0.49986067820E-01 -0.34665169784E-01  0.43893539403E-01  0.87482742885E-01  0.45014514648E-01 0.  0.
         14    1    1    2    0    0 -0.44283532190E-01 -0.14760085373E-01  0.45939468523E-01  0.65492947037E-01  0.00000000000E+00 0.  1.
     999901    1    1    2    0    0  0.94269600010E-01  0.49425255158E-01 -0.89833007926E-01  0.89095431008E+00  0.88000000000E+00 0.  1.
        -11    1    3    3    0    0 -0.27933990683E-01 -0.90913571614E-02  0.44942515995E-01  0.53694054378E-01  0.51100000000E-03 0. -1.
         11    1    3    3    0    0 -0.22052077137E-01 -0.25573812623E-01 -0.10489765921E-02  0.33788688507E-01  0.51100000000E-03 0.  1.
</event>
<event>
 8    1  0.2959109E+004  0.1043930E+01  0.7957747E-01            NaN
         13   -1    0    0    0    0  0.00000000000E+00  0.00000000000E+00  0.74505805969E-08  0.10566000000E+00  0.10566000000E+00 0.  1.
     999900   -1    0    0    0    0 -0.00000000000E+00 -0.00000000000E+00 -0.74505805969E-08  0.93827000000E+00  0.93827000000E+00 0.  1.
     999902    2    1    2    0    0 -0.12906451291E-01  0.43095975157E-02  0.17558491268E-02  0.10302102288E+01  0.10301188686E+01 0.  0.
     999903    2    3    3    0    0 -0.44892259034E-01 -0.27613610567E-01  0.12285340339E+00  0.14076838092E+00  0.44101609178E-01 0.  0.
         14    1    1    2    0    0  0.12906451291E-01 -0.43095975157E-02 -0.17558491268E-02  0.13719771202E-01  0.00000000000E+00 0. -1.
     999901    1    3    3    0    0  0.31985807743E-01  0.31923208083E-01 -0.12109755426E+00  0.88944184788E+00  0.88000000000E+00 0.  1.
        -11    1    4    4    0    0 -0.50809191479E-01 -0.20125139942E-01  0.11801605235E+00  0.13005631445E+00  0.51100000000E-03 0. -1.
         11    1    4    4    0    0  0.59169324442E-02 -0.74884706258E-02  0.48373510432E-02  0.10712066466E-01  0.51100000000E-03 0.  1.
</event>
<event>
 8    1  0.2959109E+004  0.1043930E+01  0.7957747E-01            NaN
         13   -1    0    0    0    0  0.00000000000E+00  0.00000000000E+00  0.74505805969E-08  0.10566000000E+00  0.10566000000E+00 0.  1.
     999900   -1    0    0    0    0 -0.00000000000E+00 -0.00000000000E+00 -0.74505805969E-08  0.93827000000E+00  0.93827000000E+00 0. -1.
     999902    2    1    2    0    0 -0.18959843180E-02 -0.22199660920E-02  0.13415683366E-01  0.10302003399E+01  0.10301088471E+01 0.  0.
     999903    2    3    3    0    0 -0.94765771604E-01 -0.42007727627E-01  0.82594616298E-01  0.14172209700E+00  0.50180489132E-01 0.  0.
         14    1    1    2    0    0  0.18959843180E-02  0.22199660920E-02 -0.13415683366E-01  0.13729660089E-01  0.00000000000E+00 0. -1.
     999901    1    3    3    0    0  0.92869787286E-01  0.39787761535E-01 -0.69178932933E-01  0.88847824291E+00  0.88000000000E+00 0. -1.
        -11    1    4    4    0    0 -0.47520554171E-01 -0.12194513802E-01  0.68227421535E-01  0.84036607535E-01  0.51100000000E-03 0. -1.
         11    1    4    4    0    0 -0.47245217433E-01 -0.29813213825E-01  0.14367194763E-01  0.57685489469E-01  0.51100000000E-03 0.  1.
</event>
<event>
 8    1  0.2959109E+004  0.1043930E+01  0.7957747E-01            NaN
         13   -1    0    0    0    0  0.00000000000E+00  0.00000000000E+00  0.74505805969E-08  0.10566000000E+00  0.10566000000E+00 0.  1.
     999900   -1    0    0    0    0 -0.00000000000E+00 -0.00000000000E+00 -0.74505805969E-08  0.93827000000E+00  0.93827000000E+00 0.  1.
     999902    2    1    2    0    0  0.88834471101E-02  0.80212320677E-02  0.10103852177E-01  0.10282665513E+01  0.10281472448E+01 0.  0.
     999903    2    3    3    0    0  0.11151756845E+00  0.67739478300E-01 -0.21478286573E-01  0.13972985353E+00  0.45147648671E-01 0.  0.
         14    1    1    2    0    0 -0.88834471101E-02 -0.80212320677E-02 -0.10103852177E-01  0.15663448702E-01  0.00000000000E+00 0.  1.
     999901    1    3    3    0    0 -0.10263412134E+00 -0.59718246232E-01  0.31582138750E-01  0.88853669777E+00  0.88000000000E+00 0. -1.
        -11    1    4    4    0    0  0.22029982311E-01  0.13000973444E-01 -0.23597214909E-01  0.34805676313E-01  0.51100000000E-03 0.  1.
         11    1    4    4    0    0  0.89487586135E-01  0.54738504855E-01  0.21189283360E-02  0.10492417722E+00  0.51100000000E-03 0. -1.
</event>
<event>
 8    1  0.2959109E+004  0.1043930E+01  0.7957747E-01            NaN
         13   -1    0    0    0    0  0.00000000000E+00  0.00000000000E+00  0.74505805969E-08  0.10566000000E+00  0.10566000000E+00 0.  1.
     999900   -1    0    0    0    0 -0.00000000000E+00 -0.00000000000E+00 -0.74505805969E-08  0.93827000000E+00  0.93827000000E+00 0.  1.
     999902    2    1    2    0    0 -0.72388564288E-02 -0.68776374057E-02 -0.88622084115E-02  0.10305792818E+01  0.10304928017E+01 0.  0.
     999903    2    3    3    0    0 -0.25867024045E-01  0.87048288083E-01  0.95127056541E-01  0.13929770152E+00  0.45914979821E-01 0.  0.
         14    1    1    2    0    0  0.72388564288E-02  0.68776374057E-02  0.88622084115E-02  0.13350718206E-01  0.00000000000E+00 0.  1.
     999901    1    3    3    0    0  0.18628167616E-01 -0.93925925489E-01 -0.10398926495E+00  0.89128158027E+00  0.88000000000E+00 0.  1.
        -11    1    4    4    0    0 -0.19375196414E-01  0.58575816600E-02  0.20864438512E-01  0.29073964546E-01  0.51100000000E-03 0.  1.
         11    1    4    4    0    0 -0.64918276308E-02  0.81190706423E-01  0.74262618029E-01  0.11022373698E+00  0.51100000000E-03 0. -1.
</event>
<event>
 8    1  0.2959109E+004  0.1043930E+01  0.7957747E-01            NaN
         13   -1    0    0    0    0  0.00000000000E+00  0.00000000000E+00  0.74505805969E-08  0.10566000000E+00  0.10566000000E+00 0.  1.
     999900   -1    0    0    0    0 -0.00000000000E+00 -0.00000000000E+00 -0.74505805969E-08  0.93827000000E+00  0.93827000000E+00 0. -1.
     999902    2    1    2    0    0  0.27644848659E-02 -0.12234356545E-01 -0.21250577217E-03  0.10313853990E+01  0.10313091070E+01 0.  0.
     999903    2    3    3    0    0 -0.28401825852E-01  0.42026086405E-01 -0.12311429707E+00  0.14064391856E+00  0.45284942696E-01 0.  0.
         14    1    1    2    0    0 -0.27644848659E-02  0.12234356545E-01  0.21250577217E-03  0.12544601044E-01  0.00000000000E+00 0.  1.
     999901    1    3    3    0    0  0.31166310718E-01 -0.54260442950E-01  0.12290179130E+00  0.89074148040E+00  0.88000000000E+00 0.  1.
        -11    1    4    4    0    0 -0.16267140142E-01  0.13376595621E-02 -0.84855230142E-02  0.18403108523E-01  0.51100000000E-03 0. -1.
         11    1    4    4    0    0 -0.12134685710E-01  0.40688426842E-01 -0.11462877406E+00  0.12224081004E+00  0.51100000000E-03 0.  1.
</event>
<event>
 8    1  0.2959109E+004  0.1043930E+01  0.7957747E-01            NaN
         13   -1    0    0    0    0  0.00000000000E+00  0.00000000000E+00  0.74505805969E-08  0.10566000000E+00  0.10566000000E+00 0.  1.
     999900   -1    0    0    0    0 -0.00000000000E+00 -0.00000000000E+00 -0.74505805969E-08  0.93827000000E+00  0.93827000000E+00 0. -1.
     999902    2    1    2    0    0 -0.42252303343E-02 -0.11541365038E-01 -0.40640155996E-02  0.10309850434E+01  0.10309037723E+01 0.  0.
     999903    2    3    3    0    0 -0.12587997554E+00 -0.73059499403E-02 -0.46042084084E-01  0.14161449409E+00  0.45118136963E-01 0.  0.
         14    1    1    2    0    0  0.42252303343E-02  0.11541365038E-01  0.40640155996E-02  0.12944956589E-01  0.00000000000E+00 0.  1.
     999901    1    3    3    0    0  0.12165474520E+00 -0.42354150972E-02  0.41978068485E-01  0.88937054932E+00  0.88000000000E+00 0. -1.
        -11    1    4    4    0    0 -0.61697290911E-01 -0.25201617300E-01 -0.29938576203E-01  0.73063374452E-01  0.51100000000E-03 0. -1.
         11    1    4    4    0    0 -0.64182684626E-01  0.17895667360E-01 -0.16103507881E-01  0.68551119634E-01  0.51100000000E-03 0.  1.
</event>
<event>
 8    1  0.2959109E+004  0.1043930E+01  0.7957747E-01            NaN
         13   -1    0    0    0    0  0.00000000000E+00  0.00000000000E+00  0.74505805969E-08  0.10566000000E+00  0.10566000000E+00 0. -1.
     999900   -1    0    0    0    0 -0.00000000000E+00 -0.00000000000E+00 -0.74505805969E-08  0.93827000000E+00  0.93827000000E+00 0. -1.
     999902    2    1    2    0    0  0.11272452241E-01  0.51745278556E-02 -0.98842581274E-02  0.10280699093E+01  0.10279475648E+01 0.  0.
     999903    2    3    3    0    0  0.12795767077E+00  0.12669806170E-01  0.27179067337E-01  0.13956256015E+00  0.46960802762E-01 0.  0.
         14    1    1    2    0    0 -0.11272452241E-01 -0.51745278556E-02  0.98842581274E-02  0.15860090693E-01  0.00000000000E+00 0. -1.
     999901    1    3    3    0    0 -0.11668521853E+00 -0.74952783140E-02 -0.37063325464E-01  0.88850734916E+00  0.88000000000E+00 0. -1.
        -11    1    4    4    0    0  0.81878015077E-01 -0.86132528101E-02  0.75086297302E-03  0.82334818839E-01  0.51100000000E-03 0.  1.
         11    1    4    4    0    0  0.46079655692E-01  0.21283058980E-01  0.26428204364E-01  0.57227741307E-01  0.51100000000E-03 0. -1.
</event>
<event>
 8    1  0.2959109E+004  0.1043930E+01  0.7957747E-01            NaN
         13   -1    0    0    0    0  0.00000000000E+00  0.00000000000E+00  0.74505805969E-08  0.10566000000E+00  0.10566000000E+00 0. -1.
     999900   -1    0    0    0    0 -0.00000000000E+00 -0.00000000000E+00 -0.74505805969E-08  0.93827000000E+00  0.93827000000E+00 0. -1.
     999902    2    1    2    0    0 -0.90294975067E-03 -0.10240378500E-01  0.70474049531E-02  0.10314661889E+01  0.10313908824E+01 0.  0.
     999903    2    3    3    0    0 -0.35747899476E-01 -0.50368861304E-01  0.12097954048E+00  0.14253143476E+00  0.43176685521E-01 0.  0.
         14    1    1    2    0    0  0.90294975067E-03  0.10240378500E-01 -0.70474049531E-02  0.12463811080E-01  0.00000000000E+00 0.  1.
     999901    1    3    3    0    0  0.34844949725E-01  0.40128482804E-01 -0.11393213553E+00  0.88893475416E+00  0.88000000000E+00 0. -1.
        -11    1    4    4    0    0 -0.54384810942E-02 -0.48415955687E-02  0.60693389862E-01  0.61130735463E-01  0.51100000000E-03 0. -1.
         11    1    4    4    0    0 -0.30309418382E-01 -0.45527265735E-01  0.60286150620E-01  0.81400699293E-01  0.51100000000E-03 0.  1.
</event>
<event>
 8    1  0.2959109E+004  0.1043930E+01  0.7957747E-01            NaN
         13   -1    0    0    0    0  0.00000000000E+00  0.00000000000E+00  0.74505805969E-08  0.10566000000E+00  0.10566000000E+00 0. -1.
     999900   -1    0    0    0    0 -0.00000000000E+00 -0.00000000000E+00 -0.74505805969E-08  0.93827000000E+00  0.93827000000E+00 0.  1.
     999902    2    1    2    0    0  0.97576353671E-03 -0.46586149348E-02 -0.94838205252E-02  0.10333187956E+01  0.10332643106E+01 0.  0.
     999903    2    3    3    0    0 -0.26620066712E-01 -0.43541979193E-01 -0.12710849312E+00  0.14421305976E+00  0.45125443787E-01 0.  0.
         14    1    1    2    0    0 -0.97576353671E-03  0.46586149348E-02  0.94838205252E-02  0.10611204425E-01  0.00000000000E+00 0. -1.
     999901    1    3    3    0    0  0.27595830249E-01  0.38883364258E-01  0.11762467260E+00  0.88910573582E+00  0.88000000000E+00 0. -1.
        -11    1    4    4    0    0 -0.22241483381E-01 -0.41415646034E-01 -0.56790322959E-01  0.73724766682E-01  0.51100000000E-03 0.  1.
         11    1    4    4    0    0 -0.43785833305E-02 -0.21263331584E-02 -0.70318170162E-01  0.70488293074E-01  0.51100000000E-03 0. -1.
</event>
<event>
 8    1  0.2959109E+004  0.1043930E+01  0.7957747E-01            NaN
         13   -1    0    0    0    0  0.00000000000E+00  0.00000000000E+00  0.74505805969E-08  0.10566000000E+00  0.10566000000E+00 0.  1.
     999900   -1    0    0    0    0 -0.00000000000E+00 -0.00000000000E+00 -0.74505805969E-08  0.93827000000E+00  0.93827000000E+00 0.  1.
     999902    2    1    2    0    0  0.16340969603E-01  0.58308783328E-03 -0.25071141912E-02  0.10273875425E+01  0.10272543548E+01 0.  0.
     999903    2    3    3    0    0 -0.84390892070E-02  0.10957530205E+00  0.68964955294E-01  0.13744281904E+00  0.45347529165E-01 0.  0.
         14    1    1    2    0    0 -0.16340969603E-01 -0.58308783328E-03  0.25071141912E-02  0.16542457513E-01  0.00000000000E+00 0.  1.
     999901    1    3    3    0    0  0.24780058811E-01 -0.10899221422E+00 -0.71472069485E-01  0.88994472345E+00  0.88000000000E+00 0.  1.
        -11    1    4    4    0    0  0.72651584162E-02  0.97376502851E-01  0.64584077191E-01  0.11707403633E+00  0.51100000000E-03 0.  1.
         11    1    4    4    0    0 -0.15704247623E-01  0.12198799198E-01  0.43808781032E-02  0.20368782714E-01  0.51100000000E-03 0. -1.
</event>
<event>
 8    1  0.2959109E+004  0.1043930E+01  0.7957747E-01            NaN
         13   -1    0    0    0    0  0.00000000000E+00  0.00000000000E+00  0.74505805969E-08  0.10566000000E+00  0.10566000000E+00 0. -1.
     999900   -1    0    0    0    0 -0.00000000000E+00 -0.00000000000E+00 -0.74505805969E-08  0.93827000000E+00  0.93827000000E+00 0.  1.
     999902    2    1    2    0    0 -0.11683575441E-01 -0.21550370644E-02  0.52491940058E-02  0.10309413835E+01  0.10308595599E+01 0.  0.
     999903    2    3    3    0    0 -0.13111529176E-01  0.12463913350E+00 -0.45499084033E-01  0.14040548395E+00  0.44008038782E-01 0.  0.
         14    1    1    2    0    0  0.11683575441E-01  0.21550370644E-02 -0.52491940058E-02  0.12988616460E-01  0.00000000000E+00 0.  1.
     999901    1    3    3    0    0  0.14279537344E-02 -0.12679417056E+00  0.50748278039E-01  0.89053589959E+00  0.88000000000E+00 0. -1.
        -11    1    4    4    0    0  0.52892618653E-02  0.40445394306E-01  0.40515840911E-02  0.40993690567E-01  0.51100000000E-03 0.  1.
         11    1    4    4    0    0 -0.18400791041E-01  0.84193739194E-01 -0.49550668124E-01  0.99411793379E-01  0.51100000000E-03 0. -1.
</event>
<event>
 8    1  0.2959109E+004  0.1043930E+01  0.7957747E-01            NaN
         13   -1    0    0    0    0  0.00000000000E+00  0.00000000000E+00  0.74505805969E-08  0.10566000000E+00  0.10566000000E+00 0.  1.
     999900   -1    0    0    0    0 -0.00000000000E+00 -0.00000000000E+00 -0.74505805969E-08  0.93827000000E+00  0.93827000000E+00 0. -1.
     999902    2    1    2    0    0 -0.12911435776E-02 -0.14106435134E-02  0.11486572220E-01  0.10322853313E+01  0.10322196506E+01 0.  0.
     999903    2    3    3    0    0  0.81906269666E-01  0.79626184886E-01  0.72317529924E-01  0.14257235372E+00  0.45255768481E-01 0.  0.
         14    1    1    2    0    0  0.12911435776E-02  0.14106435134E-02 -0.11486572220E-01  0.11644668661E-01  0.00000000000E+00 0. -1.
     999901    1    3    3    0    0 -0.83197413243E-01 -0.81036828400E-01 -0.60830957704E-01  0.88971297762E+00  0.88000000000E+00 0. -1.
        -11    1    4    4    0    0  0.26248218687E-01  0.53100151085E-01  0.22725195194E-01  0.63445178281E-01  0.51100000000E-03 0.  1.
         11    1    4    4    0    0  0.55658050979E-01  0.26526033801E-01  0.49592334730E-01  0.79127175439E-01  0.51100000000E-03 0. -1.
</event>
<event>
 8    1  0.2959109E+004  0.1043930E+01  0.7957747E-01            NaN
         13   -1    0    0    0    0  0.00000000000E+00  0.00000000000E+00  0.74505805969E-08  0.10566000000E+00  0.10566000000E+00 0.  1.
     999900   -1    0    0    0    0 -0.00000000000E+00 -0.00000000000E+00 -0.74505805969E-08  0.93827000000E+00  0.93827000000E+00 0.  1.
     999902    2    1    2    0    0  0.24911025128E-02  0.55142990744E-02 -0.12225182163E-01  0.10302893195E+01  0.10301990165E+01 0.  0.
     999903    2    3    3    0    0 -0.23137865510E-01 -0.10051340003E+00  0.81136842437E-01  0.13865307941E+00  0.44756952783E-01 0.  0.
         14    1    1    2    0    0 -0.24911025128E-02 -0.55142990744E-02  0.12225182163E-01  0.13640680516E-01  0.00000000000E+00 0.  1.
     999901    1    3    3    0    0  0.25628968023E-01  0.10602769911E+00 -0.93362024601E-01  0.89163624008E+00  0.88000000000E+00 0.  1.
        -11    1    4    4    0    0 -0.33791730005E-01 -0.47334049575E-01  0.40246211844E-01  0.70727731158E-01  0.51100000000E-03 0.  1.
         11    1    4    4    0    0  0.10653864495E-01 -0.53179350456E-01  0.40890630593E-01  0.67925348250E-01  0.51100000000E-03 0. -1.
</event>
<event>
 8    1  0.2959109E+004  0.1043930E+01  0.7957747E-01            NaN
         13   -1    0    0    0    0  0.00000000000E+00  0.00000000000E+00  0.74505805969E-08  0.10566000000E+00  0.10566000000E+00 0.  1.
     999900   -1    0    0    0    0 -0.00000000000E+00 -0.00000000000E+00 -0.74505805969E-08  0.93827000000E+00  0.93827000000E+00 0. -1.
     999902    2    1    2    0    0  0.16029516166E-01  0.63345175057E-02  0.37987871967E-02  0.10262805727E+01  0.10261287987E+01 0.  0.
     999903    2    3    3    0    0  0.98073645124E-01 -0.81683774361E-01 -0.22409188780E-01  0.13770569300E+00  0.46583336938E-01 0.  0.
         14    1    1    2    0    0 -0.16029516166E-01 -0.63345175057E-02 -0.37987871967E-02  0.17649427320E-01  0.00000000000E+00 0. -1.
     999901    1    3    3    0    0 -0.82044128957E-01  0.88018291866E-01  0.26207975977E-01  0.88857487968E+00  0.88000000000E+00 0. -1.
        -11    1    4    4    0    0  0.85042166471E-01 -0.47619386818E-01 -0.58391714325E-02  0.97642885675E-01  0.51100000000E-03 0. -1.
         11    1    4    4    0    0  0.13031478652E-01 -0.34064387543E-01 -0.16570017348E-01  0.40062807321E-01  0.51100000000E-03 0.  1.
</event>
<event>
 8    1  0.2959109E+004  0.1043930E+01  0.7957747E-01            NaN
         13   -1    0    0    0    0  0.00000000000E+00  0.00000000000E+00  0.74505805969E-08  0.10566000000E+00  0.10566000000E+00 0. -1.
     999900   -1    0    0    0    0 -0.00000000000E+00 -0.00000000000E+00 -0.74505805969E-08  0.93827000000E+00  0.93827000000E+00 0.  1.
     999902    2    1    2    0    0 -0.87545367406E-02  0.89394603937E-02  0.55141407431E-02  0.10302566093E+01  0.10301658698E+01 0.  0.
     999903    2    3    3    0    0 -0.78821925118E-01 -0.69023604812E-01 -0.79746411087E-01  0.13994372038E+00  0.47408869325E-01 0.  0.
         14    1    1    2    0    0  0.87545367406E-02 -0.89394603937E-02 -0.55141407431E-02  0.13673390721E-01  0.00000000000E+00 0.  1.
     999901    1    3    3    0    0  0.70067388377E-01  0.77963065205E-01  0.85260551830E-01  0.89031288890E+00  0.88000000000E+00 0. -1.
        -11    1    4    4    0    0 -0.32140926549E-01 -0.42688190197E-01 -0.65403239628E-01  0.84458070169E-01  0.51100000000E-03 0.  1.
         11    1    4    4    0    0 -0.46680998569E-01 -0.26335414615E-01 -0.14343171459E-01  0.55485650206E-01  0.51100000000E-03 0. -1.
</event>
<event>
 8    1  0.2959109E+004  0.1043930E+01  0.7957747E-01            NaN
         13   -1    0    0    0    0  0.00000000000E+00  0.00000000000E+00  0.74505805969E-08  0.10566000000E+00  0.10566000000E+00 0. -1.
     999900   -1    0    0    0    0 -0.00000000000E+00 -0.00000000000E+00 -0.74505805969E-08  0.93827000000E+00  0.93827000000E+00 0.  1.
     999902    2    1    2    0    0  0.55686061453E-02  0.10765577264E-01  0.70271168466E-02  0.10299197395E+01  0.10298244425E+01 0.  0.
     999903    2    3    3    0    0  0.96314483530E-01  0.76586658186E-02 -0.90913559379E-01  0.13984286460E+00  0.44222354093E-01 0.  0.
         14    1    1    2    0    0 -0.55686061453E-02 -0.10765577264E-01 -0.70271168466E-02  0.14010260504E-01  0.00000000000E+00 0.  1.
     999901    1    3    3    0    0 -0.90745877384E-01  0.31069114449E-02  0.97940676225E-01  0.89007687489E+00  0.88000000000E+00 0. -1.
        -11    1    4    4    0    0  0.55225688523E-01  0.82869630202E-02 -0.79564883412E-01  0.97207932919E-01  0.51100000000E-03 0. -1.
         11    1    4    4    0    0  0.41088795007E-01 -0.62829720159E-03 -0.11348675967E-01  0.42634931684E-01  0.51100000000E-03 0.  1.
</event>
<event>
 8    1  0.2959109E+004  0.1043930E+01  0.7957747E-01            NaN
         13   -1    0    0    0    0  0.00000000000E+00  0.00000000000E+00  0.74505805969E-08  0.10566000000E+00  0.10566000000E+00 0.  1.
     999900   -1    0    0    0    0 -0.00000000000E+00 -0.00000000000E+00 -0.74505805969E-08  0.93827000000E+00  0.93827000000E+00 0. -1.
     999902    2    1    2    0    0  0.13346657305E-01 -0.76884854218E-02  0.53647513667E-02  0.10276196773E+01  0.10274902309E+01 0.  0.
     999903    2    3    3    0    0  0.24632952752E-01  0.12355358508E+00 -0.29989165715E-01  0.13711321411E+00  0.45037902666E-01 0.  0.
         14    1    1    2    0    0 -0.13346657305E-01  0.76884854218E-02 -0.53647513667E-02  0.16310322698E-01  0.00000000000E+00 0.  1.
     999901    1    3    3    0    0 -0.11286295447E-01 -0.13124207050E+00  0.35353917081E-01  0.89050646319E+00  0.88000000000E+00 0.  1.
        -11    1    4    4    0    0 -0.11259414384E-01  0.43077076793E-01 -0.18620122005E-01  0.48263640785E-01  0.51100000000E-03 0.  1.
         11    1    4    4    0    0  0.35892367136E-01  0.80476508284E-01 -0.11369043709E-01  0.88849573325E-01  0.51100000000E-03 0. -1.
</event>
<event>
 8    1  0.2959109E+004  0.1043930E+01  0.7957747E-01            NaN
         13   -1    0    0    0    0  0.00000000000E+00  0.00000000000E+00  0.74505805969E-08  0.10566000000E+00  0.10566000000E+00 0. -1.
     999900   -1    0    0    0    0 -0.00000000000E+00 -0.00000000000E+00 -0.74505805969E-08  0.93827000000E+00  0.93827000000E+00 0. -1.
     999902    2    1    2    0    0 -0.24331137885E-02 -0.46398987312E-02  0.14386764941E-01  0.10286189678E+01  0.10285050088E+01 0.  0.
     999903    2    3    3    0    0  0.87159007322E-01 -0.92500218461E-01 -0.31727338976E-01  0.13852195364E+00  0.45041365768E-01 0.  0.
         14    1    1    2    0    0  0.24331137885E-02  0.46398987312E-02 -0.14386764941E-01  0.15311032246E-01  0.00000000000E+00 0.  1.
     999901    1    3    3    0    0 -0.89592121111E-01  0.87860319729E-01  0.46114103918E-01  0.89009701411E+00  0.88000000000E+00 0. -1.
        -11    1    4    4    0    0  0.66755094387E-01 -0.55918939235E-01 -0.39988043591E-01  0.95825232288E-01  0.51100000000E-03 0. -1.
         11    1    4    4    0    0  0.20403912936E-01 -0.36581279225E-01  0.82607046150E-02  0.42696721356E-01  0.51100000000E-03 0.  1.
</event>
<event>
 8    1  0.2959109E+004  0.1043930E+01  0.7957747E-01            NaN
         13   -1    0    0    0    0  0.00000000000E+00  0.00000000000E+00  0.74505805969E-08  0.10566000000E+00  0.10566000000E+00 0. -1.
     999900   -1    0    0    0    0 -0.00000000000E+00 -0.00000000000E+00 -0.74505805969E-08  0.93827000000E+00  0.93827000000E+00 0. -1.
     999902    2    1    2    0    0 -0.27356291179E-02 -0.47602168862E-02  0.13331002909E-01  0.10295126851E+01  0.10294117299E+01 0.  0.
     999903    2    3    3    0    0  0.63678437134E-01  0.91178048570E-01  0.67332058697E-01  0.14016961684E+00  0.52397857386E-01 0.  0.
         14    1    1    2    0    0  0.27356291179E-02  0.47602168862E-02 -0.13331002909E-01  0.14417314939E-01  0.00000000000E+00 0.  1.
     999901    1    3    3    0    0 -0.66414066252E-01 -0.95938265456E-01 -0.54001055788E-01  0.88934306823E+00  0.88000000000E+00 0. -1.
        -11    1    4    4    0    0  0.42268793570E-01  0.22136996691E-01  0.42014072730E-01  0.63577833879E-01  0.51100000000E-03 0.  1.
         11    1    4    4    0    0  0.21409643565E-01  0.69041051879E-01  0.25317985967E-01  0.76591782957E-01  0.51100000000E-03 0. -1.
</event>
<event>
 7    1  0.2959109E+004  0.1043930E+01  0.7957747E-01            NaN
         13   -1    0    0    0    0  0.00000000000E+00  0.00000000000E+00  0.74505805969E-08  0.10566000000E+00  0.10566000000E+00 0.  1.
     999900   -1    0    0    0    0 -0.00000000000E+00 -0.00000000000E+00 -0.74505805969E-08  0.93827000000E+00  0.93827000000E+00 0.  1.
     999903    2    1    2    0    0  0.19580891618E-01  0.74652252840E-01 -0.44302920434E-01  0.99767211673E-01  0.45104075152E-01 0.  0.
         14    1    1    2    0    0 -0.39794770730E-01 -0.89508190119E-03 -0.40497850632E-01  0.56784688560E-01  0.00000000000E+00 0. -1.
     999901    1    1    2    0    0  0.20213879112E-01 -0.73757170939E-01  0.84800771066E-01  0.88737809977E+00  0.88000000000E+00 0. -1.
        -11    1    3    3    0    0  0.31154703539E-01  0.30433431836E-01 -0.24247567389E-01  0.49849924485E-01  0.51100000000E-03 0. -1.
         11    1    3    3    0    0 -0.11573811921E-01  0.44218821005E-01 -0.20055353045E-01  0.49917287188E-01  0.51100000000E-03 0.  1.
</event>
<event>
 8    1  0.2959109E+004  0.1043930E+01  0.7957747E-01            NaN
         13   -1    0    0    0    0  0.00000000000E+00  0.00000000000E+00  0.74505805969E-08  0.10566000000E+00  0.10566000000E+00 0.  1.
     999900   -1    0    0    0    0 -0.00000000000E+00 -0.00000000000E+00 -0.74505805969E-08  0.93827000000E+00  0.93827000000E+00 0. -1.
     999902    2    1    2    0    0  0.12509689006E-01  0.39899400105E-02 -0.32386238556E-02  0.10304059243E+01  0.10303171687E+01 0.  0.
     999903    2    3    3    0    0  0.99469435469E-01 -0.35130141752E-02 -0.90763440240E-01  0.14176714201E+00  0.44197404992E-01 0.  0.
         14    1    1    2    0    0 -0.12509689006E-01 -0.39899400105E-02  0.32386238556E-02  0.13524075746E-01  0.00000000000E+00 0.  1.
     999901    1    3    3    0    0 -0.86959746463E-01  0.75029541858E-02  0.87524816385E-01  0.88863878224E+00  0.88000000000E+00 0.  1.
        -11    1    4    4    0    0  0.58450134578E-01  0.16235161277E-01 -0.67093875268E-01  0.90453567721E-01  0.51100000000E-03 0.  1.
         11    1    4    4    0    0  0.41019300891E-01 -0.19748175453E-01 -0.23669564972E-01  0.51313574288E-01  0.51100000000E-03 0. -1.
</event>
<event>
 8    1  0.2959109E+004  0.1043930E+01  0.7957747E-01            NaN
         13   -1    0    0    0    0  0.00000000000E+00  0.00000000000E+00  0.74505805969E-08  0.10566000000E+00  0.10566000000E+00 0. -1.
     999900   -1    0    0    0    0 -0.00000000000E+00 -0.00000000000E+00 -0.74505805969E-08  0.93827000000E+00  0.93827000000E+00 0.  1.
     999902    2    1    2    0    0 -0.12342624678E-01 -0.46285846874E-02  0.27633684691E-02  0.10304615040E+01  0.10303734812E+01 0.  0.
     999903    2    3    3    0    0  0.63935029753E-01 -0.11407771388E+00 -0.23410347781E-01  0.14002203052E+00  0.44234735392E-01 0.  0.
         14    1    1    2    0    0  0.12342624678E-01  0.46285846874E-02 -0.27633684691E-02  0.13468496035E-01  0.00000000000E+00 0.  1.
     999901    1    3    3    0    0 -0.76277654431E-01  0.10944912919E+00  0.26173716250E-01  0.89043947344E+00  0.88000000000E+00 0.  1.
        -11    1    4    4    0    0  0.35186620149E-01 -0.37880757917E-01 -0.27336794132E-01  0.58485993984E-01  0.51100000000E-03 0.  1.
         11    1    4    4    0    0  0.28748409604E-01 -0.76196955958E-01  0.39264463517E-02  0.81536036536E-01  0.51100000000E-03 0. -1.
</event>
<event>
 8    1  0.2959109E+004  0.1043930E+01  0.7957747E-01            NaN
         13   -1    0    0    0    0  0.00000000000E+00  0.00000000000E+00  0.74505805969E-08  0.10566000000E+00  0.10566000000E+00 0.  1.
     999900   -1    0    0    0    0 -0.00000000000E+00 -0.00000000000E+00 -0.74505805969E-08  0.93827000000E+00  0.93827000000E+00 0. -1.
     999902    2    1    2    0    0 -0.46489428811E-02  0.11605766432E-02  0.13072698677E-01  0.10300068158E+01  0.10299127077E+01 0.  0.
     999903    2    3    3    0    0  0.12014781630E+00 -0.57682764590E-01 -0.38887062629E-03  0.13915442410E+00  0.40012540976E-01 0.  0.
         14    1    1    2    0    0  0.46489428811E-02 -0.11605766432E-02 -0.13072698677E-01  0.13923184218E-01  0.00000000000E+00 0. -1.
     999901    1    3    3    0    0 -0.12479675918E+00  0.58843341233E-01  0.13461569304E-01  0.89085239168E+00  0.88000000000E+00 0.  1.
        -11    1    4    4    0    0  0.74147714348E-01 -0.31952269468E-01  0.19078784007E-01  0.82964403135E-01  0.51100000000E-03 0.  1.
         11    1    4    4    0    0  0.46000101951E-01 -0.25730495122E-01 -0.19467654634E-01  0.56190020970E-01  0.51100000000E-03 0. -1.
</event>
<event>
 8    1  0.2959109E+004  0.1043930E+01  0.7957747E-01            NaN
         13   -1    0    0    0    0  0.00000000000E+00  0.00000000000E+00  0.74505805969E-08  0.10566000000E+00  0.10566000000E+00 0.  1.
     999900   -1    0    0    0    0 -0.00000000000E+00 -0.00000000000E+00 -0.74505805969E-08  0.93827000000E+00  0.93827000000E+00 0. -1.
     999902    2    1    2    0    0 -0.78457854732E-02 -0.51747517867E-02  0.66420020967E-02  0.10324212817E+01  0.10323571341E+01 0.  0.
     999903    2    3    3    0    0  0.10774204094E+00 -0.35534472486E-01 -0.70714697814E-01  0.14098069628E+00  0.44765412057E-01 0.  0.
         14    1    1    2    0    0  0.78457854732E-02  0.51747517867E-02 -0.66420020967E-02  0.11508718330E-01  0.00000000000E+00 0. -1.
     999901    1    3    3    0    0 -0.11558782641E+00  0.30359720699E-01  0.77356699911E-01  0.89144058539E+00  0.88000000000E+00 0. -1.
        -11    1    4    4    0    0  0.29785354618E-01 -0.27464374693E-02  0.12374234103E-02  0.29941653364E-01  0.51100000000E-03 0. -1.
         11    1    4    4    0    0  0.77956686321E-01 -0.32788035017E-01 -0.71952121224E-01  0.11103904292E+00  0.51100000000E-03 0.  1.
</event>
<event>
 8    1  0.2959109E+004  0.1043930E+01  0.7957747E-01            NaN
         13   -1    0    0    0    0  0.00000000000E+00  0.00000000000E+00  0.74505805969E-08  0.10566000000E+00  0.10566000000E+00 0. -1.
     999900   -1    0    0    0    0 -0.00000000000E+00 -0.00000000000E+00 -0.74505805969E-08  0.93827000000E+00  0.93827000000E+00 0.  1.
     999902    2    1    2    0    0  0.10881309142E-01 -0.30678434610E-02  0.95939834679E-02  0.10291023545E+01  0.10289955282E+01 0.  0.
     999903    2    3    3    0    0 -0.28837963768E-01  0.11057047618E+00 -0.62729061928E-01  0.13796717327E+00  0.45194549834E-01 0.  0.
         14    1    1    2    0    0 -0.10881309142E-01  0.30678434610E-02 -0.95939834679E-02  0.14827645495E-01  0.00000000000E+00 0.  1.
     999901    1    3    3    0    0  0.39719272910E-01 -0.11363831964E+00  0.72323045396E-01  0.89113518123E+00  0.88000000000E+00 0. -1.
        -11    1    4    4    0    0 -0.36472847835E-01  0.88741438030E-01 -0.35653082576E-01  0.10235582480E+00  0.51100000000E-03 0. -1.
         11    1    4    4    0    0  0.76348840669E-02  0.21829038147E-01 -0.27075979351E-01  0.35611348472E-01  0.51100000000E-03 0.  1.
</event>
<event>
 8    1  0.2959109E+004  0.1043930E+01  0.7957747E-01            NaN
         13   -1    0    0    0    0  0.00000000000E+00  0.00000000000E+00  0.74505805969E-08  0.10566000000E+00  0.10566000000E+00 0. -1.
     999900   -1    0    0    0    0 -0.00000000000E+00 -0.00000000000E+00 -0.74505805969E-08  0.93827000000E+00  0.93827000000E+00 0. -1.
     999902    2    1    2    0    0  0.30399796454E-02 -0.45376200994E-02 -0.13054593919E-01  0.10297788907E+01  0.10296816546E+01 0.  0.
     999903    2    3    3    0    0  0.10447113712E-01  0.37485962552E-01  0.12462252674E+00  0.13805256681E+00  0.44870897680E-01 0.  0.
         14    1    1    2    0    0 -0.30399796454E-02  0.45376200994E-02  0.13054593919E-01  0.14151109313E-01  0.00000000000E+00 0. -1.
     999901    1    3    3    0    0 -0.74071340666E-02 -0.42023582651E-01 -0.13767712066E+00  0.89172632387E+00  0.88000000000E+00 0. -1.
        -11    1    4    4    0    0  0.16560158237E-01 -0.29298063076E-03  0.16622052809E-01  0.23470799711E-01  0.51100000000E-03 0. -1.
         11    1    4    4    0    0 -0.61130445250E-02  0.37778943183E-01  0.10800047393E+00  0.11458176710E+00  0.51100000000E-03 0.  1.
</event>
<event>
 8    1  0.2959109E+004  0.1043930E+01  0.7957747E-01            NaN
         13   -1    0    0    0    0  0.00000000000E+00  0.00000000000E+00  0.74505805969E-08  0.10566000000E+00  0.10566000000E+00 0.  1.
     999900   -1    0    0    0    0 -0.00000000000E+00 -0.00000000000E+00 -0.74505805969E-08  0.93827000000E+00  0.93827000000E+00 0.  1.
     999902    2    1    2    0    0 -0.13848795631E-01 -0.15280404237E-02 -0.65764645636E-03  0.10299816472E+01  0.10298871962E+01 0.  0.
     999903    2    3    3    0    0  0.79127763742E-01  0.38928936603E-02  0.10346940178E+00  0.13896174318E+00  0.48250298931E-01 0.  0.
         14    1    1    2    0    0  0.13848795631E-01  0.15280404237E-02  0.65764645636E-03  0.13948352835E-01  0.00000000000E+00 0.  1.
     999901    1    3    3    0    0 -0.92976559372E-01 -0.54209340841E-02 -0.10412704824E+00  0.89101990398E+00  0.88000000000E+00 0.  1.
        -11    1    4    4    0    0  0.28590850993E-01  0.23297538779E-01  0.29136467404E-01  0.47004328816E-01  0.51100000000E-03 0. -1.
         11    1    4    4    0    0  0.50536912749E-01 -0.19404645119E-01  0.74332934379E-01  0.91957414366E-01  0.51100000000E-03 0.  1.
</event>
<event>
 8    1  0.2959109E+004  0.1043930E+01  0.7957747E-01            NaN
         13   -1    0    0    0    0  0.00000000000E+00  0.00000000000E+00  0.74505805969E-08  0.10566000000E+00  0.10566000000E+00 0.  1.
     999900   -1    0    0    0    0 -0.00000000000E+00 -0.00000000000E+00 -0.74505805969E-08  0.93827000000E+00  0.93827000000E+00 0. -1.
     999902    2    1    2    0    0  0.39009961512E-02 -0.69787502254E-02  0.95176553483E-02  0.10314999361E+01  0.10314250393E+01 0.  0.
     999903    2    3    3    0    0 -0.11014574085E+00  0.73341372007E-01  0.12227292450E-01  0.14050873389E+00  0.45630653541E-01 0.  0.
         14    1    1    2    0    0 -0.39009961512E-02  0.69787502254E-02 -0.95176553483E-02  0.12430063918E-01  0.00000000000E+00 0. -1.
     999901    1    3    3    0    0  0.11404673700E+00 -0.80320122232E-01 -0.27096371013E-02  0.89099120220E+00  0.88000000000E+00 0.  1.
        -11    1    4    4    0    0 -0.73099246019E-01  0.63181622350E-01 -0.82526062541E-02  0.96973108656E-01  0.51100000000E-03 0. -1.
         11    1    4    4    0    0 -0.37046494831E-01  0.10159749656E-01  0.20479898704E-01  0.43535625231E-01  0.51100000000E-03 0.  1.
</event>
<event>
 8    1  0.2959109E+004  0.1043930E+01  0.7957747E-01            NaN
         13   -1    0    0    0    0  0.00000000000E+00  0.00000000000E+00  0.74505805969E-08  0.10566000000E+00  0.10566000000E+00 0.  1.
     999900   -1    0    0    0    0 -0.00000000000E+00 -0.00000000000E+00 -0.74505805969E-08  0.93827000000E+00  0.93827000000E+00 0. -1.
     999902    2    1    2    0    0  0.74945542077E-02 -0.15785591276E-02 -0.12011274104E-01  0.10296846184E+01  0.10295860734E+01 0.  0.
     999903    2    3    3    0    0  0.34334264727E-01 -0.12698809265E+00 -0.19648976568E-01  0.14035551414E+00  0.44819311238E-01 0.  0.
         14    1    1    2    0    0 -0.74945542077E-02  0.15785591276E-02  0.12011274104E-01  0.14245381613E-01  0.00000000000E+00 0.  1.
     999901    1    3    3    0    0 -0.26839710519E-01  0.12540953353E+00  0.76377024636E-02  0.88932910425E+00  0.88000000000E+00 0.  1.
        -11    1    4    4    0    0  0.43989528013E-01 -0.91493667759E-01 -0.20446470111E-01  0.10355910909E+00  0.51100000000E-03 0. -1.
         11    1    4    4    0    0 -0.96552632858E-02 -0.35494424894E-01  0.79749354365E-03  0.36796405050E-01  0.51100000000E-03 0.  1.
</event>
<event>
 8    1  0.2959109E+004  0.1043930E+01  0.7957747E-01            NaN
         13   -1    0    0    0    0  0.00000000000E+00  0.00000000000E+00  0.74505805969E-08  0.10566000000E+00  0.10566000000E+00 0.  1.
     999900   -1    0    0    0    0 -0.00000000000E+00 -0.00000000000E+00 -0.74505805969E-08  0.93827000000E+00  0.93827000000E+00 0. -1.
     999902    2    1    2    0    0 -0.35097422903E-02  0.82853459644E-02  0.10569950126E-01  0.10300487503E+01  0.10299552120E+01 0.  0.
     999903    2    3    3    0    0 -0.48796934967E-01 -0.11275240429E+00 -0.46032857417E-01  0.13881087818E+00  0.45334207880E-01 0.  0.
         14    1    1    2    0    0  0.35097422903E-02 -0.82853459644E-02 -0.10569950126E-01  0.13881249740E-01  0.00000000000E+00 0. -1.
     999901    1    3    3    0    0  0.45287192676E-01  0.12103775025E+00  0.56602807542E-01  0.89123787208E+00  0.88000000000E+00 0. -1.
        -11    1    4    4    0    0 -0.48671826307E-01 -0.67619573154E-01 -0.42518350993E-01  0.93538359200E-01  0.51100000000E-03 0. -1.
         11    1    4    4    0    0 -0.12510865930E-03 -0.45132831135E-01 -0.35145064237E-02  0.45272518980E-01  0.51100000000E-03 0.  1.
</event>
<event>
 8    1  0.2959109E+004  0.1043930E+01  0.7957747E-01            NaN
         13   -1    0    0    0    0  0.00000000000E+00  0.00000000000E+00  0.74505805969E-08  0.10566000000E+00  0.10566000000E+00 0. -1.
     999900   -1    0    0    0    0 -0.00000000000E+00 -0.00000000000E+00 -0.74505805969E-08  0.93827000000E+00  0.93827000000E+00 0.  1.
     999902    2    1    2    0    0 -0.10682293628E-01 -0.84300602596E-02  0.10091232994E-02  0.10302846476E+01  0.10301942823E+01 0.  0.
     999903    2    3    3    0    0  0.12972586705E-02  0.12683501817E+00 -0.35251427211E-01  0.13913091300E+00  0.45010477851E-01 0.  0.
         14    1    1    2    0    0  0.10682293628E-01  0.84300602596E-02 -0.10091232994E-02  0.13645352431E-01  0.00000000000E+00 0.  1.
     999901    1    3    3    0    0 -0.11979552299E-01 -0.13526507843E+00  0.36260550510E-01  0.89115373457E+00  0.88000000000E+00 0.  1.
        -11    1    4    4    0    0 -0.47319258441E-02  0.10711746143E+00 -0.45042583447E-01  0.11629977262E+00  0.51100000000E-03 0.  1.
         11    1    4    4    0    0  0.60291845146E-02  0.19717556740E-01  0.97911562360E-02  0.22831140382E-01  0.51100000000E-03 0. -1.
</event>
<event>
 8    1  0.2959109E+004  0.1043930E+01  0.7957747E-01            NaN
         13   -1    0    0    0    0  0.00000000000E+00  0.00000000000E+00  0.74505805969E-08  0.10566000000E+00  0.10566000000E+00 0. -1.
     999900   -1    0    0    0    0 -0.00000000000E+00 -0.00000000000E+00 -0.74505805969E-08  0.93827000000E+00  0.93827000000E+00 0. -1.
     999902    2    1    2    0    0  0.16915493914E-01  0.18576260510E-01  0.40854319300E-02  0.10184760780E+01  0.10181579541E+01 0.  0.
     999903    2    3    3    0    0  0.69975808388E-02  0.12305629369E+00  0.16498668229E-01  0.13215303831E+00  0.44725853001E-01 0.  0.
         14    1    1    2    0    0 -0.16915493914E-01 -0.18576260510E-01 -0.40854319300E-02  0.25453921956E-01  0.00000000000E+00 0.  1.
     999901    1    3    3    0    0  0.99179130747E-02 -0.10448003318E+00 -0.12413236299E-01  0.88632303974E+00  0.88000000000E+00 0.  1.
        -11    1    4    4    0    0 -0.97942283182E-04  0.49288656580E-01  0.28711258719E-01  0.57043656600E-01  0.51100000000E-03 0.  1.
         11    1    4    4    0    0  0.70955231220E-02  0.73767637109E-01 -0.12212590490E-01  0.75109381707E-01  0.51100000000E-03 0. -1.
</event>
<event>
 8    1  0.2959109E+004  0.1043930E+01  0.7957747E-01            NaN
         13   -1    0    0    0    0  0.00000000000E+00  0.00000000000E+00  0.74505805969E-08  0.10566000000E+00  0.10566000000E+00 0. -1.
     999900   -1    0    0    0    0 -0.00000000000E+00 -0.00000000000E+00 -0.74505805969E-08  0.93827000000E+00  0.93827000000E+00 0.  1.
     999902    2    1    2    0    0 -0.75897123464E-02  0.10820674013E-01  0.37228933083E-02  0.10301986252E+01  0.10301071093E+01 0.  0.
     999903    2    3    3    0    0 -0.65623013456E-01 -0.11382570024E+00  0.98732351619E-02  0.13950091589E+00  0.45829628291E-01 0.  0.
         14    1    1    2    0    0  0.75897123464E-02 -0.10820674013E-01 -0.37228933083E-02  0.13731374811E-01  0.00000000000E+00 0. -1.
     999901    1    3    3    0    0  0.58033301110E-01  0.12464637426E+00 -0.61503418536E-02  0.89069770930E+00  0.88000000000E+00 0.  1.
        -11    1    4    4    0    0 -0.23788790546E-01 -0.79301679019E-02 -0.11547602851E-02  0.25107542909E-01  0.51100000000E-03 0.  1.
         11    1    4    4    0    0 -0.41834222910E-01 -0.10589553234E+00  0.11027995447E-01  0.11439337298E+00  0.51100000000E-03 0. -1.
</event>
<event>
 8    1  0.2959109E+004  0.1043930E+01  0.7957747E-01            NaN
         13   -1    0    0    0    0  0.00000000000E+00  0.00000000000E+00  0.74505805969E-08  0.10566000000E+00  0.10566000000E+00 0. -1.
     999900   -1    0    0    0    0 -0.00000000000E+00 -0.00000000000E+00 -0.74505805969E-08  0.93827000000E+00  0.93827000000E+00 0. -1.
     999902    2    1    2    0    0  0.52991857231E-03 -0.86457182945E-02  0.10748393574E-01  0.10301257534E+01  0.10300332571E+01 0.  0.
     999903    2    3    3    0    0  0.57742586794E-02  0.78593417854E-02  0.13413237775E+00  0.14134933181E+00  0.43508936149E-01 0.  0.
         14    1    1    2    0    0 -0.52991857231E-03  0.86457182945E-02 -0.10748393574E-01  0.13804246554E-01  0.00000000000E+00 0.  1.
     999901    1    3    3    0    0 -0.52443401071E-02 -0.16505060080E-01 -0.12338398418E+00  0.88877642164E+00  0.88000000000E+00 0. -1.
        -11    1    4    4    0    0  0.54231826093E-03 -0.14158076450E-01  0.95712582789E-01  0.96756937028E-01  0.51100000000E-03 0.  1.
         11    1    4    4    0    0  0.52319404184E-02  0.22017418235E-01  0.38419794960E-01  0.44592394778E-01  0.51100000000E-03 0. -1.
</event>
<event>
 7    1  0.2959109E+004  0.1043930E+01  0.7957747E-01            NaN
         13   -1    0    0    0    0  0.00000000000E+00  0.00000000000E+00  0.74505805969E-08  0.10566000000E+00  0.10566000000E+00 0.  1.
     999900   -1    0    0    0    0 -0.00000000000E+00 -0.00000000000E+00 -0.74505805969E-08  0.93827000000E+00  0.93827000000E+00 0. -1.
     999902    2    1    2    0    0 -0.12228691648E-01  0.76571773311E-02  0.36611020170E-02  0.10290445396E+01  0.10289368725E+01 0.  0.
         14    1    1    2    0    0  0.12228691648E-01 -0.76571773311E-02 -0.36611020170E-02  0.14885460426E-01  0.00000000000E+00 0. -1.
     999901    1    3    3    0    0 -0.63089860282E-01 -0.71948308218E-01 -0.76664324077E-01  0.88850115819E+00  0.88000000000E+00 0. -1.
        -11    1    3    3    0    0  0.52936308574E-01  0.27498822828E-01  0.25500180968E-01  0.64876485515E-01  0.51100000000E-03 0. -1.
         11    1    3    3    0    0 -0.20751399407E-02  0.52106662721E-01  0.54825245126E-01  0.75666895865E-01  0.51100000000E-03 0.  1.
</event>
<event>
 8    1  0.2959109E+004  0.1043930E+01  0.7957747E-01            NaN
         13   -1    0    0    0    0  0.00000000000E+00  0.00000000000E+00  0.74505805969E-08  0.10566000000E+00  0.10566000000E+00 0.  1.
     999900   -1    0    0    0    0 -0.00000000000E+00 -0.00000000000E+00 -0.74505805969E-08  0.93827000000E+00  0.93827000000E+00 0.  1.
     999902    2    1    2    0    0  0.95486507251E-03 -0.43631676193E-02 -0.13231782435E-01  0.10299647193E+01  0.10298700374E+01 0.  0.
     999903    2    3    3    0    0  0.12012580798E-01 -0.10045227058E+00  0.84696025718E-01  0.13926541852E+00  0.44569936719E-01 0.  0.
         14    1    1    2    0    0 -0.95486507251E-03  0.43631676193E-02  0.13231782435E-01  0.13965280713E-01  0.00000000000E+00 0.  1.
     999901    1    3    3    0    0 -0.11057715725E-01  0.96089102964E-01 -0.97927808153E-01  0.89069930077E+00  0.88000000000E+00 0.  1.
        -11    1    4    4    0    0  0.18299333786E-01 -0.15374486908E-01  0.10143967629E-01  0.25969244597E-01  0.51100000000E-03 0.  1.
         11    1    4    4    0    0 -0.62867529878E-02 -0.85077783675E-01  0.74552058090E-01  0.11329617392E+00  0.51100000000E-03 0. -1.
</event>
<event>
 8    1  0.2959109E+004  0.1043930E+01  0.7957747E-01            NaN
         13   -1    0    0    0    0  0.00000000000E+00  0.00000000000E+00  0.74505805969E-08  0.10566000000E+00  0.10566000000E+00 0.  1.
     999900   -1    0    0    0    0 -0.00000000000E+00 -0.00000000000E+00 -0.74505805969E-08  0.93827000000E+00  0.93827000000E+00 0.  1.
     999902    2    1    2    0    0 -0.15281113973E-01 -0.83497106421E-02  0.35022420897E-02  0.10261677982E+01  0.10260140615E+01 0.  0.
     999903    2    3    3    0    0  0.91618577594E-01 -0.59743012821E-01 -0.65347969687E-01  0.13554488856E+00  0.46247900833E-01 0.  0.
         14    1    1    2    0    0  0.15281113973E-01  0.83497106421E-02 -0.35022420897E-02  0.17762201770E-01  0.00000000000E+00 0. -1.
     999901    1    3    3    0    0 -0.10689969157E+00  0.51393302179E-01  0.68850211777E-01  0.89062290967E+00  0.88000000000E+00 0. -1.
        -11    1    4    4    0    0  0.44097543777E-01 -0.52523321839E-01 -0.50718297574E-01  0.85298883545E-01  0.51100000000E-03 0.  1.
         11    1    4    4    0    0  0.47521033817E-01 -0.72196909819E-02 -0.14629672113E-01  0.50246005016E-01  0.51100000000E-03 0. -1.
</event>
<event>
 8    1  0.2959109E+004  0.1043930E+01  0.7957747E-01            NaN
         13   -1    0    0    0    0  0.00000000000E+00  0.00000000000E+00  0.74505805969E-08  0.10566000000E+00  0.10566000000E+00 0.  1.
     999900   -1    0    0    0    0 -0.00000000000E+00 -0.00000000000E+00 -0.74505805969E-08  0.93827000000E+00  0.93827000000E+00 0.  1.
     999902    2    1    2    0    0  0.43658694713E-02  0.25569586689E-03  0.13333197939E-01  0.10298978810E+01  0.10298022844E+01 0.  0.
     999903    2    3    3    0    0 -0.88795857852E-01  0.91115704421E-02  0.99049944274E-01  0.14079445925E+00  0.45215740693E-01 0.  0.
         14    1    1    2    0    0 -0.43658694713E-02 -0.25569586689E-03 -0.13333197939E-01  0.14032119010E-01  0.00000000000E+00 0. -1.
     999901    1    3    3    0    0  0.93161727323E-01 -0.88558745752E-02 -0.85716746335E-01  0.88910342174E+00  0.88000000000E+00 0.  1.
        -11    1    4    4    0    0 -0.64707746336E-01 -0.11936432521E-01  0.51855681550E-01  0.83778539539E-01  0.51100000000E-03 0.  1.
         11    1    4    4    0    0 -0.24088111516E-01  0.21048002964E-01  0.47194262724E-01  0.57015919709E-01  0.51100000000E-03 0. -1.
</event>
<event>
 8    1  0.2959109E+004  0.1043930E+01  0.7957747E-01            NaN
         13   -1    0    0    0    0  0.00000000000E+00  0.00000000000E+00  0.74505805969E-08  0.10566000000E+00  0.10566000000E+00 0. -1.
     999900   -1    0    0    0    0 -0.00000000000E+00 -0.00000000000E+00 -0.74505805969E-08  0.93827000000E+00  0.93827000000E+00 0.  1.
     999902    2    1    2    0    0 -0.14931919000E-01 -0.33573121476E-02  0.13747957743E-01  0.10233572002E+01  0.10231503893E+01 0.  0.
     999903    2    3    3    0    0  0.97814298249E-01  0.43741540301E-01  0.66723076529E-01  0.13333676525E+00  0.42962364173E-01 0.  0.
         14    1    1    2    0    0  0.14931919000E-01  0.33573121476E-02 -0.13747957743E-01  0.20572799809E-01  0.00000000000E+00 0.  1.
     999901    1    3    3    0    0 -0.11274621725E+00 -0.47098852449E-01 -0.52975118786E-01  0.89002043494E+00  0.88000000000E+00 0.  1.
        -11    1    4    4    0    0  0.15356719365E-01  0.59176369612E-02  0.32394340102E-01  0.36338707304E-01  0.51100000000E-03 0.  1.
         11    1    4    4    0    0  0.82457578884E-01  0.37823903340E-01  0.34328736427E-01  0.96998057945E-01  0.51100000000E-03 0. -1.
</event>
<event>
 8    1  0.2959109E+004  0.1043930E+01  0.7957747E-01            NaN
         13   -1    0    0    0    0  0.00000000000E+00  0.00000000000E+00  0.74505805969E-08  0.10566000000E+00  0.10566000000E+00 0.  1.
     999900   -1    0    0    0    0 -0.00000000000E+00 -0.00000000000E+00 -0.74505805969E-08  0.93827000000E+00  0.93827000000E+00 0.  1.
     999902    2    1    2    0    0 -0.99167607334E-02 -0.79245589691E-02  0.51292808881E-02  0.10302387509E+01  0.10301477727E+01 0.  0.
     999903    2    3    3    0    0  0.39409684229E-01 -0.26357246532E-01  0.12480548130E+00  0.14057856015E+00  0.44023808940E-01 0.  0.
         14    1    1    2    0    0  0.99167607334E-02  0.79245589691E-02 -0.51292808881E-02  0.13691249057E-01  0.00000000000E+00 0.  1.
     999901    1    3    3    0    0 -0.49326444963E-01  0.18432687563E-01 -0.11967620042E+00  0.88966019080E+00  0.88000000000E+00 0.  1.
        -11    1    4    4    0    0  0.18353450104E-01 -0.20650949511E-01  0.11182378553E+00  0.11518737334E+00  0.51100000000E-03 0.  1.
         11    1    4    4    0    0  0.21056234125E-01 -0.57062970211E-02  0.12981695778E-01  0.25391186808E-01  0.51100000000E-03 0. -1.
</event>
<event>
 8    1  0.2959109E+004  0.1043930E+01  0.7957747E-01            NaN
         13   -1    0    0    0    0  0.00000000000E+00  0.00000000000E+00  0.74505805969E-08  0.10566000000E+00  0.10566000000E+00 0. -1.
     999900   -1    0    0    0    0 -0.00000000000E+00 -0.00000000000E+00 -0.74505805969E-08  0.93827000000E+00  0.93827000000E+00 0.  1.
     999902    2    1    2    0    0  0.60625066883E-02 -0.21511331146E-01  0.55196944560E-02  0.10209091750E+01  0.10206495899E+01 0.  0.
     999903    2    3    3    0    0 -0.68806757961E-01  0.43600281634E-01 -0.91854511073E-01  0.12999578710E+00  0.42735219192E-01 0.  0.
         14    1    1    2    0    0 -0.60625066883E-02  0.21511331146E-01 -0.55196944560E-02  0.23020824961E-01  0.00000000000E+00 0.  1.
     999901    1    3    3    0    0  0.74869264649E-01 -0.65111612780E-01  0.97374205529E-01  0.89091338794E+00  0.88000000000E+00 0. -1.
        -11    1    4    4    0    0  0.41181854079E-02  0.43844918978E-02 -0.18200820194E-01  0.19175875390E-01  0.51100000000E-03 0. -1.
         11    1    4    4    0    0 -0.72924943369E-01  0.39215789736E-01 -0.73653690879E-01  0.11081991171E+00  0.51100000000E-03 0.  1.
</event>
<event>
 8    1  0.2959109E+004  0.1043930E+01  0.7957747E-01            NaN
         13   -1    0    0    0    0  0.00000000000E+00  0.00000000000E+00  0.74505805969E-08  0.10566000000E+00  0.10566000000E+00 0. -1.
     999900   -1    0    0    0    0 -0.00000000000E+00 -0.00000000000E+00 -0.74505805969E-08  0.93827000000E+00  0.93827000000E+00 0. -1.
     999902    2    1    2    0    0 -0.97282246436E-02 -0.44690957467E-02  0.88323008775E-02  0.10300512137E+01  0.10299577089E+01 0.  0.
     999903    2    3    3    0    0  0.12611371003E+00  0.76678567129E-02  0.36101119021E-01  0.13912813882E+00  0.45715252733E-01 0.  0.
         14    1    1    2    0    0  0.97282246436E-02  0.44690957467E-02 -0.88323008775E-02  0.13878786341E-01  0.00000000000E+00 0.  1.
     999901    1    3    3    0    0 -0.13584193468E+00 -0.12136952460E-01 -0.27268818144E-01  0.89092307484E+00  0.88000000000E+00 0.  1.
        -11    1    4    4    0    0  0.12624772732E+00  0.14861011306E-01  0.34816767135E-01  0.13180214985E+00  0.51100000000E-03 0.  1.
         11    1    4    4    0    0 -0.13401728656E-03 -0.71931545935E-02  0.12843518864E-02  0.73259889712E-02  0.51100000000E-03 0. -1.
</event>
<event>
 8    1  0.2959109E+004  0.1043930E+01  0.7957747E-01            NaN
         13   -1    0    0    0    0  0.00000000000E+00  0.00000000000E+00  0.74505805969E-08  0.10566000000E+00  0.10566000000E+00 0. -1.
     999900   -1    0    0    0    0 -0.00000000000E+00 -0.00000000000E+00 -0.74505805969E-08  0.93827000000E+00  0.93827000000E+00 0. -1.
     999902    2    1    2    0    0 -0.80996414698E-03  0.12905075975E-01  0.48750704358E-02  0.10301110514E+01  0.10300183566E+01 0.  0.
     999903    2    3    3    0    0 -0.72616257231E-01  0.47345456040E-01 -0.10049484396E+00  0.14025426387E+00  0.45357820163E-01 0.  0.
         14    1    1    2    0    0  0.80996414698E-03 -0.12905075975E-01 -0.48750704358E-02  0.13818948571E-01  0.00000000000E+00 0.  1.
     999901    1    3    3    0    0  0.71806293084E-01 -0.34440380065E-01  0.10536991439E+00  0.88985678756E+00  0.88000000000E+00 0.  1.
        -11    1    4    4    0    0 -0.49556225621E-01  0.37846496563E-01 -0.38143972791E-01  0.73098567573E-01  0.51100000000E-03 0.  1.
         11    1    4    4    0    0 -0.23060031610E-01  0.94989594767E-02 -0.62350871167E-01  0.67155696298E-01  0.51100000000E-03 0. -1.
</event>
<event>
 7    1  0.2959109E+004  0.1043930E+01  0.7957747E-01            NaN
         13   -1    0    0    0    0  0.00000000000E+00  0.00000000000E+00  0.74505805969E-08  0.10566000000E+00  0.10566000000E+00 0.  1.
     999900   -1    0    0    0    0 -0.00000000000E+00 -0.00000000000E+00 -0.74505805969E-08  0.93827000000E+00  0.93827000000E+00 0.  1.
     999902    2    1    2    0    0 -0.66274231765E-02  0.66003723842E-02  0.96300544110E-02  0.10305051871E+01  0.10304177381E+01 0.  0.
         14    1    1    2    0    0  0.66274231765E-02 -0.66003723842E-02 -0.96300544110E-02  0.13424812905E-01  0.00000000000E+00 0. -1.
     999901    1    3    3    0    0  0.22228976822E-01 -0.10201706756E+00 -0.47033737243E-01  0.88741973266E+00  0.88000000000E+00 0.  1.
        -11    1    3    3    0    0 -0.18320940626E-02  0.35388661200E-01 -0.13699019376E-01  0.37995238689E-01  0.51100000000E-03 0. -1.
         11    1    3    3    0    0 -0.27024305936E-01  0.73228778743E-01  0.70362811030E-01  0.10509021574E+00  0.51100000000E-03 0.  1.
</event>
<event>
 8    1  0.2959109E+004  0.1043930E+01  0.7957747E-01            NaN
         13   -1    0    0    0    0  0.00000000000E+00  0.00000000000E+00  0.74505805969E-08  0.10566000000E+00  0.10566000000E+00 0.  1.
     999900   -1    0    0    0    0 -0.00000000000E+00 -0.00000000000E+00 -0.74505805969E-08  0.93827000000E+00  0.93827000000E+00 0. -1.
     999902    2    1    2    0    0 -0.11189145201E-01 -0.55306661196E-02  0.76238488833E-02  0.10293043954E+01  0.10292004810E+01 0.  0.
     999903    2    3    3    0    0 -0.83877586760E-01  0.10180595249E+00 -0.91967720822E-02  0.13964845487E+00  0.44913347770E-01 0.  0.
         14    1    1    2    0    0  0.11189145201E-01  0.55306661196E-02 -0.76238488833E-02  0.14625604598E-01  0.00000000000E+00 0. -1.
     999901    1    3    3    0    0  0.72688441559E-01 -0.10733661861E+00  0.16820620966E-01  0.88965594053E+00  0.88000000000E+00 0.  1.
        -11    1    4    4    0    0 -0.17225656401E-01  0.50903613113E-01 -0.14344046302E-01  0.55622961551E-01  0.51100000000E-03 0.  1.
         11    1    4    4    0    0 -0.66651930360E-01  0.50902339378E-01  0.51472742199E-02  0.84025493320E-01  0.51100000000E-03 0. -1.
</event>
<event>
 8    1  0.2959109E+004  0.1043930E+01  0.7957747E-01            NaN
         13   -1    0    0    0    0  0.00000000000E+00  0.00000000000E+00  0.74505805969E-08  0.10566000000E+00  0.10566000000E+00 0. -1.
     999900   -1    0    0    0    0 -0.00000000000E+00 -0.00000000000E+00 -0.74505805969E-08  0.93827000000E+00  0.93827000000E+00 0. -1.
     999902    2    1    2    0    0 -0.89271696766E-02  0.95311052340E-02  0.61132212985E-02  0.10295109917E+01  0.10294100127E+01 0.  0.
     999903    2    3    3    0    0 -0.12313142734E+00  0.28959537957E-01  0.43204146937E-01  0.14114405557E+00  0.45332580697E-01 0.  0.
         14    1    1    2    0    0  0.89271696766E-02 -0.95311052340E-02 -0.61132212985E-02  0.14419008290E-01  0.00000000000E+00 0.  1.
     999901    1    3    3    0    0  0.11420425766E+00 -0.19428432723E-01 -0.37090925639E-01  0.88836693614E+00  0.88000000000E+00 0. -1.
        -11    1    4    4    0    0 -0.23534768429E-01 -0.23429444109E-02 -0.78541596757E-02  0.24926364731E-01  0.51100000000E-03 0.  1.
         11    1    4    4    0    0 -0.99596658909E-01  0.31302482367E-01  0.51058306613E-01  0.11621769084E+00  0.51100000000E-03 0. -1.
</event>
<event>
 8    1  0.2959109E+004  0.1043930E+01  0.7957747E-01            NaN
         13   -1    0    0    0    0  0.00000000000E+00  0.00000000000E+00  0.74505805969E-08  0.10566000000E+00  0.10566000000E+00 0.  1.
     999900   -1    0    0    0    0 -0.00000000000E+00 -0.00000000000E+00 -0.74505805969E-08  0.93827000000E+00  0.93827000000E+00 0. -1.
     999902    2    1    2    0    0 -0.92941330843E-02 -0.12307924930E-01 -0.55542202442E-02  0.10275374624E+01  0.10274066972E+01 0.  0.
     999903    2    3    3    0    0  0.10876021290E+00  0.19735798895E-01  0.65220754266E-01  0.13626156470E+00  0.45773153256E-01 0.  0.
         14    1    1    2    0    0  0.92941330843E-02  0.12307924930E-01  0.55542202442E-02  0.16392537582E-01  0.00000000000E+00 0.  1.
     999901    1    3    3    0    0 -0.11805434598E+00 -0.32043723824E-01 -0.70774974510E-01  0.89127589772E+00  0.88000000000E+00 0. -1.
        -11    1    4    4    0    0  0.85687543760E-01  0.86442895200E-02  0.27000898805E-01  0.90257346262E-01  0.51100000000E-03 0.  1.
         11    1    4    4    0    0  0.23072669138E-01  0.11091509375E-01  0.38219855461E-01  0.46004218435E-01  0.51100000000E-03 0. -1.
</event>
<event>
 8    1  0.2959109E+004  0.1043930E+01  0.7957747E-01            NaN
         13   -1    0    0    0    0  0.00000000000E+00  0.00000000000E+00  0.74505805969E-08  0.10566000000E+00  0.10566000000E+00 0.  1.
     999900   -1    0    0    0    0 -0.00000000000E+00 -0.00000000000E+00 -0.74505805969E-08  0.93827000000E+00  0.93827000000E+00 0. -1.
     999902    2    1    2    0    0 -0.53662993821E-02 -0.28757102127E-02 -0.12876325556E-01  0.10296868740E+01  0.10295883604E+01 0.  0.
     999903    2    3    3    0    0 -0.83465649999E-01 -0.66434694546E-01 -0.80961403880E-01  0.14133174741E+00  0.45164483155E-01 0.  0.
         14    1    1    2    0    0  0.53662993821E-02  0.28757102127E-02  0.12876325556E-01  0.14243125995E-01  0.00000000000E+00 0.  1.
     999901    1    3    3    0    0  0.78099350617E-01  0.63558984333E-01  0.68085078324E-01  0.88835512659E+00  0.88000000000E+00 0.  1.
        -11    1    4    4    0    0 -0.14663070662E-01 -0.39160610704E-01 -0.30225305060E-01  0.51598345506E-01  0.51100000000E-03 0.  1.
         11    1    4    4    0    0 -0.68802579337E-01 -0.27274083841E-01 -0.50736098820E-01  0.89733401904E-01  0.51100000000E-03 0. -1.
</event>
<event>
 8    1  0.2959109E+004  0.1043930E+01  0.7957747E-01            NaN
         13   -1    0    0    0    0  0.00000000000E+00  0.00000000000E+00  0.74505805969E-08  0.10566000000E+00  0.10566000000E+00 0. -1.
     999900   -1    0    0    0    0 -0.00000000000E+00 -0.00000000000E+00 -0.74505805969E-08  0.93827000000E+00  0.93827000000E+00 0.  1.
     999902    2    1    2    0    0 -0.39834038392E-02  0.13329305225E-01  0.56111714773E-02  0.10289292290E+01  0.10288198750E+01 0.  0.
     999903    2    3    3    0    0  0.68842062249E-01 -0.10069317344E+00  0.45579879334E-01  0.13769291259E+00  0.44760116919E-01 0.  0.
         14    1    1    2    0    0  0.39834038392E-02 -0.13329305225E-01 -0.56111714773E-02  0.15000770956E-01  0.00000000000E+00 0.  1.
     999901    1    3    3    0    0 -0.72825466088E-01  0.11402247866E+00 -0.39968707857E-01  0.89123631645E+00  0.88000000000E+00 0.  1.
        -11    1    4    4    0    0  0.45993911723E-01 -0.91623966102E-01  0.24746293460E-01  0.10546578232E+00  0.51100000000E-03 0.  1.
         11    1    4    4    0    0  0.22848150526E-01 -0.90692073369E-02  0.20833585874E-01  0.32227130272E-01  0.51100000000E-03 0. -1.
</event>
<event>
 8    1  0.2959109E+004  0.1043930E+01  0.7957747E-01            NaN
         13   -1    0    0    0    0  0.00000000000E+00  0.00000000000E+00  0.74505805969E-08  0.10566000000E+00  0.10566000000E+00 0.  1.
     999900   -1    0    0    0    0 -0.00000000000E+00 -0.00000000000E+00 -0.74505805969E-08  0.93827000000E+00  0.93827000000E+00 0.  1.
     999902    2    1    2    0    0  0.13078019069E-01 -0.12560955713E-02  0.91348222866E-02  0.10279282083E+01  0.10278036506E+01 0.  0.
     999903    2    3    3    0    0 -0.54855408943E-01 -0.14283661634E-01 -0.11551520633E+00  0.13645622460E+00  0.45424656936E-01 0.  0.
         14    1    1    2    0    0 -0.13078019069E-01  0.12560955713E-02 -0.91348222866E-02  0.16001791683E-01  0.00000000000E+00 0.  1.
     999901    1    3    3    0    0  0.67933428011E-01  0.13027566062E-01  0.12465002862E+00  0.89147198372E+00  0.88000000000E+00 0. -1.
        -11    1    4    4    0    0 -0.61323381117E-01 -0.10139042647E-01 -0.11177801133E+00  0.12789817119E+00  0.51100000000E-03 0.  1.
         11    1    4    4    0    0  0.64679721745E-02 -0.41446189869E-02 -0.37371950080E-02  0.85580534074E-02  0.51100000000E-03 0. -1.
</event>
<event>
 8    1  0.2959109E+004  0.1043930E+01  0.7957747E-01            NaN
         13   -1    0    0    0    0  0.00000000000E+00  0.00000000000E+00  0.74505805969E-08  0.10566000000E+00  0.10566000000E+00 0.  1.
     999900   -1    0    0    0    0 -0.00000000000E+00 -0.00000000000E+00 -0.74505805969E-08  0.93827000000E+00  0.93827000000E+00 0.  1.
     999902    2    1    2    0    0 -0.24490760176E-02  0.42094843309E-02  0.12668577524E-01  0.10303575799E+01  0.10302681844E+01 0.  0.
     999903    2    3    3    0    0 -0.85117890172E-01  0.10127543775E+00  0.19114704739E-01  0.14114585891E+00  0.45332240527E-01 0.  0.
         14    1    1    2    0    0  0.24490760176E-02 -0.42094843309E-02 -0.12668577524E-01  0.13572420129E-01  0.00000000000E+00 0. -1.
     999901    1    3    3    0    0  0.82668814154E-01 -0.97065953414E-01 -0.64461272146E-02  0.88921172097E+00  0.88000000000E+00 0. -1.
        -11    1    4    4    0    0 -0.25074249923E-01  0.38702197662E-01 -0.14183988950E-01  0.48249609082E-01  0.51100000000E-03 0.  1.
         11    1    4    4    0    0 -0.60043640248E-01  0.62573240083E-01  0.33298693689E-01  0.92896249823E-01  0.51100000000E-03 0. -1.
</event>
<event>
 8    1  0.2959109E+004  0.1043930E+01  0.7957747E-01            NaN
         13   -1    0    0    0    0  0.00000000000E+00  0.00000000000E+00  0.74505805969E-08  0.10566000000E+00  0.10566000000E+00 0. -1.
     999900   -1    0    0    0    0 -0.00000000000E+00 -0.00000000000E+00 -0.74505805969E-08  0.93827000000E+00  0.93827000000E+00 0. -1.
     999902    2    1    2    0    0 -0.98383778294E-02 -0.29138514451E-02 -0.92710177502E-02  0.10301011903E+01  0.10300083622E+01 0.  0.
     999903    2    3    3    0    0  0.10203728618E+00  0.68127612329E-01 -0.48304679079E-01  0.13932249694E+00  0.44993741775E-01 0.  0.
         14    1    1    2    0    0  0.98383778294E-02  0.29138514451E-02  0.92710177502E-02  0.13828809735E-01  0.00000000000E+00 0. -1.
     999901    1    3    3    0    0 -0.11187566401E+00 -0.71041463774E-01  0.39033661329E-01  0.89077869333E+00  0.88000000000E+00 0.  1.
        -11    1    4    4    0    0  0.39742012360E-01  0.53389044256E-01 -0.27408671417E-01  0.71981344686E-01  0.51100000000E-03 0. -1.
         11    1    4    4    0    0  0.62295273819E-01  0.14738568073E-01 -0.20896007662E-01  0.67341152250E-01  0.51100000000E-03 0.  1.
</event>
<event>
 8    1  0.2959109E+004  0.1043930E+01  0.7957747E-01            NaN
         13   -1    0    0    0    0  0.00000000000E+00  0.00000000000E+00  0.74505805969E-08  0.10566000000E+00  0.10566000000E+00 0. -1.
     999900   -1    0    0    0    0 -0.00000000000E+00 -0.00000000000E+00 -0.74505805969E-08  0.93827000000E+00  0.93827000000E+00 0. -1.
     999902    2    1    2    0    0  0.10282845425E-01  0.38317701964E-02 -0.84637316814E-02  0.10300716405E+01  0.10299784126E+01 0.  0.
     999903    2    3    3    0    0  0.11555169657E+00 -0.65738770904E-01 -0.15039480945E-01  0.14104698864E+00  0.44657434295E-01 0.  0.
         14    1    1    2    0    0 -0.10282845425E-01 -0.38317701964E-02  0.84637316814E-02  0.13858359457E-01  0.00000000000E+00 0.  1.
     999901    1    3    3    0    0 -0.10526885114E+00  0.69570541101E-01  0.65757492640E-02  0.88902465190E+00  0.88000000000E+00 0. -1.
        -11    1    4    4    0    0  0.28562970822E-01  0.38306771704E-02 -0.43116370853E-02  0.29143931188E-01  0.51100000000E-03 0. -1.
         11    1    4    4    0    0  0.86988725747E-01 -0.69569448075E-01 -0.10727843860E-01  0.11190305745E+00  0.51100000000E-03 0.  1.
</event>
<event>
 8    1  0.2959109E+004  0.1043930E+01  0.7957747E-01            NaN
         13   -1    0    0    0    0  0.00000000000E+00  0.00000000000E+00  0.74505805969E-08  0.10566000000E+00  0.10566000000E+00 0. -1.
     999900   -1    0    0    0    0 -0.00000000000E+00 -0.00000000000E+00 -0.74505805969E-08  0.93827000000E+00  0.93827000000E+00 0. -1.
     999902    2    1    2    0    0 -0.66111165740E-02 -0.12328463176E-01  0.62024750437E-03  0.10299270513E+01  0.10298318544E+01 0.  0.
     999903    2    3    3    0    0 -0.12641871685E+00 -0.21993116796E-01  0.36867642035E-01  0.14101696569E+00  0.45400136846E-01 0.  0.
         14    1    1    2    0    0  0.66111165740E-02  0.12328463176E-01 -0.62024750437E-03  0.14002948746E-01  0.00000000000E+00 0.  1.
     999901    1    3    3    0    0  0.11980760028E+00  0.96646536202E-02 -0.36247394531E-01  0.88891008557E+00  0.88000000000E+00 0. -1.
        -11    1    4    4    0    0 -0.62635772243E-01 -0.30141239636E-01  0.62396644176E-02  0.69792039835E-01  0.51100000000E-03 0. -1.
         11    1    4    4    0    0 -0.63782944607E-01  0.81481228402E-02  0.30627977618E-01  0.71224925851E-01  0.51100000000E-03 0.  1.
</event>
<event>
 8    1  0.2959109E+004  0.1043930E+01  0.7957747E-01            NaN
         13   -1    0    0    0    0  0.00000000000E+00  0.00000000000E+00  0.74505805969E-08  0.10566000000E+00  0.10566000000E+00 0. -1.
     999900   -1    0    0    0    0 -0.00000000000E+00 -0.00000000000E+00 -0.74505805969E-08  0.93827000000E+00  0.93827000000E+00 0. -1.
     999902    2    1    2    0    0  0.32554385293E-02 -0.10612093232E-01  0.87506104172E-02  0.10297953764E+01  0.10296983683E+01 0.  0.
     999903    2    3    3    0    0 -0.74132030322E-01 -0.37981099210E-01 -0.10301785169E+00  0.13893620009E+00  0.41862490509E-01 0.  0.
         14    1    1    2    0    0 -0.32554385293E-02  0.10612093232E-01 -0.87506104172E-02  0.14134623640E-01  0.00000000000E+00 0. -1.
     999901    1    3    3    0    0  0.77387468851E-01  0.27369005978E-01  0.11176846211E+00  0.89085917627E+00  0.88000000000E+00 0.  1.
        -11    1    4    4    0    0 -0.17733784073E-01  0.38790115802E-02 -0.42521811185E-01  0.46237423976E-01  0.51100000000E-03 0.  1.
         11    1    4    4    0    0 -0.56398246248E-01 -0.41860110790E-01 -0.60496040505E-01  0.92698776114E-01  0.51100000000E-03 0. -1.
</event>
<event>
 8    1  0.2959109E+004  0.1043930E+01  0.7957747E-01            NaN
         13   -1    0    0    0    0  0.00000000000E+00  0.00000000000E+00  0.74505805969E-08  0.10566000000E+00  0.10566000000E+00 0. -1.
     999900   -1    0    0    0    0 -0.00000000000E+00 -0.00000000000E+00 -0.74505805969E-08  0.93827000000E+00  0.93827000000E+00 0.  1.
     999902    2    1    2    0    0 -0.75191887468E-02 -0.12345534743E-01 -0.16516462362E-02  0.10293808295E+01  0.10292780061E+01 0.  0.
     999903    2    3    3    0    0  0.72016953741E-01 -0.11106010981E+00 -0.11607509217E-01  0.14024097293E+00  0.44855396578E-01 0.  0.
         14    1    1    2    0    0  0.75191887468E-02  0.12345534743E-01  0.16516462362E-02  0.14549170519E-01  0.00000000000E+00 0. -1.
     999901    1    3    3    0    0 -0.79536142487E-01  0.98714575067E-01  0.99558629811E-02  0.88913985655E+00  0.88000000000E+00 0.  1.
        -11    1    4    4    0    0  0.66487598661E-01 -0.73548796434E-01 -0.20609154367E-01  0.10126709533E+00  0.51100000000E-03 0. -1.
         11    1    4    4    0    0  0.55293550799E-02 -0.37511313377E-01  0.90016451502E-02  0.38973877601E-01  0.51100000000E-03 0.  1.
</event>
<event>
 8    1  0.2959109E+004  0.1043930E+01  0.7957747E-01            NaN
         13   -1    0    0    0    0  0.00000000000E+00  0.00000000000E+00  0.74505805969E-08  0.10566000000E+00  0.10566000000E+00 0.  1.
     999900   -1    0    0    0    0 -0.00000000000E+00 -0.00000000000E+00 -0.74505805969E-08  0.93827000000E+00  0.93827000000E+00 0.  1.
     999902    2    1    2    0    0  0.94501115068E-02  0.53279190349E-02 -0.88473179740E-02  0.10299312013E+01  0.10298360613E+01 0.  0.
     999903    2    3    3    0    0  0.92616704098E-01  0.94774655675E-01 -0.19483732568E-01  0.14143216693E+00  0.45424143054E-01 0.  0.
         14    1    1    2    0    0 -0.94501115068E-02 -0.53279190349E-02  0.88473179740E-02  0.13998798665E-01  0.00000000000E+00 0.  1.
     999901    1    3    3    0    0 -0.83166592591E-01 -0.89446736640E-01  0.10636414594E-01  0.88849903440E+00  0.88000000000E+00 0.  1.
        -11    1    4    4    0    0  0.14134086788E-01  0.31999867454E-01  0.10545337006E-01  0.36540787895E-01  0.51100000000E-03 0.  1.
         11    1    4    4    0    0  0.78482617309E-01  0.62774788221E-01 -0.30029069573E-01  0.10489137904E+00  0.51100000000E-03 0. -1.
</event>
<event>
 8    1  0.2959109E+004  0.1043930E+01  0.7957747E-01            NaN
         13   -1    0    0    0    0  0.00000000000E+00  0.00000000000E+00  0.74505805969E-08  0.10566000000E+00  0.10566000000E+00 0.  1.
     999900   -1    0    0    0    0 -0.00000000000E+00 -0.00000000000E+00 -0.74505805969E-08  0.93827000000E+00  0.93827000000E+00 0.  1.
     999902    2    1    2    0    0 -0.13143796562E-01 -0.18422273788E-02  0.64405652754E-02  0.10291775741E+01  0.10290718366E+01 0.  0.
     999903    2    3    3    0    0 -0.32600845330E-01  0.91362996547E-01  0.91016245056E-01  0.14001007797E+00  0.43690420162E-01 0.  0.
         14    1    1    2    0    0  0.13143796562E-01  0.18422273788E-02 -0.64405652754E-02  0.14752425931E-01  0.00000000000E+00 0. -1.
     999901    1    3    3    0    0  0.19457048768E-01 -0.93205223926E-01 -0.84575679781E-01  0.88916749610E+00  0.88000000000E+00 0.  1.
        -11    1    4    4    0    0 -0.18537829243E-01  0.50574258383E-01  0.21101454954E-01  0.57852737586E-01  0.51100000000E-03 0.  1.
         11    1    4    4    0    0 -0.14063016086E-01  0.40788738164E-01  0.69914790102E-01  0.82157340381E-01  0.51100000000E-03 0. -1.
</event>
<event>
 8    1  0.2959109E+004  0.1043930E+01  0.7957747E-01            NaN
         13   -1    0    0    0    0  0.00000000000E+00  0.00000000000E+00  0.74505805969E-08  0.10566000000E+00  0.10566000000E+00 0. -1.
     999900   -1    0    0    0    0 -0.00000000000E+00 -0.00000000000E+00 -0.74505805969E-08  0.93827000000E+00  0.93827000000E+00 0. -1.
     999902    2    1    2    0    0  0.63744907086E-02  0.12447549737E-01  0.18834062477E-02  0.10298189106E+01  0.10297222274E+01 0.  0.
     999903    2    3    3    0    0 -0.11483164955E+00  0.98593857276E-02  0.64197575477E-01  0.13932428243E+00  0.44792987772E-01 0.  0.
         14    1    1    2    0    0 -0.63744907086E-02 -0.12447549737E-01 -0.18834062477E-02  0.14111089446E-01  0.00000000000E+00 0. -1.
     999901    1    3    3    0    0  0.12120614025E+00  0.25881640098E-02 -0.62314169229E-01  0.89049462812E+00  0.88000000000E+00 0. -1.
        -11    1    4    4    0    0 -0.11615882700E+00  0.43191323239E-02  0.55244905352E-01  0.12870038338E+00  0.51100000000E-03 0. -1.
         11    1    4    4    0    0  0.13271774496E-02  0.55402534036E-02  0.89526701244E-02  0.10623899054E-01  0.51100000000E-03 0.  1.
</event>
<event>
 8    1  0.2959109E+004  0.1043930E+01  0.7957747E-01            NaN
         13   -1    0    0    0    0  0.00000000000E+00  0.00000000000E+00  0.74505805969E-08  0.10566000000E+00  0.10566000000E+00 0. -1.
     999900   -1    0    0    0    0 -0.00000000000E+00 -0.00000000000E+00 -0.74505805969E-08  0.93827000000E+00  0.93827000000E+00 0. -1.
     999902    2    1    2    0    0 -0.14434270912E-01 -0.31590107759E-02  0.31243280753E-02  0.10288273859E+01  0.10287165310E+01 0.  0.
     999903    2    3    3    0    0 -0.45107649312E-01  0.68736623940E-01 -0.10176249331E+00  0.13915829928E+00  0.47434204077E-01 0.  0.
         14    1    1    2    0    0  0.14434270912E-01  0.31590107759E-02 -0.31243280753E-02  0.15102614071E-01  0.00000000000E+00 0. -1.
     999901    1    3    3    0    0  0.30673378399E-01 -0.71895634716E-01  0.10488682139E+00  0.88966908665E+00  0.88000000000E+00 0.  1.
        -11    1    4    4    0    0 -0.31150899584E-01  0.53730541488E-01 -0.39495647967E-01  0.73603783617E-01  0.51100000000E-03 0. -1.
         11    1    4    4    0    0 -0.13956749728E-01  0.15006082453E-01 -0.62266845348E-01  0.65554515665E-01  0.51100000000E-03 0.  1.
</event>
<event>
 8    1  0.2959109E+004  0.1043930E+01  0.7957747E-01            NaN
         13   -1    0    0    0    0  0.00000000000E+00  0.00000000000E+00  0.74505805969E-08  0.10566000000E+00  0.10566000000E+00 0. -1.
     999900   -1    0    0    0    0 -0.00000000000E+00 -0.00000000000E+00 -0.74505805969E-08  0.93827000000E+00  0.93827000000E+00 0.  1.
     999902    2    1    2    0    0  0.14370919641E-01 -0.12163255824E-02  0.45387481234E-02  0.10288103765E+01  0.10286992699E+01 0.  0.
     999903    2    3    3    0    0 -0.58856406106E-01 -0.11209670749E-01 -0.11553871138E+00  0.13758610371E+00  0.44620722208E-01 0.  0.
         14    1    1    2    0    0 -0.14370919641E-01  0.12163255824E-02 -0.45387481234E-02  0.15119623467E-01  0.00000000000E+00 0.  1.
     999901    1    3    3    0    0  0.73227325747E-01  0.99933451664E-02  0.12007745950E+00  0.89122427282E+00  0.88000000000E+00 0.  1.
        -11    1    4    4    0    0 -0.17843613306E-02 -0.12527644913E-01 -0.45489907094E-01  0.47219896239E-01  0.51100000000E-03 0.  1.
         11    1    4    4    0    0 -0.57072044776E-01  0.13179741644E-02 -0.70048804283E-01  0.90366207474E-01  0.51100000000E-03 0. -1.
</event>
<event>
 8    1  0.2959109E+004  0.1043930E+01  0.7957747E-01            NaN
         13   -1    0    0    0    0  0.00000000000E+00  0.00000000000E+00  0.74505805969E-08  0.10566000000E+00  0.10566000000E+00 0.  1.
     999900   -1    0    0    0    0 -0.00000000000E+00 -0.00000000000E+00 -0.74505805969E-08  0.93827000000E+00  0.93827000000E+00 0.  1.
     999902    2    1    2    0    0 -0.12736119843E-01 -0.43128192006E-02 -0.25658846025E-02  0.10302408466E+01  0.10301498964E+01 0.  0.
     999903    2    3    3    0    0 -0.51325291690E-02 -0.16079145045E-01  0.13190940791E+00  0.13991513913E+00  0.43488762934E-01 0.  0.
         14    1    1    2    0    0  0.12736119843E-01  0.43128192006E-02  0.25658846025E-02  0.13689153440E-01  0.00000000000E+00 0.  1.
     999901    1    3    3    0    0 -0.76035906739E-02  0.11766325845E-01 -0.13447529251E+00  0.89032570743E+00  0.88000000000E+00 0.  1.
        -11    1    4    4    0    0 -0.80248872482E-02 -0.24136672045E-01  0.12797551613E+00  0.13047977469E+00  0.51100000000E-03 0.  1.
         11    1    4    4    0    0  0.28923580792E-02  0.80575269996E-02  0.39338917784E-02  0.94353644409E-02  0.51100000000E-03 0. -1.
</event>
<event>
 8    1  0.2959109E+004  0.1043930E+01  0.7957747E-01            NaN
         13   -1    0    0    0    0  0.00000000000E+00  0.00000000000E+00  0.74505805969E-08  0.10566000000E+00  0.10566000000E+00 0.  1.
     999900   -1    0    0    0    0 -0.00000000000E+00 -0.00000000000E+00 -0.74505805969E-08  0.93827000000E+00  0.93827000000E+00 0.  1.
     999902    2    1    2    0    0 -0.72714459201E-02  0.96809605975E-02 -0.73298423246E-02  0.10297765018E+01  0.10296792326E+01 0.  0.
     999903    2    3    3    0    0  0.62931706532E-01 -0.43038518819E-01  0.10599720234E+00  0.13817634184E+00  0.45217040501E-01 0.  0.
         14    1    1    2    0    0  0.72714459201E-02 -0.96809605975E-02  0.73298423246E-02  0.14153498238E-01  0.00000000000E+00 0.  1.
     999901    1    3    3    0    0 -0.70203152452E-01  0.52719479416E-01 -0.11332704466E+00  0.89160015992E+00  0.88000000000E+00 0.  1.
        -11    1    4    4    0    0  0.21203767259E-01  0.67320757652E-02  0.38744978102E-01  0.44680589065E-01  0.51100000000E-03 0.  1.
         11    1    4    4    0    0  0.41727939272E-01 -0.49770594584E-01  0.67252224235E-01  0.93495752774E-01  0.51100000000E-03 0. -1.
</event>
<event>
 8    1  0.2959109E+004  0.1043930E+01  0.7957747E-01            NaN
         13   -1    0    0    0    0  0.00000000000E+00  0.00000000000E+00  0.74505805969E-08  0.10566000000E+00  0.10566000000E+00 0.  1.
     999900   -1    0    0    0    0 -0.00000000000E+00 -0.00000000000E+00 -0.74505805969E-08  0.93827000000E+00  0.93827000000E+00 0. -1.
     999902    2    1    2    0    0 -0.33782522129E-02  0.83701787252E-02  0.13189923968E-01  0.10279473039E+01  0.10278230456E+01 0.  0.
     999903    2    3    3    0    0 -0.11219103722E+00 -0.16915337951E-01  0.65841565847E-01  0.13932377568E+00  0.46936608168E-01 0.  0.
         14    1    1    2    0    0  0.33782522129E-02 -0.83701787252E-02 -0.13189923968E-01  0.15982696086E-01  0.00000000000E+00 0. -1.
     999901    1    3    3    0    0  0.10881278501E+00  0.25285516676E-01 -0.52651641879E-01  0.88862352823E+00  0.88000000000E+00 0.  1.
        -11    1    4    4    0    0 -0.31353605018E-01 -0.78603603360E-02  0.44899178848E-01  0.55326586687E-01  0.51100000000E-03 0. -1.
         11    1    4    4    0    0 -0.80837432203E-01 -0.90549776148E-02  0.20942387000E-01  0.83997188995E-01  0.51100000000E-03 0.  1.
</event>
<event>
 8    1  0.2959109E+004  0.1043930E+01  0.7957747E-01            NaN
         13   -1    0    0    0    0  0.00000000000E+00  0.00000000000E+00  0.74505805969E-08  0.10566000000E+00  0.10566000000E+00 0. -1.
     999900   -1    0    0    0    0 -0.00000000000E+00 -0.00000000000E+00 -0.74505805969E-08  0.93827000000E+00  0.93827000000E+00 0. -1.
     999902    2    1    2    0    0  0.35959784216E-02 -0.50168576258E-02  0.12224767408E-01  0.10302352981E+01  0.10301442737E+01 0.  0.
     999903    2    3    3    0    0 -0.39119710114E-01 -0.10640424168E+00 -0.63976205360E-01  0.14011698018E+00  0.51842057408E-01 0.  0.
         14    1    1    2    0    0 -0.35959784216E-02  0.50168576258E-02 -0.12224767408E-01  0.13694701874E-01  0.00000000000E+00 0.  1.
     999901    1    3    3    0    0  0.42715688535E-01  0.10138738405E+00  0.76200972768E-01  0.89011831795E+00  0.88000000000E+00 0.  1.
        -11    1    4    4    0    0  0.10550620906E-01 -0.39273386023E-01 -0.26802013106E-01  0.48706503454E-01  0.51100000000E-03 0. -1.
         11    1    4    4    0    0 -0.49670331020E-01 -0.67130855654E-01 -0.37174192255E-01  0.91410476726E-01  0.51100000000E-03 0.  1.
</event>
<event>
 8    1  0.2959109E+004  0.1043930E+01  0.7957747E-01            NaN
         13   -1    0    0    0    0  0.00000000000E+00  0.00000000000E+00  0.74505805969E-08  0.10566000000E+00  0.10566000000E+00 0. -1.
     999900   -1    0    0    0    0 -0.00000000000E+00 -0.00000000000E+00 -0.74505805969E-08  0.93827000000E+00  0.93827000000E+00 0. -1.
     999902    2    1    2    0    0 -0.23138733660E-02  0.58456278636E-02  0.11699505052E-01  0.10306482910E+01  0.10305627084E+01 0.  0.
     999903    2    3    3    0    0  0.11146732406E+00 -0.55011267361E-01 -0.44589982782E-01  0.13945906923E+00  0.44825902745E-01 0.  0.
         14    1    1    2    0    0  0.23138733660E-02 -0.58456278636E-02 -0.11699505052E-01  0.13281708984E-01  0.00000000000E+00 0.  1.
     999901    1    3    3    0    0 -0.11378119743E+00  0.60856895224E-01  0.56289487834E-01  0.89118922178E+00  0.88000000000E+00 0.  1.
        -11    1    4    4    0    0  0.47504394291E-01 -0.16382307103E-02 -0.25693876690E-01  0.54035059889E-01  0.51100000000E-03 0. -1.
         11    1    4    4    0    0  0.63962929769E-01 -0.53373036651E-01 -0.18896106093E-01  0.85424009344E-01  0.51100000000E-03 0.  1.
</event>
<event>
 8    1  0.2959109E+004  0.1043930E+01  0.7957747E-01            NaN
         13   -1    0    0    0    0  0.00000000000E+00  0.00000000000E+00  0.74505805969E-08  0.10566000000E+00  0.10566000000E+00 0.  1.
     999900   -1    0    0    0    0 -0.00000000000E+00 -0.00000000000E+00 -0.74505805969E-08  0.93827000000E+00  0.93827000000E+00 0. -1.
     999902    2    1    2    0    0  0.13418073225E-02  0.78381378596E-02  0.84031658319E-02  0.10323606419E+01  0.10322958126E+01 0.  0.
     999903    2    3    3    0    0 -0.94845265986E-01  0.69638398848E-01 -0.64765490587E-01  0.14195350036E+00  0.45946669305E-01 0.  0.
         14    1    1    2    0    0 -0.13418073225E-02 -0.78381378596E-02 -0.84031658319E-02  0.11569358150E-01  0.00000000000E+00 0.  1.
     999901    1    3    3    0    0  0.96187073308E-01 -0.61800260988E-01  0.73168656419E-01  0.89040714149E+00  0.88000000000E+00 0. -1.
        -11    1    4    4    0    0 -0.59970223006E-01  0.15544413789E-01 -0.31684706335E-01  0.69586192481E-01  0.51100000000E-03 0. -1.
         11    1    4    4    0    0 -0.34875042980E-01  0.54093985058E-01 -0.33080784253E-01  0.72367307882E-01  0.51100000000E-03 0.  1.
</event>
<event>
 8    1  0.2959109E+004  0.1043930E+01  0.7957747E-01            NaN
         13   -1    0    0    0    0  0.00000000000E+00  0.00000000000E+00  0.74505805969E-08  0.10566000000E+00  0.10566000000E+00 0.  1.
     999900   -1    0    0    0    0 -0.00000000000E+00 -0.00000000000E+00 -0.74505805969E-08  0.93827000000E+00  0.93827000000E+00 0. -1.
     999902    2    1    2    0    0 -0.15047277576E-01  0.24241394322E-02  0.10379131325E-02  0.10286534075E+01  0.10285399645E+01 0.  0.
     999903    2    3    3    0    0 -0.57387652633E-01  0.11700017855E+00 -0.23852004923E-01  0.13986778425E+00  0.44851917191E-01 0.  0.
         14    1    1    2    0    0  0.15047277576E-01 -0.24241394322E-02 -0.10379131325E-02  0.15276592490E-01  0.00000000000E+00 0.  1.
     999901    1    3    3    0    0  0.42340375057E-01 -0.11457603912E+00  0.24889918055E-01  0.88878562326E+00  0.88000000000E+00 0. -1.
        -11    1    4    4    0    0 -0.30792204388E-01  0.99013981746E-01 -0.28213378458E-01  0.10746247846E+00  0.51100000000E-03 0.  1.
         11    1    4    4    0    0 -0.26595448245E-01  0.17986196803E-01  0.43613735349E-02  0.32405305783E-01  0.51100000000E-03 0. -1.
</event>
<event>
 8    1  0.2959109E+004  0.1043930E+01  0.7957747E-01            NaN
         13   -1    0    0    0    0  0.00000000000E+00  0.00000000000E+00  0.74505805969E-08  0.10566000000E+00  0.10566000000E+00 0. -1.
     999900   -1    0    0    0    0 -0.00000000000E+00 -0.00000000000E+00 -0.74505805969E-08  0.93827000000E+00  0.93827000000E+00 0.  1.
     999902    2    1    2    0    0 -0.29065257857E-02  0.11537027141E-01 -0.55754963541E-03  0.10320194270E+01  0.10319506945E+01 0.  0.
     999903    2    3    3    0    0  0.82907496790E-01 -0.10256249096E+00  0.13730548095E-01  0.14039905026E+00  0.46158940480E-01 0.  0.
         14    1    1    2    0    0  0.29065257857E-02 -0.11537027141E-01  0.55754963541E-03  0.11910572992E-01  0.00000000000E+00 0.  1.
     999901    1    3    3    0    0 -0.85814022576E-01  0.11409951810E+00 -0.14288097730E-01  0.89162037675E+00  0.88000000000E+00 0.  1.
        -11    1    4    4    0    0  0.61839429423E-01 -0.63232456056E-01  0.29249234809E-01  0.93157057640E-01  0.51100000000E-03 0.  1.
         11    1    4    4    0    0  0.21068067367E-01 -0.39330034904E-01 -0.15518686714E-01  0.47241992617E-01  0.51100000000E-03 0. -1.
</event>
<event>
 8    1  0.2959109E+004  0.1043930E+01  0.7957747E-01            NaN
         13   -1    0    0    0    0  0.00000000000E+00  0.00000000000E+00  0.74505805969E-08  0.10566000000E+00  0.10566000000E+00 0. -1.
     999900   -1    0    0    0    0 -0.00000000000E+00 -0.00000000000E+00 -0.74505805969E-08  0.93827000000E+00  0.93827000000E+00 0. -1.
     999902    2    1    2    0    0 -0.77738851323E-02  0.21481079088E-01  0.73604064262E-02  0.10199290494E+01  0.10196466153E+01 0.  0.
     999903    2    3    3    0    0  0.10754263774E+00 -0.47979448750E-01  0.30324181576E-01  0.12939550123E+00  0.44228874248E-01 0.  0.
         14    1    1    2    0    0  0.77738851323E-02 -0.21481079088E-01 -0.73604064262E-02  0.24000950639E-01  0.00000000000E+00 0. -1.
     999901    1    3    3    0    0 -0.11531652287E+00  0.69460527837E-01 -0.22963775150E-01  0.89053354813E+00  0.88000000000E+00 0. -1.
        -11    1    4    4    0    0  0.11998734827E-01  0.77512909556E-02 -0.12990148763E-02  0.14352724813E-01  0.51100000000E-03 0.  1.
         11    1    4    4    0    0  0.95543902909E-01 -0.55730739705E-01  0.31623196453E-01  0.11504277642E+00  0.51100000000E-03 0. -1.
</event>
<event>
 7    1  0.2959109E+004  0.1043930E+01  0.7957747E-01            NaN
         13   -1    0    0    0    0  0.00000000000E+00  0.00000000000E+00  0.74505805969E-08  0.10566000000E+00  0.10566000000E+00 0. -1.
     999900   -1    0    0    0    0 -0.00000000000E+00 -0.00000000000E+00 -0.74505805969E-08  0.93827000000E+00  0.93827000000E+00 0.  1.
     999902    2    1    2    0    0  0.10695857288E-01 -0.24157570391E-03  0.80492484344E-02  0.10305415676E+01  0.10304545950E+01 0.  0.
         14    1    1    2    0    0 -0.10695857288E-01  0.24157570391E-03 -0.80492484344E-02  0.13388432407E-01  0.00000000000E+00 0.  1.
     999901    1    3    3    0    0  0.10870438841E+00 -0.77743848139E-01  0.27741851203E-01  0.89052252093E+00  0.88000000000E+00 0.  1.
        -11    1    3    3    0    0 -0.60789476491E-01  0.54952664873E-01 -0.40921936516E-01  0.91597062387E-01  0.51100000000E-03 0.  1.
         11    1    3    3    0    0 -0.37219054627E-01  0.22549607562E-01  0.21229333748E-01  0.48421984272E-01  0.51100000000E-03 0. -1.
</event>
<event>
 8    1  0.2959109E+004  0.1043930E+01  0.7957747E-01            NaN
         13   -1    0    0    0    0  0.00000000000E+00  0.00000000000E+00  0.74505805969E-08  0.10566000000E+00  0.10566000000E+00 0. -1.
     999900   -1    0    0    0    0 -0.00000000000E+00 -0.00000000000E+00 -0.74505805969E-08  0.93827000000E+00  0.93827000000E+00 0. -1.
     999902    2    1    2    0    0  0.31043913428E-02 -0.20824556578E-02  0.13072133698E-01  0.10303338775E+01  0.10302441675E+01 0.  0.
     999903    2    3    3    0    0  0.10968296306E+00 -0.30709262007E-01  0.70943170617E-01  0.14155519702E+00  0.45072488140E-01 0.  0.
         14    1    1    2    0    0 -0.31043913428E-02  0.20824556578E-02 -0.13072133698E-01  0.13596122484E-01  0.00000000000E+00 0.  1.
     999901    1    3    3    0    0 -0.10657857172E+00  0.28626806349E-01 -0.57871036919E-01  0.88877868050E+00  0.88000000000E+00 0. -1.
        -11    1    4    4    0    0  0.86871693898E-01 -0.22631629260E-01  0.31234973960E-01  0.95051389063E-01  0.51100000000E-03 0.  1.
         11    1    4    4    0    0  0.22811269163E-01 -0.80776327472E-02  0.39708196657E-01  0.46503807956E-01  0.51100000000E-03 0. -1.
</event>
<event>
 8    1  0.2959109E+004  0.1043930E+01  0.7957747E-01            NaN
         13   -1    0    0    0    0  0.00000000000E+00  0.00000000000E+00  0.74505805969E-08  0.10566000000E+00  0.10566000000E+00 0.  1.
     999900   -1    0    0    0    0 -0.00000000000E+00 -0.00000000000E+00 -0.74505805969E-08  0.93827000000E+00  0.93827000000E+00 0. -1.
     999902    2    1    2    0    0  0.99839938983E-02  0.62142732543E-02 -0.59048958190E-02  0.10307707781E+01  0.10306867768E+01 0.  0.
     999903    2    3    3    0    0 -0.13904723221E-02  0.27101441197E-01  0.12988678668E+00  0.14003791506E+00  0.44761800386E-01 0.  0.
         14    1    1    2    0    0 -0.99839938983E-02 -0.62142732543E-02  0.59048958190E-02  0.13159221895E-01  0.00000000000E+00 0.  1.
     999901    1    3    3    0    0  0.11374466220E-01 -0.20887167943E-01 -0.13579168250E+00  0.89073286304E+00  0.88000000000E+00 0. -1.
        -11    1    4    4    0    0  0.14558920136E-01 -0.31340939975E-02  0.65102105985E-01  0.66785702253E-01  0.51100000000E-03 0. -1.
         11    1    4    4    0    0 -0.15949392458E-01  0.30235535195E-01  0.64784680693E-01  0.73252212811E-01  0.51100000000E-03 0.  1.
</event>
