<event>
 8    1  0.1993226E+004  0.1043930E+01  0.7957747E-01            NaN
         13   -1    0    0    0    0  0.00000000000E+00  0.00000000000E+00  0.74505805969E-08  0.10566000000E+00  0.10566000000E+00 0.  1.
     999900   -1    0    0    0    0 -0.00000000000E+00 -0.00000000000E+00 -0.74505805969E-08  0.93827000000E+00  0.93827000000E+00 0.  1.
     999902    2    1    2    0    0  0.13402571783E-01 -0.25706450413E-02 -0.68818165616E-03  0.10302657861E+01  0.10301751693E+01 0.  0.
     999903    2    3    3    0    0 -0.11062669561E+00 -0.71457565225E-01  0.30376780140E-02  0.13889462385E+00  0.44023171588E-01 0.  0.
         14    1    1    2    0    0 -0.13402571783E-01  0.25706450413E-02  0.68818165616E-03  0.13664213856E-01  0.00000000000E+00 0. -1.
     999901    1    3    3    0    0  0.12402926739E+00  0.68886920183E-01 -0.37258596701E-02  0.89137116230E+00  0.88000000000E+00 0. -1.
        -11    1    4    4    0    0 -0.59803545260E-01 -0.32744600126E-01 -0.19874069090E-01  0.71020508350E-01  0.51100000000E-03 0. -1.
         11    1    4    4    0    0 -0.50823150350E-01 -0.38712965099E-01  0.22911747104E-01  0.67874115498E-01  0.51100000000E-03 0.  1.
</event>
<event>
 8    1  0.1993226E+004  0.1043930E+01  0.7957747E-01            NaN
         13   -1    0    0    0    0  0.00000000000E+00  0.00000000000E+00  0.74505805969E-08  0.10566000000E+00  0.10566000000E+00 0.  1.
     999900   -1    0    0    0    0 -0.00000000000E+00 -0.00000000000E+00 -0.74505805969E-08  0.93827000000E+00  0.93827000000E+00 0.  1.
     999902    2    1    2    0    0 -0.70960957595E-02 -0.34378882727E-02  0.78732059437E-02  0.10327872435E+01  0.10327271321E+01 0.  0.
     999903    2    3    3    0    0 -0.52358870091E-02  0.71452019594E-01 -0.11390564968E+00  0.14124809777E+00  0.42938589615E-01 0.  0.
         14    1    1    2    0    0  0.70960957595E-02  0.34378882727E-02 -0.78732059437E-02  0.11142756510E-01  0.00000000000E+00 0. -1.
     999901    1    3    3    0    0 -0.18602087504E-02 -0.74889907866E-01  0.12177885562E+00  0.89153914572E+00  0.88000000000E+00 0. -1.
        -11    1    4    4    0    0 -0.26407597341E-02  0.73765159989E-01 -0.86914618798E-01  0.11402931431E+00  0.51100000000E-03 0.  1.
         11    1    4    4    0    0 -0.25951272750E-02 -0.23131403951E-02 -0.26991030880E-01  0.27218783460E-01  0.51100000000E-03 0. -1.
</event>
<event>
 8    1  0.1993226E+004  0.1043930E+01  0.7957747E-01            NaN
         13   -1    0    0    0    0  0.00000000000E+00  0.00000000000E+00  0.74505805969E-08  0.10566000000E+00  0.10566000000E+00 0. -1.
     999900   -1    0    0    0    0 -0.00000000000E+00 -0.00000000000E+00 -0.74505805969E-08  0.93827000000E+00  0.93827000000E+00 0. -1.
     999902    2    1    2    0    0  0.63164361967E-02  0.11395508850E-01  0.51270521490E-02  0.10299285125E+01  0.10298333357E+01 0.  0.
     999903    2    3    3    0    0  0.12915491276E+00  0.16731399830E-01  0.30137098015E-01  0.14102848132E+00  0.44942815166E-01 0.  0.
         14    1    1    2    0    0 -0.63164361967E-02 -0.11395508850E-01 -0.51270521490E-02  0.14001487489E-01  0.00000000000E+00 0.  1.
     999901    1    3    3    0    0 -0.12283847657E+00 -0.53358909806E-02 -0.25010045866E-01  0.88890003119E+00  0.88000000000E+00 0.  1.
        -11    1    4    4    0    0  0.75328741057E-01 -0.10493635397E-01  0.68423775044E-02  0.76365010732E-01  0.51100000000E-03 0.  1.
         11    1    4    4    0    0  0.53826171707E-01  0.27225035227E-01  0.23294720511E-01  0.64663470588E-01  0.51100000000E-03 0. -1.
</event>
<event>
 8    1  0.1993226E+004  0.1043930E+01  0.7957747E-01            NaN
         13   -1    0    0    0    0  0.00000000000E+00  0.00000000000E+00  0.74505805969E-08  0.10566000000E+00  0.10566000000E+00 0. -1.
     999900   -1    0    0    0    0 -0.00000000000E+00 -0.00000000000E+00 -0.74505805969E-08  0.93827000000E+00  0.93827000000E+00 0. -1.
     999902    2    1    2    0    0 -0.12527983726E-02  0.13853568138E-01 -0.80423856294E-03  0.10299966711E+01  0.10299024249E+01 0.  0.
     999903    2    3    3    0    0  0.77353748286E-01  0.44195202882E-01  0.98155428214E-01  0.14045037125E+00  0.46421981471E-01 0.  0.
         14    1    1    2    0    0  0.12527983726E-02 -0.13853568138E-01  0.80423856294E-03  0.13933328877E-01  0.00000000000E+00 0. -1.
     999901    1    3    3    0    0 -0.78606546659E-01 -0.30341634744E-01 -0.98959666777E-01  0.88954629988E+00  0.88000000000E+00 0. -1.
        -11    1    4    4    0    0  0.14281393624E-01  0.30209170867E-01  0.19608036602E-01  0.38746463435E-01  0.51100000000E-03 0. -1.
         11    1    4    4    0    0  0.63072354662E-01  0.13986032015E-01  0.78547391611E-01  0.10170390781E+00  0.51100000000E-03 0.  1.
</event>
<event>
 8    1  0.1993226E+004  0.1043930E+01  0.7957747E-01            NaN
         13   -1    0    0    0    0  0.00000000000E+00  0.00000000000E+00  0.74505805969E-08  0.10566000000E+00  0.10566000000E+00 0.  1.
     999900   -1    0    0    0    0 -0.00000000000E+00 -0.00000000000E+00 -0.74505805969E-08  0.93827000000E+00  0.93827000000E+00 0.  1.
     999902    2    1    2    0    0 -0.57745449575E-02  0.70956210762E-02 -0.85104526140E-02  0.10314351606E+01  0.10313594764E+01 0.  0.
     999903    2    3    3    0    0  0.11618034921E+00 -0.63892822709E-01 -0.47053589304E-02  0.14018500823E+00  0.45271732841E-01 0.  0.
         14    1    1    2    0    0  0.57745449575E-02 -0.70956210762E-02  0.85104526140E-02  0.12494839399E-01  0.00000000000E+00 0.  1.
     999901    1    3    3    0    0 -0.12195489416E+00  0.70988443785E-01 -0.38050936836E-02  0.89125015237E+00  0.88000000000E+00 0.  1.
        -11    1    4    4    0    0  0.31883403334E-01 -0.10560082091E-01 -0.20258947575E-01  0.39226939975E-01  0.51100000000E-03 0.  1.
         11    1    4    4    0    0  0.84296945872E-01 -0.53332740618E-01  0.15553588645E-01  0.10095806826E+00  0.51100000000E-03 0. -1.
</event>
<event>
 8    1  0.1993226E+004  0.1043930E+01  0.7957747E-01            NaN
         13   -1    0    0    0    0  0.00000000000E+00  0.00000000000E+00  0.74505805969E-08  0.10566000000E+00  0.10566000000E+00 0. -1.
     999900   -1    0    0    0    0 -0.00000000000E+00 -0.00000000000E+00 -0.74505805969E-08  0.93827000000E+00  0.93827000000E+00 0. -1.
     999902    2    1    2    0    0  0.24319196544E-02  0.13813542561E-01  0.13346589191E-01  0.10245687078E+01  0.10243857562E+01 0.  0.
     999903    2    3    3    0    0 -0.11990562531E+00 -0.29383680043E-01 -0.26187007720E-01  0.13417813048E+00  0.45576876745E-01 0.  0.
         14    1    1    2    0    0 -0.24319196544E-02 -0.13813542561E-01 -0.13346589191E-01  0.19361292166E-01  0.00000000000E+00 0.  1.
     999901    1    3    3    0    0  0.12233754496E+00  0.43197222604E-01  0.39533596911E-01  0.89039057735E+00  0.88000000000E+00 0. -1.
        -11    1    4    4    0    0 -0.65527591280E-02  0.56745171047E-02 -0.11809983541E-01  0.14658636662E-01  0.51100000000E-03 0.  1.
         11    1    4    4    0    0 -0.11335286618E+00 -0.35058197148E-01 -0.14377024179E-01  0.11951949382E+00  0.51100000000E-03 0. -1.
</event>
<event>
 7    1  0.1993226E+004  0.1043930E+01  0.7957747E-01            NaN
         13   -1    0    0    0    0  0.00000000000E+00  0.00000000000E+00  0.74505805969E-08  0.10566000000E+00  0.10566000000E+00 0.  1.
     999900   -1    0    0    0    0 -0.00000000000E+00 -0.00000000000E+00 -0.74505805969E-08  0.93827000000E+00  0.93827000000E+00 0. -1.
     999902    2    1    2    0    0  0.41308416777E-03 -0.11993572652E-01 -0.97750504791E-02  0.10284520145E+01  0.10283355377E+01 0.  0.
         14    1    1    2    0    0 -0.41308416777E-03  0.11993572652E-01  0.97750504791E-02  0.15477985507E-01  0.00000000000E+00 0. -1.
     999901    1    3    3    0    0 -0.75913063416E-01 -0.54229863318E-01 -0.90735567306E-01  0.88957102833E+00  0.88000000000E+00 0. -1.
        -11    1    3    3    0    0  0.61878857833E-01  0.43510087652E-01  0.22903521653E-01  0.79037669496E-01  0.51100000000E-03 0.  1.
         11    1    3    3    0    0  0.14447289751E-01 -0.12737969864E-02  0.58056995174E-01  0.59843316666E-01  0.51100000000E-03 0. -1.
</event>
<event>
 8    1  0.1993226E+004  0.1043930E+01  0.7957747E-01            NaN
         13   -1    0    0    0    0  0.00000000000E+00  0.00000000000E+00  0.74505805969E-08  0.10566000000E+00  0.10566000000E+00 0.  1.
     999900   -1    0    0    0    0 -0.00000000000E+00 -0.00000000000E+00 -0.74505805969E-08  0.93827000000E+00  0.93827000000E+00 0. -1.
     999902    2    1    2    0    0 -0.13356231558E-01 -0.38235322706E-02 -0.20678288133E-02  0.10298842093E+01  0.10297884250E+01 0.  0.
     999903    2    3    3    0    0  0.47516734350E-01 -0.10113223161E+00 -0.71110555613E-01  0.13974860217E+00  0.44580179199E-01 0.  0.
         14    1    1    2    0    0  0.13356231558E-01  0.38235322706E-02  0.20678288133E-02  0.14045790702E-01  0.00000000000E+00 0. -1.
     999901    1    3    3    0    0 -0.60872965908E-01  0.97308699335E-01  0.69042726800E-01  0.89013560712E+00  0.88000000000E+00 0.  1.
        -11    1    4    4    0    0  0.33711864855E-01 -0.92995251028E-01 -0.44023854825E-01  0.10827265334E+00  0.51100000000E-03 0.  1.
         11    1    4    4    0    0  0.13804869495E-01 -0.81369805768E-02 -0.27086700788E-01  0.31475948838E-01  0.51100000000E-03 0. -1.
</event>
<event>
 8    1  0.1993226E+004  0.1043930E+01  0.7957747E-01            NaN
         13   -1    0    0    0    0  0.00000000000E+00  0.00000000000E+00  0.74505805969E-08  0.10566000000E+00  0.10566000000E+00 0. -1.
     999900   -1    0    0    0    0 -0.00000000000E+00 -0.00000000000E+00 -0.74505805969E-08  0.93827000000E+00  0.93827000000E+00 0.  1.
     999902    2    1    2    0    0  0.94454636932E-03  0.12817830427E-01  0.83926855641E-02  0.10285798822E+01  0.10284653363E+01 0.  0.
     999903    2    3    3    0    0  0.90449103234E-01 -0.87748040937E-01  0.33825747973E-01  0.13797817504E+00  0.44866876387E-01 0.  0.
         14    1    1    2    0    0 -0.94454636932E-03 -0.12817830427E-01 -0.83926855641E-02  0.15350117774E-01  0.00000000000E+00 0.  1.
     999901    1    3    3    0    0 -0.89504556864E-01  0.10056587136E+00 -0.25433062409E-01  0.89060170719E+00  0.88000000000E+00 0. -1.
        -11    1    4    4    0    0  0.50450050809E-01 -0.28551898176E-01 -0.20997186197E-02  0.58009382477E-01  0.51100000000E-03 0. -1.
         11    1    4    4    0    0  0.39999052424E-01 -0.59196142761E-01  0.35925466593E-01  0.79968792560E-01  0.51100000000E-03 0.  1.
</event>
<event>
 8    1  0.1993226E+004  0.1043930E+01  0.7957747E-01            NaN
         13   -1    0    0    0    0  0.00000000000E+00  0.00000000000E+00  0.74505805969E-08  0.10566000000E+00  0.10566000000E+00 0.  1.
     999900   -1    0    0    0    0 -0.00000000000E+00 -0.00000000000E+00 -0.74505805969E-08  0.93827000000E+00  0.93827000000E+00 0. -1.
     999902    2    1    2    0    0  0.76512810102E-02  0.82534292770E-02 -0.11587933283E-02  0.10326161148E+01  0.10325541325E+01 0.  0.
     999903    2    3    3    0    0 -0.11377852522E+00 -0.64466651563E-03 -0.71018355007E-01  0.14149057242E+00  0.45055598340E-01 0.  0.
         14    1    1    2    0    0 -0.76512810102E-02 -0.82534292770E-02  0.11587933283E-02  0.11313885182E-01  0.00000000000E+00 0. -1.
     999901    1    3    3    0    0  0.12142980623E+00  0.88980957926E-02  0.69859561679E-01  0.89112554239E+00  0.88000000000E+00 0.  1.
        -11    1    4    4    0    0 -0.31491567273E-01 -0.17336339992E-01 -0.34840352237E-01  0.50063746949E-01  0.51100000000E-03 0.  1.
         11    1    4    4    0    0 -0.82286957943E-01  0.16691673476E-01 -0.36178002770E-01  0.91426825475E-01  0.51100000000E-03 0. -1.
</event>
<event>
 8    1  0.1993226E+004  0.1043930E+01  0.7957747E-01            NaN
         13   -1    0    0    0    0  0.00000000000E+00  0.00000000000E+00  0.74505805969E-08  0.10566000000E+00  0.10566000000E+00 0. -1.
     999900   -1    0    0    0    0 -0.00000000000E+00 -0.00000000000E+00 -0.74505805969E-08  0.93827000000E+00  0.93827000000E+00 0.  1.
     999902    2    1    2    0    0  0.97754992552E-02 -0.30503149252E-02 -0.94963031615E-02  0.10299641638E+01  0.10298694743E+01 0.  0.
     999903    2    3    3    0    0  0.12845567323E+00  0.24998603352E-01  0.25297876754E-01  0.14087341452E+00  0.45602041569E-01 0.  0.
         14    1    1    2    0    0 -0.97754992552E-02  0.30503149252E-02  0.94963031615E-02  0.13965836193E-01  0.00000000000E+00 0. -1.
     999901    1    3    3    0    0 -0.11868017398E+00 -0.28048918277E-01 -0.34794179916E-01  0.88909074929E+00  0.88000000000E+00 0.  1.
        -11    1    4    4    0    0  0.22776766025E-01 -0.81251923819E-02  0.17489876207E-01  0.29848898012E-01  0.51100000000E-03 0. -1.
         11    1    4    4    0    0  0.10567890721E+00  0.33123795734E-01  0.78080005475E-02  0.11102451651E+00  0.51100000000E-03 0.  1.
</event>
<event>
 8    1  0.1993226E+004  0.1043930E+01  0.7957747E-01            NaN
         13   -1    0    0    0    0  0.00000000000E+00  0.00000000000E+00  0.74505805969E-08  0.10566000000E+00  0.10566000000E+00 0. -1.
     999900   -1    0    0    0    0 -0.00000000000E+00 -0.00000000000E+00 -0.74505805969E-08  0.93827000000E+00  0.93827000000E+00 0. -1.
     999902    2    1    2    0    0  0.11016229181E-01  0.71293146357E-02  0.50343660939E-02  0.10298754892E+01  0.10297795851E+01 0.  0.
     999903    2    3    3    0    0  0.81554630510E-01 -0.69518805216E-01  0.78671179088E-01  0.14067754689E+00  0.46010822026E-01 0.  0.
         14    1    1    2    0    0 -0.11016229181E-01 -0.71293146357E-02 -0.50343660939E-02  0.14054510824E-01  0.00000000000E+00 0.  1.
     999901    1    3    3    0    0 -0.70538401329E-01  0.76648119851E-01 -0.73636812994E-01  0.88919794229E+00  0.88000000000E+00 0. -1.
        -11    1    4    4    0    0  0.25894123414E-01 -0.58633435201E-02  0.21621533618E-02  0.26642455832E-01  0.51100000000E-03 0.  1.
         11    1    4    4    0    0  0.55660507096E-01 -0.63655461696E-01  0.76509025726E-01  0.11403509106E+00  0.51100000000E-03 0. -1.
</event>
<event>
 8    1  0.1993226E+004  0.1043930E+01  0.7957747E-01            NaN
         13   -1    0    0    0    0  0.00000000000E+00  0.00000000000E+00  0.74505805969E-08  0.10566000000E+00  0.10566000000E+00 0.  1.
     999900   -1    0    0    0    0 -0.00000000000E+00 -0.00000000000E+00 -0.74505805969E-08  0.93827000000E+00  0.93827000000E+00 0.  1.
     999902    2    1    2    0    0 -0.11821490244E-01 -0.57288719390E-02  0.36660783931E-02  0.10302915347E+01  0.10302012613E+01 0.  0.
     999903    2    3    3    0    0 -0.56380226567E-01  0.73395444808E-01 -0.95708610528E-01  0.14005478680E+00  0.43469344502E-01 0.  0.
         14    1    1    2    0    0  0.11821490244E-01  0.57288719390E-02 -0.36660783931E-02  0.13638465312E-01  0.00000000000E+00 0. -1.
     999901    1    3    3    0    0  0.44558736323E-01 -0.79124316747E-01  0.99374688921E-01  0.89023674788E+00  0.88000000000E+00 0. -1.
        -11    1    4    4    0    0 -0.38476085615E-01  0.66867153478E-01 -0.53921693710E-01  0.94124574645E-01  0.51100000000E-03 0.  1.
         11    1    4    4    0    0 -0.17904140952E-01  0.65282913300E-02 -0.41786916818E-01  0.45930212160E-01  0.51100000000E-03 0. -1.
</event>
<event>
 8    1  0.1993226E+004  0.1043930E+01  0.7957747E-01            NaN
         13   -1    0    0    0    0  0.00000000000E+00  0.00000000000E+00  0.74505805969E-08  0.10566000000E+00  0.10566000000E+00 0.  1.
     999900   -1    0    0    0    0 -0.00000000000E+00 -0.00000000000E+00 -0.74505805969E-08  0.93827000000E+00  0.93827000000E+00 0.  1.
     999902    2    1    2    0    0 -0.12633239119E-01 -0.50160339386E-02  0.17201546516E-02  0.10302289687E+01  0.10301378595E+01 0.  0.
     999903    2    3    3    0    0  0.10152505396E+00 -0.40579804760E-01 -0.72928528979E-01  0.13901108082E+00  0.45292969837E-01 0.  0.
         14    1    1    2    0    0  0.12633239119E-01  0.50160339386E-02 -0.17201546516E-02  0.13701031317E-01  0.00000000000E+00 0. -1.
     999901    1    3    3    0    0 -0.11415829308E+00  0.35563770821E-01  0.74648683631E-01  0.89121788786E+00  0.88000000000E+00 0. -1.
        -11    1    4    4    0    0  0.49167538920E-01 -0.25126549767E-01 -0.62558153394E-01  0.83442040146E-01  0.51100000000E-03 0.  1.
         11    1    4    4    0    0  0.52357515040E-01 -0.15453254993E-01 -0.10370375585E-01  0.55569040678E-01  0.51100000000E-03 0. -1.
</event>
<event>
 8    1  0.1993226E+004  0.1043930E+01  0.7957747E-01            NaN
         13   -1    0    0    0    0  0.00000000000E+00  0.00000000000E+00  0.74505805969E-08  0.10566000000E+00  0.10566000000E+00 0. -1.
     999900   -1    0    0    0    0 -0.00000000000E+00 -0.00000000000E+00 -0.74505805969E-08  0.93827000000E+00  0.93827000000E+00 0. -1.
     999902    2    1    2    0    0 -0.67478786584E-03 -0.42386565320E-02  0.99197662127E-02  0.10331215168E+01  0.10330649762E+01 0.  0.
     999903    2    3    3    0    0  0.16051689018E-01  0.12376823143E+00 -0.47174416879E-01  0.14187223395E+00  0.48229382395E-01 0.  0.
         14    1    1    2    0    0  0.67478786584E-03  0.42386565320E-02 -0.99197662127E-02  0.10808483223E-01  0.00000000000E+00 0. -1.
     999901    1    3    3    0    0 -0.16726476883E-01 -0.12800688796E+00  0.57094183092E-01  0.89124928283E+00  0.88000000000E+00 0. -1.
        -11    1    4    4    0    0  0.87020278166E-02  0.33114080394E-01 -0.36900795606E-01  0.50340812924E-01  0.51100000000E-03 0. -1.
         11    1    4    4    0    0  0.73496612009E-02  0.90654151038E-01 -0.10273621273E-01  0.91531421027E-01  0.51100000000E-03 0.  1.
</event>
<event>
 7    1  0.1993226E+004  0.1043930E+01  0.7957747E-01            NaN
         13   -1    0    0    0    0  0.00000000000E+00  0.00000000000E+00  0.74505805969E-08  0.10566000000E+00  0.10566000000E+00 0. -1.
     999900   -1    0    0    0    0 -0.00000000000E+00 -0.00000000000E+00 -0.74505805969E-08  0.93827000000E+00  0.93827000000E+00 0. -1.
     999903    2    1    2    0    0 -0.25984570907E-01 -0.84344159084E-01  0.71100695357E-01  0.12170444428E+00  0.44356823372E-01 0.  0.
         14    1    1    2    0    0 -0.90902456011E-02  0.33608547906E-02  0.30492290234E-01  0.31995432076E-01  0.00000000000E+00 0. -1.
     999901    1    1    2    0    0  0.35074816508E-01  0.80983304293E-01 -0.10159298559E+00  0.89023012365E+00  0.88000000000E+00 0. -1.
        -11    1    3    3    0    0  0.79761316948E-02 -0.49210368734E-01  0.37912634026E-01  0.62633122288E-01  0.51100000000E-03 0. -1.
         11    1    3    3    0    0 -0.33960702602E-01 -0.35133790349E-01  0.33188061332E-01  0.59071321989E-01  0.51100000000E-03 0.  1.
</event>
<event>
 8    1  0.1993226E+004  0.1043930E+01  0.7957747E-01            NaN
         13   -1    0    0    0    0  0.00000000000E+00  0.00000000000E+00  0.74505805969E-08  0.10566000000E+00  0.10566000000E+00 0. -1.
     999900   -1    0    0    0    0 -0.00000000000E+00 -0.00000000000E+00 -0.74505805969E-08  0.93827000000E+00  0.93827000000E+00 0. -1.
     999902    2    1    2    0    0 -0.72358441445E-03 -0.14342074876E-01 -0.55012857072E-02  0.10285520017E+01  0.10284370362E+01 0.  0.
     999903    2    3    3    0    0  0.81562626923E-01 -0.42879008677E-01 -0.95198198657E-01  0.13971517005E+00  0.44345915475E-01 0.  0.
         14    1    1    2    0    0  0.72358441445E-03  0.14342074876E-01  0.55012857072E-02  0.15377998263E-01  0.00000000000E+00 0. -1.
     999901    1    3    3    0    0 -0.82286211337E-01  0.28536933801E-01  0.89696912950E-01  0.88883683168E+00  0.88000000000E+00 0.  1.
        -11    1    4    4    0    0  0.50351757847E-01 -0.44938321212E-01 -0.46957986044E-01  0.82219619349E-01  0.51100000000E-03 0. -1.
         11    1    4    4    0    0  0.31210869076E-01  0.20593125355E-02 -0.48240212613E-01  0.57495550702E-01  0.51100000000E-03 0.  1.
</event>
<event>
 8    1  0.1993226E+004  0.1043930E+01  0.7957747E-01            NaN
         13   -1    0    0    0    0  0.00000000000E+00  0.00000000000E+00  0.74505805969E-08  0.10566000000E+00  0.10566000000E+00 0. -1.
     999900   -1    0    0    0    0 -0.00000000000E+00 -0.00000000000E+00 -0.74505805969E-08  0.93827000000E+00  0.93827000000E+00 0. -1.
     999902    2    1    2    0    0  0.47536358563E-02 -0.89140208163E-03 -0.12126177307E-01  0.10308748927E+01  0.10307922237E+01 0.  0.
     999903    2    3    3    0    0  0.84276087926E-01 -0.95158658911E-01  0.40016160172E-01  0.14074627305E+00  0.45283451074E-01 0.  0.
         14    1    1    2    0    0 -0.47536358563E-02  0.89140208163E-03  0.12126177307E-01  0.13055107338E-01  0.00000000000E+00 0. -1.
     999901    1    3    3    0    0 -0.79522452069E-01  0.94267256829E-01 -0.52142337479E-01  0.89012861961E+00  0.88000000000E+00 0.  1.
        -11    1    4    4    0    0  0.57078963622E-01 -0.57684128264E-01  0.25690068991E-02  0.81193150322E-01  0.51100000000E-03 0.  1.
         11    1    4    4    0    0  0.27197124304E-01 -0.37474530646E-01  0.37447153273E-01  0.59553122730E-01  0.51100000000E-03 0. -1.
</event>
<event>
 8    1  0.1993226E+004  0.1043930E+01  0.7957747E-01            NaN
         13   -1    0    0    0    0  0.00000000000E+00  0.00000000000E+00  0.74505805969E-08  0.10566000000E+00  0.10566000000E+00 0. -1.
     999900   -1    0    0    0    0 -0.00000000000E+00 -0.00000000000E+00 -0.74505805969E-08  0.93827000000E+00  0.93827000000E+00 0. -1.
     999902    2    1    2    0    0 -0.14718060870E-02  0.48710252316E-02  0.12236415713E-01  0.10306777183E+01  0.10305925170E+01 0.  0.
     999903    2    3    3    0    0  0.86450838660E-01  0.10000795833E+00  0.94715814002E-02  0.14118962296E+00  0.48677094636E-01 0.  0.
         14    1    1    2    0    0  0.14718060870E-02 -0.48710252316E-02 -0.12236415713E-01  0.13252281670E-01  0.00000000000E+00 0.  1.
     999901    1    3    3    0    0 -0.87922644747E-01 -0.95136933100E-01  0.27648343129E-02  0.88948809537E+00  0.88000000000E+00 0.  1.
        -11    1    4    4    0    0  0.61227946950E-01  0.49609168704E-01 -0.14175242906E-01  0.80069530657E-01  0.51100000000E-03 0. -1.
         11    1    4    4    0    0  0.25222891710E-01  0.50398789628E-01  0.23646824306E-01  0.61120092301E-01  0.51100000000E-03 0.  1.
</event>
<event>
 8    1  0.1993226E+004  0.1043930E+01  0.7957747E-01            NaN
         13   -1    0    0    0    0  0.00000000000E+00  0.00000000000E+00  0.74505805969E-08  0.10566000000E+00  0.10566000000E+00 0.  1.
     999900   -1    0    0    0    0 -0.00000000000E+00 -0.00000000000E+00 -0.74505805969E-08  0.93827000000E+00  0.93827000000E+00 0.  1.
     999902    2    1    2    0    0  0.45961494429E-03  0.11951748311E-01 -0.62204186581E-02  0.10304485631E+01  0.10303603700E+01 0.  0.
     999903    2    3    3    0    0 -0.74103346361E-01  0.94220221487E-01  0.60339675196E-01  0.14097794355E+00  0.43187360270E-01 0.  0.
         14    1    1    2    0    0 -0.45961494429E-03 -0.11951748311E-01  0.62204186581E-02  0.13481436936E-01  0.00000000000E+00 0.  1.
     999901    1    3    3    0    0  0.74562961305E-01 -0.82268473176E-01 -0.66560093854E-01  0.88947061951E+00  0.88000000000E+00 0.  1.
        -11    1    4    4    0    0 -0.52738066557E-01  0.38147060405E-01  0.17988714727E-01  0.67530414334E-01  0.51100000000E-03 0.  1.
         11    1    4    4    0    0 -0.21365279804E-01  0.56073161082E-01  0.42350960469E-01  0.73447529220E-01  0.51100000000E-03 0. -1.
</event>
<event>
 8    1  0.1993226E+004  0.1043930E+01  0.7957747E-01            NaN
         13   -1    0    0    0    0  0.00000000000E+00  0.00000000000E+00  0.74505805969E-08  0.10566000000E+00  0.10566000000E+00 0.  1.
     999900   -1    0    0    0    0 -0.00000000000E+00 -0.00000000000E+00 -0.74505805969E-08  0.93827000000E+00  0.93827000000E+00 0.  1.
     999902    2    1    2    0    0  0.12239942196E-01 -0.16186709334E-01  0.19767907427E-01  0.10155998763E+01  0.10152046655E+01 0.  0.
     999903    2    3    3    0    0 -0.59772311077E-02 -0.30935804670E-01  0.11753390509E+00  0.12987554476E+00  0.45394790214E-01 0.  0.
         14    1    1    2    0    0 -0.12239942196E-01  0.16186709334E-01 -0.19767907427E-01  0.28330123686E-01  0.00000000000E+00 0. -1.
     999901    1    3    3    0    0  0.18217173303E-01  0.14749095336E-01 -0.97765997659E-01  0.88572433156E+00  0.88000000000E+00 0.  1.
        -11    1    4    4    0    0  0.42930982393E-02  0.55175926639E-02  0.63517420120E-01  0.63903038276E-01  0.51100000000E-03 0. -1.
         11    1    4    4    0    0 -0.10270329347E-01 -0.36453397334E-01  0.54016484966E-01  0.65972506479E-01  0.51100000000E-03 0.  1.
</event>
<event>
 8    1  0.1993226E+004  0.1043930E+01  0.7957747E-01            NaN
         13   -1    0    0    0    0  0.00000000000E+00  0.00000000000E+00  0.74505805969E-08  0.10566000000E+00  0.10566000000E+00 0. -1.
     999900   -1    0    0    0    0 -0.00000000000E+00 -0.00000000000E+00 -0.74505805969E-08  0.93827000000E+00  0.93827000000E+00 0.  1.
     999902    2    1    2    0    0 -0.17283647974E-03 -0.10040738955E-01 -0.85029652747E-02  0.10307714769E+01  0.10306874846E+01 0.  0.
     999903    2    3    3    0    0 -0.12084011206E+00 -0.12421771533E-01  0.55240561909E-01  0.14024944015E+00  0.43148032312E-01 0.  0.
         14    1    1    2    0    0  0.17283647974E-03  0.10040738955E-01  0.85029652747E-02  0.13158523081E-01  0.00000000000E+00 0. -1.
     999901    1    3    3    0    0  0.12066727558E+00  0.23810325775E-02 -0.63743527184E-01  0.89052203677E+00  0.88000000000E+00 0. -1.
        -11    1    4    4    0    0 -0.14967308913E-01  0.11544257426E-01  0.16168464625E-01  0.24879119457E-01  0.51100000000E-03 0.  1.
         11    1    4    4    0    0 -0.10587280315E+00 -0.23966028959E-01  0.39072097284E-01  0.11537032069E+00  0.51100000000E-03 0. -1.
</event>
<event>
 8    1  0.1993226E+004  0.1043930E+01  0.7957747E-01            NaN
         13   -1    0    0    0    0  0.00000000000E+00  0.00000000000E+00  0.74505805969E-08  0.10566000000E+00  0.10566000000E+00 0. -1.
     999900   -1    0    0    0    0 -0.00000000000E+00 -0.00000000000E+00 -0.74505805969E-08  0.93827000000E+00  0.93827000000E+00 0.  1.
     999902    2    1    2    0    0  0.85547887888E-02 -0.29274364867E-03 -0.11924850179E-01  0.10292510299E+01  0.10291463504E+01 0.  0.
     999903    2    3    3    0    0 -0.10018244048E+00 -0.83281106865E-01  0.12541816398E-01  0.13834729147E+00  0.44837615418E-01 0.  0.
         14    1    1    2    0    0 -0.85547887888E-02  0.29274364867E-03  0.11924850179E-01  0.14678970055E-01  0.00000000000E+00 0. -1.
     999901    1    3    3    0    0  0.10873722927E+00  0.82988363216E-01 -0.24466666577E-01  0.89090373848E+00  0.88000000000E+00 0.  1.
        -11    1    4    4    0    0 -0.29982743284E-01 -0.61763629348E-02  0.14889809722E-01  0.34045262644E-01  0.51100000000E-03 0. -1.
         11    1    4    4    0    0 -0.70199697199E-01 -0.77104743930E-01 -0.23479933236E-02  0.10430202882E+00  0.51100000000E-03 0.  1.
</event>
<event>
 8    1  0.1993226E+004  0.1043930E+01  0.7957747E-01            NaN
         13   -1    0    0    0    0  0.00000000000E+00  0.00000000000E+00  0.74505805969E-08  0.10566000000E+00  0.10566000000E+00 0. -1.
     999900   -1    0    0    0    0 -0.00000000000E+00 -0.00000000000E+00 -0.74505805969E-08  0.93827000000E+00  0.93827000000E+00 0. -1.
     999902    2    1    2    0    0 -0.99531129982E-02  0.40771202998E-02  0.84037823035E-02  0.10302804240E+01  0.10301900024E+01 0.  0.
     999903    2    3    3    0    0 -0.89690597040E-01 -0.77149352969E-01  0.62412786145E-01  0.14130754543E+00  0.45563589184E-01 0.  0.
         14    1    1    2    0    0  0.99531129982E-02 -0.40771202998E-02 -0.84037823035E-02  0.13649576012E-01  0.00000000000E+00 0.  1.
     999901    1    3    3    0    0  0.79737484042E-01  0.81226473269E-01 -0.54009003842E-01  0.88897287856E+00  0.88000000000E+00 0. -1.
        -11    1    4    4    0    0 -0.35726000690E-02 -0.25014187677E-01  0.62682137904E-02  0.26038907072E-01  0.51100000000E-03 0.  1.
         11    1    4    4    0    0 -0.86117996971E-01 -0.52135165292E-01  0.56144572355E-01  0.11526863836E+00  0.51100000000E-03 0. -1.
</event>
<event>
 8    1  0.1993226E+004  0.1043930E+01  0.7957747E-01            NaN
         13   -1    0    0    0    0  0.00000000000E+00  0.00000000000E+00  0.74505805969E-08  0.10566000000E+00  0.10566000000E+00 0.  1.
     999900   -1    0    0    0    0 -0.00000000000E+00 -0.00000000000E+00 -0.74505805969E-08  0.93827000000E+00  0.93827000000E+00 0.  1.
     999902    2    1    2    0    0 -0.11732896940E-01 -0.33193689282E-02  0.62214132165E-02  0.10302411336E+01  0.10301501873E+01 0.  0.
     999903    2    3    3    0    0 -0.33942192951E-01  0.12445023907E+00  0.30629420841E-01  0.14040177935E+00  0.46201339326E-01 0.  0.
         14    1    1    2    0    0  0.11732896940E-01  0.33193689282E-02 -0.62214132165E-02  0.13688866392E-01  0.00000000000E+00 0. -1.
     999901    1    3    3    0    0  0.22209296011E-01 -0.12776960800E+00 -0.24408007625E-01  0.88983935426E+00  0.88000000000E+00 0. -1.
        -11    1    4    4    0    0 -0.45006444863E-01  0.88040716932E-01  0.19901674333E-01  0.10086171563E+00  0.51100000000E-03 0.  1.
         11    1    4    4    0    0  0.11064251912E-01  0.36409522139E-01  0.10727746509E-01  0.39540063719E-01  0.51100000000E-03 0. -1.
</event>
<event>
 8    1  0.1993226E+004  0.1043930E+01  0.7957747E-01            NaN
         13   -1    0    0    0    0  0.00000000000E+00  0.00000000000E+00  0.74505805969E-08  0.10566000000E+00  0.10566000000E+00 0.  1.
     999900   -1    0    0    0    0 -0.00000000000E+00 -0.00000000000E+00 -0.74505805969E-08  0.93827000000E+00  0.93827000000E+00 0.  1.
     999902    2    1    2    0    0 -0.12344678093E-01 -0.79268762241E-02  0.20177505066E-01  0.10189828929E+01  0.10186774650E+01 0.  0.
     999903    2    3    3    0    0  0.79880228164E-01  0.22230080826E-01 -0.85393822150E-01  0.12737749779E+00  0.45364024696E-01 0.  0.
         14    1    1    2    0    0  0.12344678093E-01  0.79268762241E-02 -0.20177505066E-01  0.24947107138E-01  0.00000000000E+00 0. -1.
     999901    1    3    3    0    0 -0.92224906257E-01 -0.30156957050E-01  0.10557132722E+00  0.89160539507E+00  0.88000000000E+00 0. -1.
        -11    1    4    4    0    0  0.24916322873E-01 -0.13014157022E-01 -0.17173203881E-01  0.32944976568E-01  0.51100000000E-03 0.  1.
         11    1    4    4    0    0  0.54963905291E-01  0.35244237847E-01 -0.68220618269E-01  0.94432521221E-01  0.51100000000E-03 0. -1.
</event>
<event>
 8    1  0.1993226E+004  0.1043930E+01  0.7957747E-01            NaN
         13   -1    0    0    0    0  0.00000000000E+00  0.00000000000E+00  0.74505805969E-08  0.10566000000E+00  0.10566000000E+00 0.  1.
     999900   -1    0    0    0    0 -0.00000000000E+00 -0.00000000000E+00 -0.74505805969E-08  0.93827000000E+00  0.93827000000E+00 0.  1.
     999902    2    1    2    0    0  0.12169021618E-01 -0.14496360426E-02 -0.64978158430E-02  0.10300588738E+01  0.10299654729E+01 0.  0.
     999903    2    3    3    0    0 -0.23455273488E-01  0.58730320239E-01  0.11550739144E+00  0.13889335148E+00  0.44158863645E-01 0.  0.
         14    1    1    2    0    0 -0.12169021618E-01  0.14496360426E-02  0.64978158430E-02  0.13871126217E-01  0.00000000000E+00 0.  1.
     999901    1    3    3    0    0  0.35624295106E-01 -0.60179956282E-01 -0.12200520728E+00  0.89116552230E+00  0.88000000000E+00 0.  1.
        -11    1    4    4    0    0  0.11805650860E-02  0.48970081139E-01  0.87862842563E-01  0.10059623653E+00  0.51100000000E-03 0.  1.
         11    1    4    4    0    0 -0.24635838574E-01  0.97602390995E-02  0.27644548875E-01  0.38297114944E-01  0.51100000000E-03 0. -1.
</event>
<event>
 8    1  0.1993226E+004  0.1043930E+01  0.7957747E-01            NaN
         13   -1    0    0    0    0  0.00000000000E+00  0.00000000000E+00  0.74505805969E-08  0.10566000000E+00  0.10566000000E+00 0.  1.
     999900   -1    0    0    0    0 -0.00000000000E+00 -0.00000000000E+00 -0.74505805969E-08  0.93827000000E+00  0.93827000000E+00 0.  1.
     999902    2    1    2    0    0 -0.34804636017E-02  0.20467505805E-03  0.97307833885E-02  0.10335934791E+01  0.10335417923E+01 0.  0.
     999903    2    3    3    0    0  0.19320781682E-03 -0.13045544021E+00 -0.35565701560E-01  0.14278635457E+00  0.45873355169E-01 0.  0.
         14    1    1    2    0    0  0.34804636017E-02 -0.20467505805E-03 -0.97307833885E-02  0.10336520890E-01  0.00000000000E+00 0. -1.
     999901    1    3    3    0    0 -0.36736714185E-02  0.13066011527E+00  0.45296484949E-01  0.89080712454E+00  0.88000000000E+00 0. -1.
        -11    1    4    4    0    0 -0.19604383179E-01 -0.85346857858E-01 -0.12747308255E-01  0.88493914902E-01  0.51100000000E-03 0. -1.
         11    1    4    4    0    0  0.19797590996E-01 -0.45108582351E-01 -0.22818393305E-01  0.54292439667E-01  0.51100000000E-03 0.  1.
</event>
<event>
 8    1  0.1993226E+004  0.1043930E+01  0.7957747E-01            NaN
         13   -1    0    0    0    0  0.00000000000E+00  0.00000000000E+00  0.74505805969E-08  0.10566000000E+00  0.10566000000E+00 0.  1.
     999900   -1    0    0    0    0 -0.00000000000E+00 -0.00000000000E+00 -0.74505805969E-08  0.93827000000E+00  0.93827000000E+00 0.  1.
     999902    2    1    2    0    0 -0.10861497832E-01  0.10023410749E-01  0.18598928564E-02  0.10290336884E+01  0.10289258631E+01 0.  0.
     999903    2    3    3    0    0 -0.11654628777E+00  0.59203455838E-01  0.27113344117E-01  0.14098769382E+00  0.45324496741E-01 0.  0.
         14    1    1    2    0    0  0.10861497832E-01 -0.10023410749E-01 -0.18598928564E-02  0.14896311612E-01  0.00000000000E+00 0. -1.
     999901    1    3    3    0    0  0.10568478994E+00 -0.49180045089E-01 -0.25253451261E-01  0.88804599456E+00  0.88000000000E+00 0.  1.
        -11    1    4    4    0    0 -0.68299734899E-01  0.43458352630E-01  0.37441401099E-01  0.89194180516E-01  0.51100000000E-03 0.  1.
         11    1    4    4    0    0 -0.48246552870E-01  0.15745103209E-01 -0.10328056982E-01  0.51793513309E-01  0.51100000000E-03 0. -1.
</event>
<event>
 8    1  0.1993226E+004  0.1043930E+01  0.7957747E-01            NaN
         13   -1    0    0    0    0  0.00000000000E+00  0.00000000000E+00  0.74505805969E-08  0.10566000000E+00  0.10566000000E+00 0. -1.
     999900   -1    0    0    0    0 -0.00000000000E+00 -0.00000000000E+00 -0.74505805969E-08  0.93827000000E+00  0.93827000000E+00 0.  1.
     999902    2    1    2    0    0  0.55467517471E-02 -0.12405925001E-01 -0.36309154027E-02  0.10298638357E+01  0.10297677715E+01 0.  0.
     999903    2    3    3    0    0  0.16019533574E-01 -0.12380511787E+00 -0.49018646695E-01  0.14161865255E+00  0.45482769897E-01 0.  0.
         14    1    1    2    0    0 -0.55467517471E-02  0.12405925001E-01  0.36309154027E-02  0.14066164251E-01  0.00000000000E+00 0. -1.
     999901    1    3    3    0    0 -0.10472781827E-01  0.11139919287E+00  0.45387731292E-01  0.88824518320E+00  0.88000000000E+00 0.  1.
        -11    1    4    4    0    0  0.73880011300E-02 -0.98371439792E-01 -0.17473814354E-01  0.10018541828E+00  0.51100000000E-03 0.  1.
         11    1    4    4    0    0  0.86315324439E-02 -0.25433678082E-01 -0.31544832341E-01  0.41433234263E-01  0.51100000000E-03 0. -1.
</event>
<event>
 8    1  0.1993226E+004  0.1043930E+01  0.7957747E-01            NaN
         13   -1    0    0    0    0  0.00000000000E+00  0.00000000000E+00  0.74505805969E-08  0.10566000000E+00  0.10566000000E+00 0. -1.
     999900   -1    0    0    0    0 -0.00000000000E+00 -0.00000000000E+00 -0.74505805969E-08  0.93827000000E+00  0.93827000000E+00 0.  1.
     999902    2    1    2    0    0 -0.97414518109E-03 -0.55079732050E-02 -0.12636937445E-01  0.10301104879E+01  0.10300177854E+01 0.  0.
     999903    2    3    3    0    0 -0.11296012525E+00 -0.66884961315E-01 -0.21655652025E-01  0.14084712327E+00  0.46209922319E-01 0.  0.
         14    1    1    2    0    0  0.97414518109E-03  0.55079732050E-02  0.12636937445E-01  0.13819512135E-01  0.00000000000E+00 0. -1.
     999901    1    3    3    0    0  0.11198598007E+00  0.61376988110E-01  0.90187145807E-02  0.88926336460E+00  0.88000000000E+00 0. -1.
        -11    1    4    4    0    0 -0.55591334312E-01 -0.82230805694E-02 -0.16777531278E-01  0.58649485773E-01  0.51100000000E-03 0. -1.
         11    1    4    4    0    0 -0.57368790941E-01 -0.58661880746E-01 -0.48781207478E-02  0.82197637495E-01  0.51100000000E-03 0.  1.
</event>
<event>
 8    1  0.1993226E+004  0.1043930E+01  0.7957747E-01            NaN
         13   -1    0    0    0    0  0.00000000000E+00  0.00000000000E+00  0.74505805969E-08  0.10566000000E+00  0.10566000000E+00 0. -1.
     999900   -1    0    0    0    0 -0.00000000000E+00 -0.00000000000E+00 -0.74505805969E-08  0.93827000000E+00  0.93827000000E+00 0.  1.
     999902    2    1    2    0    0  0.53737368669E-02 -0.12561970817E-01 -0.18312190001E-02  0.10301447353E+01  0.10300524949E+01 0.  0.
     999903    2    3    3    0    0 -0.35690285500E-02  0.53588634472E-01 -0.12044408897E+00  0.13968143539E+00  0.46039603787E-01 0.  0.
         14    1    1    2    0    0 -0.53737368669E-02  0.12561970817E-01  0.18312190001E-02  0.13785264660E-01  0.00000000000E+00 0.  1.
     999901    1    3    3    0    0  0.89427654169E-02 -0.66150605288E-01  0.11861286997E+00  0.89046329995E+00  0.88000000000E+00 0. -1.
        -11    1    4    4    0    0 -0.12412684058E-01  0.41798861073E-01 -0.11653356321E+00  0.12442488492E+00  0.51100000000E-03 0.  1.
         11    1    4    4    0    0  0.88436555080E-02  0.11789773399E-01 -0.39105257562E-02  0.15256550469E-01  0.51100000000E-03 0. -1.
</event>
<event>
 8    1  0.1993226E+004  0.1043930E+01  0.7957747E-01            NaN
         13   -1    0    0    0    0  0.00000000000E+00  0.00000000000E+00  0.74505805969E-08  0.10566000000E+00  0.10566000000E+00 0. -1.
     999900   -1    0    0    0    0 -0.00000000000E+00 -0.00000000000E+00 -0.74505805969E-08  0.93827000000E+00  0.93827000000E+00 0. -1.
     999902    2    1    2    0    0 -0.11938774810E-01  0.38251748292E-02  0.64571929237E-02  0.10298281687E+01  0.10297316133E+01 0.  0.
     999903    2    3    3    0    0  0.78767949067E-01 -0.10415169491E+00 -0.54190295233E-02  0.13852139835E+00  0.45900398338E-01 0.  0.
         14    1    1    2    0    0  0.11938774810E-01 -0.38251748292E-02 -0.64571929237E-02  0.14101831331E-01  0.00000000000E+00 0.  1.
     999901    1    3    3    0    0 -0.90706723877E-01  0.10797686974E+00  0.11876222447E-01  0.89130677032E+00  0.88000000000E+00 0.  1.
        -11    1    4    4    0    0  0.37865275907E-01 -0.31071785892E-01  0.16953056186E-01  0.51835337687E-01  0.51100000000E-03 0.  1.
         11    1    4    4    0    0  0.40902673160E-01 -0.73079909016E-01 -0.22372085710E-01  0.86686060664E-01  0.51100000000E-03 0. -1.
</event>
<event>
 8    1  0.1993226E+004  0.1043930E+01  0.7957747E-01            NaN
         13   -1    0    0    0    0  0.00000000000E+00  0.00000000000E+00  0.74505805969E-08  0.10566000000E+00  0.10566000000E+00 0. -1.
     999900   -1    0    0    0    0 -0.00000000000E+00 -0.00000000000E+00 -0.74505805969E-08  0.93827000000E+00  0.93827000000E+00 0. -1.
     999902    2    1    2    0    0  0.45623556895E-02 -0.50069813734E-02 -0.11966610604E-01  0.10301791920E+01  0.10300874152E+01 0.  0.
     999903    2    3    3    0    0 -0.30143563550E-01 -0.12439085066E+00 -0.37547332357E-01  0.14107212171E+00  0.45932811848E-01 0.  0.
         14    1    1    2    0    0 -0.45623556895E-02  0.50069813734E-02  0.11966610604E-01  0.13750808022E-01  0.00000000000E+00 0.  1.
     999901    1    3    3    0    0  0.34705919239E-01  0.11938386929E+00  0.25580721753E-01  0.88910707027E+00  0.88000000000E+00 0. -1.
        -11    1    4    4    0    0  0.27669601075E-02 -0.66704616525E-01 -0.45710116865E-02  0.66920230146E-01  0.51100000000E-03 0.  1.
         11    1    4    4    0    0 -0.32910523657E-01 -0.57686234138E-01 -0.32976320671E-01  0.74151891563E-01  0.51100000000E-03 0. -1.
</event>
<event>
 8    1  0.1993226E+004  0.1043930E+01  0.7957747E-01            NaN
         13   -1    0    0    0    0  0.00000000000E+00  0.00000000000E+00  0.74505805969E-08  0.10566000000E+00  0.10566000000E+00 0.  1.
     999900   -1    0    0    0    0 -0.00000000000E+00 -0.00000000000E+00 -0.74505805969E-08  0.93827000000E+00  0.93827000000E+00 0.  1.
     999902    2    1    2    0    0  0.96508043523E-03 -0.14042255568E-01 -0.85696768131E-02  0.10274510534E+01  0.10273188947E+01 0.  0.
     999903    2    3    3    0    0 -0.87741871639E-01 -0.89106135509E-01  0.38585892245E-01  0.13856008304E+00  0.45513581581E-01 0.  0.
         14    1    1    2    0    0 -0.96508043523E-03  0.14042255568E-01  0.85696768131E-02  0.16478946640E-01  0.00000000000E+00 0.  1.
     999901    1    3    3    0    0  0.88706952074E-01  0.75063879941E-01 -0.47155569058E-01  0.88889097032E+00  0.88000000000E+00 0.  1.
        -11    1    4    4    0    0 -0.67768939494E-01 -0.51339493440E-01  0.67717993935E-02  0.85290627473E-01  0.51100000000E-03 0. -1.
         11    1    4    4    0    0 -0.19972932146E-01 -0.37766642069E-01  0.31814092852E-01  0.53269455570E-01  0.51100000000E-03 0.  1.
</event>
<event>
 8    1  0.1993226E+004  0.1043930E+01  0.7957747E-01            NaN
         13   -1    0    0    0    0  0.00000000000E+00  0.00000000000E+00  0.74505805969E-08  0.10566000000E+00  0.10566000000E+00 0. -1.
     999900   -1    0    0    0    0 -0.00000000000E+00 -0.00000000000E+00 -0.74505805969E-08  0.93827000000E+00  0.93827000000E+00 0.  1.
     999902    2    1    2    0    0  0.90719178098E-02 -0.79466679880E-02 -0.58882877054E-02  0.10305090776E+01  0.10304216797E+01 0.  0.
     999903    2    3    3    0    0 -0.33612649048E-01  0.11433384962E-01  0.12704732158E+00  0.13929112735E+00  0.44726544352E-01 0.  0.
         14    1    1    2    0    0 -0.90719178098E-02  0.79466679880E-02  0.58882877054E-02  0.13420922359E-01  0.00000000000E+00 0. -1.
     999901    1    3    3    0    0  0.42684566858E-01 -0.19380052950E-01 -0.13293560929E+00  0.89121795029E+00  0.88000000000E+00 0.  1.
        -11    1    4    4    0    0  0.10321685297E-01 -0.31616092815E-02  0.23974252972E-01  0.26297507243E-01  0.51100000000E-03 0. -1.
         11    1    4    4    0    0 -0.43934334345E-01  0.14594994243E-01  0.10307306861E+00  0.11299362011E+00  0.51100000000E-03 0.  1.
</event>
<event>
 8    1  0.1993226E+004  0.1043930E+01  0.7957747E-01            NaN
         13   -1    0    0    0    0  0.00000000000E+00  0.00000000000E+00  0.74505805969E-08  0.10566000000E+00  0.10566000000E+00 0. -1.
     999900   -1    0    0    0    0 -0.00000000000E+00 -0.00000000000E+00 -0.74505805969E-08  0.93827000000E+00  0.93827000000E+00 0. -1.
     999902    2    1    2    0    0 -0.10087436202E-01 -0.83422277928E-02 -0.38274814974E-02  0.10302918642E+01  0.10302015952E+01 0.  0.
     999903    2    3    3    0    0 -0.45361733023E-01 -0.12521441156E+00 -0.17717517049E-01  0.14175581178E+00  0.45215750319E-01 0.  0.
         14    1    1    2    0    0  0.10087436202E-01  0.83422277928E-02  0.38274814974E-02  0.13638135807E-01  0.00000000000E+00 0. -1.
     999901    1    3    3    0    0  0.35274296821E-01  0.11687218377E+00  0.13890035551E-01  0.88853605242E+00  0.88000000000E+00 0. -1.
        -11    1    4    4    0    0 -0.11780881602E-01 -0.94125487668E-01 -0.13005983921E-01  0.95748698889E-01  0.51100000000E-03 0. -1.
         11    1    4    4    0    0 -0.33580851421E-01 -0.31088923892E-01 -0.47115331273E-02  0.46007112888E-01  0.51100000000E-03 0.  1.
</event>
<event>
 8    1  0.1993226E+004  0.1043930E+01  0.7957747E-01            NaN
         13   -1    0    0    0    0  0.00000000000E+00  0.00000000000E+00  0.74505805969E-08  0.10566000000E+00  0.10566000000E+00 0. -1.
     999900   -1    0    0    0    0 -0.00000000000E+00 -0.00000000000E+00 -0.74505805969E-08  0.93827000000E+00  0.93827000000E+00 0.  1.
     999902    2    1    2    0    0 -0.14003502788E-01 -0.22051240613E-02  0.56612410724E-02  0.10286653247E+01  0.10285520599E+01 0.  0.
     999903    2    3    3    0    0 -0.96756350540E-01  0.76872157803E-01  0.48721810336E-01  0.14020853734E+00  0.44872030564E-01 0.  0.
         14    1    1    2    0    0  0.14003502788E-01  0.22051240613E-02 -0.56612410724E-02  0.15264675331E-01  0.00000000000E+00 0.  1.
     999901    1    3    3    0    0  0.82752847751E-01 -0.79077281864E-01 -0.43060569264E-01  0.88845678732E+00  0.88000000000E+00 0. -1.
        -11    1    4    4    0    0 -0.33168338511E-01  0.29279696698E-01 -0.46880658257E-02  0.44493577070E-01  0.51100000000E-03 0. -1.
         11    1    4    4    0    0 -0.63588012029E-01  0.47592461105E-01  0.53409876162E-01  0.95714960275E-01  0.51100000000E-03 0.  1.
</event>
<event>
 8    1  0.1993226E+004  0.1043930E+01  0.7957747E-01            NaN
         13   -1    0    0    0    0  0.00000000000E+00  0.00000000000E+00  0.74505805969E-08  0.10566000000E+00  0.10566000000E+00 0.  1.
     999900   -1    0    0    0    0 -0.00000000000E+00 -0.00000000000E+00 -0.74505805969E-08  0.93827000000E+00  0.93827000000E+00 0.  1.
     999902    2    1    2    0    0  0.78095580370E-02 -0.95075312270E-03  0.12451842029E-01  0.10292010660E+01  0.10290956674E+01 0.  0.
     999903    2    3    3    0    0  0.81428976035E-01 -0.42179874315E-01  0.97502521421E-01  0.14108323751E+00  0.44586077272E-01 0.  0.
         14    1    1    2    0    0 -0.78095580370E-02  0.95075312270E-03 -0.12451842029E-01  0.14728934046E-01  0.00000000000E+00 0. -1.
     999901    1    3    3    0    0 -0.73619417998E-01  0.41229121192E-01 -0.85050679392E-01  0.88811782845E+00  0.88000000000E+00 0. -1.
        -11    1    4    4    0    0  0.61513429225E-01 -0.50820605382E-01  0.81900833255E-01  0.11434440745E+00  0.51100000000E-03 0.  1.
         11    1    4    4    0    0  0.19915546810E-01  0.86407310671E-02  0.15601688166E-01  0.26738830056E-01  0.51100000000E-03 0. -1.
</event>
<event>
 8    1  0.1993226E+004  0.1043930E+01  0.7957747E-01            NaN
         13   -1    0    0    0    0  0.00000000000E+00  0.00000000000E+00  0.74505805969E-08  0.10566000000E+00  0.10566000000E+00 0. -1.
     999900   -1    0    0    0    0 -0.00000000000E+00 -0.00000000000E+00 -0.74505805969E-08  0.93827000000E+00  0.93827000000E+00 0. -1.
     999902    2    1    2    0    0 -0.64179099451E-02 -0.41856131305E-02  0.11595151889E-01  0.10300319256E+01  0.10299381589E+01 0.  0.
     999903    2    3    3    0    0 -0.12217538603E+00  0.25244526798E-01  0.47932591439E-01  0.14122017053E+00  0.45623372921E-01 0.  0.
         14    1    1    2    0    0  0.64179099451E-02  0.41856131305E-02 -0.11595151889E-01  0.13898074423E-01  0.00000000000E+00 0.  1.
     999901    1    3    3    0    0  0.11575747608E+00 -0.29430139928E-01 -0.36337439550E-01  0.88881175505E+00  0.88000000000E+00 0. -1.
        -11    1    4    4    0    0 -0.85201935710E-01  0.38456836223E-01  0.36112560106E-01  0.10021315392E+00  0.51100000000E-03 0.  1.
         11    1    4    4    0    0 -0.36973450319E-01 -0.13212309425E-01  0.11820031332E-01  0.41007016601E-01  0.51100000000E-03 0. -1.
</event>
<event>
 8    1  0.1993226E+004  0.1043930E+01  0.7957747E-01            NaN
         13   -1    0    0    0    0  0.00000000000E+00  0.00000000000E+00  0.74505805969E-08  0.10566000000E+00  0.10566000000E+00 0.  1.
     999900   -1    0    0    0    0 -0.00000000000E+00 -0.00000000000E+00 -0.74505805969E-08  0.93827000000E+00  0.93827000000E+00 0.  1.
     999902    2    1    2    0    0  0.21374050940E-02 -0.12980426353E-01  0.87748816272E-02  0.10281167614E+01  0.10279951442E+01 0.  0.
     999903    2    3    3    0    0 -0.10632594907E+00 -0.75335885696E-01 -0.22439212188E-01  0.13871987461E+00  0.41940222331E-01 0.  0.
         14    1    1    2    0    0 -0.21374050940E-02  0.12980426353E-01 -0.87748816272E-02  0.15813238644E-01  0.00000000000E+00 0. -1.
     999901    1    3    3    0    0  0.10846335416E+00  0.62355459344E-01  0.31214093815E-01  0.88939688675E+00  0.88000000000E+00 0.  1.
        -11    1    4    4    0    0 -0.79069301096E-01 -0.32923985382E-01 -0.67493569397E-02  0.85917158527E-01  0.51100000000E-03 0.  1.
         11    1    4    4    0    0 -0.27256647970E-01 -0.42411900314E-01 -0.15689855248E-01  0.52802716081E-01  0.51100000000E-03 0. -1.
</event>
<event>
 8    1  0.1993226E+004  0.1043930E+01  0.7957747E-01            NaN
         13   -1    0    0    0    0  0.00000000000E+00  0.00000000000E+00  0.74505805969E-08  0.10566000000E+00  0.10566000000E+00 0.  1.
     999900   -1    0    0    0    0 -0.00000000000E+00 -0.00000000000E+00 -0.74505805969E-08  0.93827000000E+00  0.93827000000E+00 0. -1.
     999902    2    1    2    0    0  0.43658190907E-02  0.14435908069E-01  0.46577415083E-02  0.10281455021E+01  0.10280243300E+01 0.  0.
     999903    2    3    3    0    0  0.48870112859E-01  0.11274501138E+00 -0.47619048924E-01  0.14001365672E+00  0.47291909720E-01 0.  0.
         14    1    1    2    0    0 -0.43658190907E-02 -0.14435908069E-01 -0.46577415083E-02  0.15784497904E-01  0.00000000000E+00 0. -1.
     999901    1    3    3    0    0 -0.44504293769E-01 -0.98309103312E-01  0.52276790432E-01  0.88813184538E+00  0.88000000000E+00 0. -1.
        -11    1    4    4    0    0  0.49535812370E-01  0.59833601756E-01 -0.36996892068E-01  0.86040035738E-01  0.51100000000E-03 0.  1.
         11    1    4    4    0    0 -0.66569951043E-03  0.52911409625E-01 -0.10622156856E-01  0.53973620979E-01  0.51100000000E-03 0. -1.
</event>
<event>
 8    1  0.1993226E+004  0.1043930E+01  0.7957747E-01            NaN
         13   -1    0    0    0    0  0.00000000000E+00  0.00000000000E+00  0.74505805969E-08  0.10566000000E+00  0.10566000000E+00 0.  1.
     999900   -1    0    0    0    0 -0.00000000000E+00 -0.00000000000E+00 -0.74505805969E-08  0.93827000000E+00  0.93827000000E+00 0. -1.
     999902    2    1    2    0    0  0.95115085231E-02  0.87972847168E-04 -0.95288322912E-02  0.10304661529E+01  0.10303781913E+01 0.  0.
     999903    2    3    3    0    0 -0.11604481422E+00 -0.14104113872E-01  0.59461506574E-01  0.13876806927E+00  0.45338519493E-01 0.  0.
         14    1    1    2    0    0 -0.95115085231E-02 -0.87972847168E-04  0.95288322912E-02  0.13463847089E-01  0.00000000000E+00 0.  1.
     999901    1    3    3    0    0  0.12555632274E+00  0.14192086719E-01 -0.68990338866E-01  0.89169808364E+00  0.88000000000E+00 0. -1.
        -11    1    4    4    0    0 -0.16949604435E-01 -0.12388862393E-01 -0.35834227827E-02  0.21304343260E-01  0.51100000000E-03 0. -1.
         11    1    4    4    0    0 -0.99095209787E-01 -0.17152514795E-02  0.63044929357E-01  0.11746372601E+00  0.51100000000E-03 0.  1.
</event>
<event>
 8    1  0.1993226E+004  0.1043930E+01  0.7957747E-01            NaN
         13   -1    0    0    0    0  0.00000000000E+00  0.00000000000E+00  0.74505805969E-08  0.10566000000E+00  0.10566000000E+00 0. -1.
     999900   -1    0    0    0    0 -0.00000000000E+00 -0.00000000000E+00 -0.74505805969E-08  0.93827000000E+00  0.93827000000E+00 0.  1.
     999902    2    1    2    0    0 -0.12691366350E-01 -0.23683256475E-02 -0.19814006386E-02  0.10308683885E+01  0.10307856367E+01 0.  0.
     999903    2    3    3    0    0  0.11071285967E+00 -0.54653125503E-01  0.46551019562E-01  0.13939898404E+00  0.44953063361E-01 0.  0.
         14    1    1    2    0    0  0.12691366350E-01  0.23683256475E-02  0.19814006386E-02  0.13061611490E-01  0.00000000000E+00 0. -1.
     999901    1    3    3    0    0 -0.12340422602E+00  0.52284799856E-01 -0.48532420201E-01  0.89146940447E+00  0.88000000000E+00 0. -1.
        -11    1    4    4    0    0  0.19779801687E-01 -0.31797983781E-01  0.99965912426E-02  0.38762679020E-01  0.51100000000E-03 0. -1.
         11    1    4    4    0    0  0.90933057984E-01 -0.22855141722E-01  0.36554428320E-01  0.10063630502E+00  0.51100000000E-03 0.  1.
</event>
<event>
 8    1  0.1993226E+004  0.1043930E+01  0.7957747E-01            NaN
         13   -1    0    0    0    0  0.00000000000E+00  0.00000000000E+00  0.74505805969E-08  0.10566000000E+00  0.10566000000E+00 0.  1.
     999900   -1    0    0    0    0 -0.00000000000E+00 -0.00000000000E+00 -0.74505805969E-08  0.93827000000E+00  0.93827000000E+00 0. -1.
     999902    2    1    2    0    0  0.62483413457E-02  0.12222721120E-01 -0.66302362634E-02  0.10286854366E+01  0.10285724723E+01 0.  0.
     999903    2    3    3    0    0 -0.54990742416E-01  0.85526767095E-02  0.11792370745E+00  0.13779970905E+00  0.44560397269E-01 0.  0.
         14    1    1    2    0    0 -0.62483413457E-02 -0.12222721120E-01  0.66302362634E-02  0.15244563426E-01  0.00000000000E+00 0.  1.
     999901    1    3    3    0    0  0.61239083762E-01  0.36700444105E-02 -0.12455394372E+00  0.89088572752E+00  0.88000000000E+00 0. -1.
        -11    1    4    4    0    0  0.75165150364E-02  0.17536521824E-02  0.19810409695E-01  0.21267034292E-01  0.51100000000E-03 0.  1.
         11    1    4    4    0    0 -0.62507257452E-01  0.67990245270E-02  0.98113297759E-01  0.11653267476E+00  0.51100000000E-03 0. -1.
</event>
<event>
 8    1  0.1993226E+004  0.1043930E+01  0.7957747E-01            NaN
         13   -1    0    0    0    0  0.00000000000E+00  0.00000000000E+00  0.74505805969E-08  0.10566000000E+00  0.10566000000E+00 0.  1.
     999900   -1    0    0    0    0 -0.00000000000E+00 -0.00000000000E+00 -0.74505805969E-08  0.93827000000E+00  0.93827000000E+00 0. -1.
     999902    2    1    2    0    0  0.99137112298E-02 -0.29213038443E-02  0.35316838256E-02  0.10330080736E+01  0.10329503335E+01 0.  0.
     999903    2    3    3    0    0 -0.34232354158E-01 -0.12031083846E+00  0.53196952722E-01  0.14272956834E+00  0.43534606652E-01 0.  0.
         14    1    1    2    0    0 -0.99137112298E-02  0.29213038443E-02 -0.35316838256E-02  0.10921926439E-01  0.00000000000E+00 0. -1.
     999901    1    3    3    0    0  0.44146065388E-01  0.11738953462E+00 -0.49665268896E-01  0.89027850522E+00  0.88000000000E+00 0. -1.
        -11    1    4    4    0    0  0.77458816679E-02 -0.21708559304E-01 -0.68380977250E-04  0.23054848229E-01  0.51100000000E-03 0. -1.
         11    1    4    4    0    0 -0.41978235826E-01 -0.98602279158E-01  0.53265333699E-01  0.11967472011E+00  0.51100000000E-03 0.  1.
</event>
<event>
 8    1  0.1993226E+004  0.1043930E+01  0.7957747E-01            NaN
         13   -1    0    0    0    0  0.00000000000E+00  0.00000000000E+00  0.74505805969E-08  0.10566000000E+00  0.10566000000E+00 0.  1.
     999900   -1    0    0    0    0 -0.00000000000E+00 -0.00000000000E+00 -0.74505805969E-08  0.93827000000E+00  0.93827000000E+00 0. -1.
     999902    2    1    2    0    0 -0.12321282507E-01 -0.76361401748E-03  0.63252144988E-02  0.10300589709E+01  0.10299655713E+01 0.  0.
     999903    2    3    3    0    0  0.66324458708E-01  0.11255400701E+00 -0.16631273171E-01  0.13901854751E+00  0.44522117948E-01 0.  0.
         14    1    1    2    0    0  0.12321282507E-01  0.76361401748E-03 -0.63252144988E-02  0.13871029069E-01  0.00000000000E+00 0. -1.
     999901    1    3    3    0    0 -0.78645741215E-01 -0.11331762103E+00  0.22956487670E-01  0.89104042342E+00  0.88000000000E+00 0. -1.
        -11    1    4    4    0    0  0.50955654148E-01  0.62383309880E-01 -0.28089207738E-01  0.85307800074E-01  0.51100000000E-03 0. -1.
         11    1    4    4    0    0  0.15368804560E-01  0.50170697133E-01  0.11457934567E-01  0.53710747434E-01  0.51100000000E-03 0.  1.
</event>
<event>
 8    1  0.1993226E+004  0.1043930E+01  0.7957747E-01            NaN
         13   -1    0    0    0    0  0.00000000000E+00  0.00000000000E+00  0.74505805969E-08  0.10566000000E+00  0.10566000000E+00 0.  1.
     999900   -1    0    0    0    0 -0.00000000000E+00 -0.00000000000E+00 -0.74505805969E-08  0.93827000000E+00  0.93827000000E+00 0.  1.
     999902    2    1    2    0    0  0.12016420688E-01 -0.52381702188E-02  0.30103933018E-02  0.10304802691E+01  0.10303924931E+01 0.  0.
     999903    2    3    3    0    0  0.35917278842E-01 -0.43337458695E-01 -0.12075509458E+00  0.14068214436E+00  0.45182813440E-01 0.  0.
         14    1    1    2    0    0 -0.12016420688E-01  0.52381702188E-02 -0.30103933018E-02  0.13449730898E-01  0.00000000000E+00 0.  1.
     999901    1    3    3    0    0 -0.23900858153E-01  0.38099288476E-01  0.12376548788E+00  0.88979812474E+00  0.88000000000E+00 0. -1.
        -11    1    4    4    0    0  0.45691752433E-01 -0.27522378480E-01 -0.84362786947E-01  0.99812616938E-01  0.51100000000E-03 0.  1.
         11    1    4    4    0    0 -0.97744735911E-02 -0.15815080215E-01 -0.36392307630E-01  0.40869527423E-01  0.51100000000E-03 0. -1.
</event>
<event>
 8    1  0.1993226E+004  0.1043930E+01  0.7957747E-01            NaN
         13   -1    0    0    0    0  0.00000000000E+00  0.00000000000E+00  0.74505805969E-08  0.10566000000E+00  0.10566000000E+00 0.  1.
     999900   -1    0    0    0    0 -0.00000000000E+00 -0.00000000000E+00 -0.74505805969E-08  0.93827000000E+00  0.93827000000E+00 0.  1.
     999902    2    1    2    0    0  0.11643364059E-01  0.60837472705E-02 -0.19241320795E-02  0.10306528696E+01  0.10305673464E+01 0.  0.
     999903    2    3    3    0    0  0.10634440417E+00 -0.79278007159E-01  0.15674909044E-01  0.14129093969E+00  0.46079194318E-01 0.  0.
         14    1    1    2    0    0 -0.11643364059E-01 -0.60837472705E-02  0.19241320795E-02  0.13277130402E-01  0.00000000000E+00 0.  1.
     999901    1    3    3    0    0 -0.94701040108E-01  0.85361754429E-01 -0.17599041124E-01  0.88936192991E+00  0.88000000000E+00 0.  1.
        -11    1    4    4    0    0  0.26239661961E-01  0.16286336057E-02 -0.45620065295E-03  0.26299078830E-01  0.51100000000E-03 0.  1.
         11    1    4    4    0    0  0.80104742206E-01 -0.80906640764E-01  0.16131109697E-01  0.11499186086E+00  0.51100000000E-03 0. -1.
</event>
<event>
 8    1  0.1993226E+004  0.1043930E+01  0.7957747E-01            NaN
         13   -1    0    0    0    0  0.00000000000E+00  0.00000000000E+00  0.74505805969E-08  0.10566000000E+00  0.10566000000E+00 0. -1.
     999900   -1    0    0    0    0 -0.00000000000E+00 -0.00000000000E+00 -0.74505805969E-08  0.93827000000E+00  0.93827000000E+00 0.  1.
     999902    2    1    2    0    0  0.12979630295E-01 -0.30138794841E-02  0.31029084022E-02  0.10302485413E+01  0.10301576940E+01 0.  0.
     999903    2    3    3    0    0  0.27454231743E-01  0.74452318029E-01  0.11109993772E+00  0.14015085890E+00  0.31657299129E-01 0.  0.
         14    1    1    2    0    0 -0.12979630295E-01  0.30138794841E-02 -0.31029084022E-02  0.13681458720E-01  0.00000000000E+00 0. -1.
     999901    1    3    3    0    0 -0.14474601447E-01 -0.77466197513E-01 -0.10799702932E+00  0.89009768238E+00  0.88000000000E+00 0.  1.
        -11    1    4    4    0    0  0.11771700576E-01  0.61932079018E-01  0.68718580148E-01  0.93255883056E-01  0.51100000000E-03 0.  1.
         11    1    4    4    0    0  0.15682531166E-01  0.12520239011E-01  0.42381357570E-01  0.46894975841E-01  0.51100000000E-03 0. -1.
</event>
<event>
 8    1  0.1993226E+004  0.1043930E+01  0.7957747E-01            NaN
         13   -1    0    0    0    0  0.00000000000E+00  0.00000000000E+00  0.74505805969E-08  0.10566000000E+00  0.10566000000E+00 0.  1.
     999900   -1    0    0    0    0 -0.00000000000E+00 -0.00000000000E+00 -0.74505805969E-08  0.93827000000E+00  0.93827000000E+00 0.  1.
     999902    2    1    2    0    0 -0.83236772253E-02 -0.24200738388E-02  0.10007469463E-01  0.10306902944E+01  0.10306052557E+01 0.  0.
     999903    2    3    3    0    0 -0.66643698567E-02 -0.45737408048E-01  0.12671991886E+00  0.14192657966E+00  0.44146255316E-01 0.  0.
         14    1    1    2    0    0  0.83236772253E-02  0.24200738388E-02 -0.10007469463E-01  0.13239705623E-01  0.00000000000E+00 0. -1.
     999901    1    3    3    0    0 -0.16593073686E-02  0.43317334209E-01 -0.11671244940E+00  0.88876371471E+00  0.88000000000E+00 0.  1.
        -11    1    4    4    0    0  0.13099094679E-01 -0.39159282089E-01  0.98851518593E-01  0.10713038553E+00  0.51100000000E-03 0.  1.
         11    1    4    4    0    0 -0.19763464535E-01 -0.65781259593E-02  0.27868400269E-01  0.34796194133E-01  0.51100000000E-03 0. -1.
</event>
<event>
 8    1  0.1993226E+004  0.1043930E+01  0.7957747E-01            NaN
         13   -1    0    0    0    0  0.00000000000E+00  0.00000000000E+00  0.74505805969E-08  0.10566000000E+00  0.10566000000E+00 0. -1.
     999900   -1    0    0    0    0 -0.00000000000E+00 -0.00000000000E+00 -0.74505805969E-08  0.93827000000E+00  0.93827000000E+00 0.  1.
     999902    2    1    2    0    0  0.92148606688E-02  0.37048583573E-02 -0.92993857530E-02  0.10303241848E+01  0.10302343459E+01 0.  0.
     999903    2    3    3    0    0  0.83858066214E-01 -0.80139229181E-01  0.64420641095E-01  0.14013539496E+00  0.45093664733E-01 0.  0.
         14    1    1    2    0    0 -0.92148606688E-02 -0.37048583573E-02  0.92993857530E-02  0.13605815226E-01  0.00000000000E+00 0. -1.
     999901    1    3    3    0    0 -0.74643205545E-01  0.83844087538E-01 -0.73720026848E-01  0.89018878981E+00  0.88000000000E+00 0.  1.
        -11    1    4    4    0    0  0.59832448120E-01 -0.32454753148E-01  0.20773830144E-01  0.71169136497E-01  0.51100000000E-03 0. -1.
         11    1    4    4    0    0  0.24025618095E-01 -0.47684476033E-01  0.43646810951E-01  0.68966258464E-01  0.51100000000E-03 0.  1.
</event>
<event>
 8    1  0.1993226E+004  0.1043930E+01  0.7957747E-01            NaN
         13   -1    0    0    0    0  0.00000000000E+00  0.00000000000E+00  0.74505805969E-08  0.10566000000E+00  0.10566000000E+00 0.  1.
     999900   -1    0    0    0    0 -0.00000000000E+00 -0.00000000000E+00 -0.74505805969E-08  0.93827000000E+00  0.93827000000E+00 0.  1.
     999902    2    1    2    0    0  0.10584662418E-01 -0.17848991652E-02  0.71463020363E-02  0.10310346297E+01  0.10309539839E+01 0.  0.
     999903    2    3    3    0    0  0.85902622007E-01  0.50860170085E-01  0.90725359775E-01  0.14231096212E+00  0.45335434961E-01 0.  0.
         14    1    1    2    0    0 -0.10584662418E-01  0.17848991652E-02 -0.71463020363E-02  0.12895370345E-01  0.00000000000E+00 0. -1.
     999901    1    3    3    0    0 -0.75317959588E-01 -0.52645069251E-01 -0.83579057739E-01  0.88872366754E+00  0.88000000000E+00 0.  1.
        -11    1    4    4    0    0  0.51802888421E-01  0.15404372743E-01  0.23322597080E-01  0.58864578516E-01  0.51100000000E-03 0.  1.
         11    1    4    4    0    0  0.34099733586E-01  0.35455797342E-01  0.67402762695E-01  0.83446383599E-01  0.51100000000E-03 0. -1.
</event>
<event>
 8    1  0.1993226E+004  0.1043930E+01  0.7957747E-01            NaN
         13   -1    0    0    0    0  0.00000000000E+00  0.00000000000E+00  0.74505805969E-08  0.10566000000E+00  0.10566000000E+00 0.  1.
     999900   -1    0    0    0    0 -0.00000000000E+00 -0.00000000000E+00 -0.74505805969E-08  0.93827000000E+00  0.93827000000E+00 0. -1.
     999902    2    1    2    0    0 -0.66067864454E-02 -0.12178695295E-01  0.37521268401E-02  0.10295756034E+01  0.10294755337E+01 0.  0.
     999903    2    3    3    0    0 -0.83310885309E-01  0.80933690081E-01  0.61164982450E-01  0.13949152248E+00  0.47178002982E-01 0.  0.
         14    1    1    2    0    0  0.66067864454E-02  0.12178695295E-01 -0.37521268401E-02  0.14354396611E-01  0.00000000000E+00 0. -1.
     999901    1    3    3    0    0  0.76704098864E-01 -0.93112385377E-01 -0.57412855610E-01  0.89008408091E+00  0.88000000000E+00 0. -1.
        -11    1    4    4    0    0 -0.82670310317E-01  0.58205522929E-01  0.57910991501E-01  0.11651698230E+00  0.51100000000E-03 0. -1.
         11    1    4    4    0    0 -0.64057499250E-03  0.22728167152E-01  0.32539909498E-02  0.22974540181E-01  0.51100000000E-03 0.  1.
</event>
<event>
 8    1  0.1993226E+004  0.1043930E+01  0.7957747E-01            NaN
         13   -1    0    0    0    0  0.00000000000E+00  0.00000000000E+00  0.74505805969E-08  0.10566000000E+00  0.10566000000E+00 0. -1.
     999900   -1    0    0    0    0 -0.00000000000E+00 -0.00000000000E+00 -0.74505805969E-08  0.93827000000E+00  0.93827000000E+00 0. -1.
     999902    2    1    2    0    0 -0.24199332709E-02  0.48364803945E-02  0.11800692283E-01  0.10309490926E+01  0.10308673666E+01 0.  0.
     999903    2    3    3    0    0 -0.83300765581E-01  0.10402071177E+00  0.18343447441E-01  0.14166734394E+00  0.44427786926E-01 0.  0.
         14    1    1    2    0    0  0.24199332709E-02 -0.48364803945E-02 -0.11800692283E-01  0.12980907441E-01  0.00000000000E+00 0.  1.
     999901    1    3    3    0    0  0.80880832311E-01 -0.99184231372E-01 -0.65427551582E-02  0.88928174862E+00  0.88000000000E+00 0. -1.
        -11    1    4    4    0    0 -0.45134064308E-01  0.86659427989E-01  0.19857026936E-01  0.99707085306E-01  0.51100000000E-03 0. -1.
         11    1    4    4    0    0 -0.38166701274E-01  0.17361283777E-01 -0.15135794947E-02  0.41960258631E-01  0.51100000000E-03 0.  1.
</event>
<event>
 8    1  0.1993226E+004  0.1043930E+01  0.7957747E-01            NaN
         13   -1    0    0    0    0  0.00000000000E+00  0.00000000000E+00  0.74505805969E-08  0.10566000000E+00  0.10566000000E+00 0.  1.
     999900   -1    0    0    0    0 -0.00000000000E+00 -0.00000000000E+00 -0.74505805969E-08  0.93827000000E+00  0.93827000000E+00 0. -1.
     999902    2    1    2    0    0  0.13542201222E-01 -0.26865719586E-02 -0.79452320649E-03  0.10301010394E+01  0.10300082093E+01 0.  0.
     999903    2    3    3    0    0  0.11144159433E-02 -0.10175934819E+00 -0.85635554075E-01  0.14040004172E+00  0.44972399601E-01 0.  0.
         14    1    1    2    0    0 -0.13542201222E-01  0.26865719586E-02  0.79452320649E-03  0.13828960552E-01  0.00000000000E+00 0.  1.
     999901    1    3    3    0    0  0.12427785278E-01  0.99072776235E-01  0.84841030869E-01  0.88970099773E+00  0.88000000000E+00 0.  1.
        -11    1    4    4    0    0 -0.18490415463E-01 -0.72868302185E-01 -0.67582763689E-01  0.10109092935E+00  0.51100000000E-03 0.  1.
         11    1    4    4    0    0  0.19604831407E-01 -0.28891046008E-01 -0.18052790386E-01  0.39309112374E-01  0.51100000000E-03 0. -1.
</event>
<event>
 8    1  0.1993226E+004  0.1043930E+01  0.7957747E-01            NaN
         13   -1    0    0    0    0  0.00000000000E+00  0.00000000000E+00  0.74505805969E-08  0.10566000000E+00  0.10566000000E+00 0. -1.
     999900   -1    0    0    0    0 -0.00000000000E+00 -0.00000000000E+00 -0.74505805969E-08  0.93827000000E+00  0.93827000000E+00 0.  1.
     999902    2    1    2    0    0  0.62707383569E-02  0.79425410874E-02 -0.90870478078E-02  0.10303292443E+01  0.10302394727E+01 0.  0.
     999903    2    3    3    0    0 -0.40663144723E-01  0.29063497701E-01 -0.12415086038E+00  0.14134748678E+00  0.45469744326E-01 0.  0.
         14    1    1    2    0    0 -0.62707383569E-02 -0.79425410874E-02  0.90870478078E-02  0.13600755726E-01  0.00000000000E+00 0. -1.
     999901    1    3    3    0    0  0.46933883079E-01 -0.21120956614E-01  0.11506381257E+00  0.88898175749E+00  0.88000000000E+00 0. -1.
        -11    1    4    4    0    0 -0.32438872555E-01 -0.30518835308E-02 -0.77893602035E-01  0.84434997512E-01  0.51100000000E-03 0.  1.
         11    1    4    4    0    0 -0.82242721673E-02  0.32115381232E-01 -0.46257258345E-01  0.56912489270E-01  0.51100000000E-03 0. -1.
</event>
<event>
 8    1  0.1993226E+004  0.1043930E+01  0.7957747E-01            NaN
         13   -1    0    0    0    0  0.00000000000E+00  0.00000000000E+00  0.74505805969E-08  0.10566000000E+00  0.10566000000E+00 0. -1.
     999900   -1    0    0    0    0 -0.00000000000E+00 -0.00000000000E+00 -0.74505805969E-08  0.93827000000E+00  0.93827000000E+00 0. -1.
     999902    2    1    2    0    0 -0.13862164780E-01  0.53257113127E-02 -0.13137495401E-01  0.10241028318E+01  0.10239108816E+01 0.  0.
     999903    2    3    3    0    0  0.71428479068E-01  0.71356742418E-01  0.72334930324E-01  0.13340640397E+00  0.48694087569E-01 0.  0.
         14    1    1    2    0    0  0.13862164780E-01 -0.53257113127E-02  0.13137495401E-01  0.19827168199E-01  0.00000000000E+00 0. -1.
     999901    1    3    3    0    0 -0.85290643848E-01 -0.66031031105E-01 -0.85472425724E-01  0.89069642783E+00  0.88000000000E+00 0. -1.
        -11    1    4    4    0    0  0.63790116339E-01  0.74028825207E-01  0.76672235876E-01  0.12421086418E+00  0.51100000000E-03 0.  1.
         11    1    4    4    0    0  0.76383627290E-02 -0.26720827891E-02 -0.43373055523E-02  0.91955397920E-02  0.51100000000E-03 0. -1.
</event>
<event>
 8    1  0.1993226E+004  0.1043930E+01  0.7957747E-01            NaN
         13   -1    0    0    0    0  0.00000000000E+00  0.00000000000E+00  0.74505805969E-08  0.10566000000E+00  0.10566000000E+00 0. -1.
     999900   -1    0    0    0    0 -0.00000000000E+00 -0.00000000000E+00 -0.74505805969E-08  0.93827000000E+00  0.93827000000E+00 0.  1.
     999902    2    1    2    0    0  0.66125720337E-03  0.55202057820E-02  0.56657779258E-02  0.10359920549E+01  0.10359616435E+01 0.  0.
     999903    2    3    3    0    0 -0.76126451171E-01  0.99872547958E-01 -0.57479413384E-01  0.14538213365E+00  0.45412767135E-01 0.  0.
         14    1    1    2    0    0 -0.66125720337E-03 -0.55202057820E-02 -0.56657779258E-02  0.79379451037E-02  0.00000000000E+00 0. -1.
     999901    1    3    3    0    0  0.76787708375E-01 -0.94352342176E-01  0.63145191310E-01  0.89060992124E+00  0.88000000000E+00 0.  1.
        -11    1    4    4    0    0 -0.74022904614E-01  0.65519950123E-01 -0.38608903759E-01  0.10612804927E+00  0.51100000000E-03 0. -1.
         11    1    4    4    0    0 -0.21035465576E-02  0.34352597835E-01 -0.18870509625E-01  0.39254084382E-01  0.51100000000E-03 0.  1.
</event>
<event>
 8    1  0.1993226E+004  0.1043930E+01  0.7957747E-01            NaN
         13   -1    0    0    0    0  0.00000000000E+00  0.00000000000E+00  0.74505805969E-08  0.10566000000E+00  0.10566000000E+00 0. -1.
     999900   -1    0    0    0    0 -0.00000000000E+00 -0.00000000000E+00 -0.74505805969E-08  0.93827000000E+00  0.93827000000E+00 0.  1.
     999902    2    1    2    0    0 -0.92989843779E-02  0.84373615120E-02 -0.62987889432E-02  0.10298824051E+01  0.10297865961E+01 0.  0.
     999903    2    3    3    0    0 -0.10357673955E+00  0.67903220052E-01 -0.52316937817E-01  0.14165824790E+00  0.44620723281E-01 0.  0.
         14    1    1    2    0    0  0.92989843779E-02 -0.84373615120E-02  0.62987889432E-02  0.14047594879E-01  0.00000000000E+00 0.  1.
     999901    1    3    3    0    0  0.94277755168E-01 -0.59465858540E-01  0.46018148873E-01  0.88822415722E+00  0.88000000000E+00 0. -1.
        -11    1    4    4    0    0 -0.21692370129E-01  0.34328972018E-01 -0.29698477334E-01  0.50312005710E-01  0.51100000000E-03 0. -1.
         11    1    4    4    0    0 -0.81884369417E-01  0.33574248034E-01 -0.22618460482E-01  0.91346242186E-01  0.51100000000E-03 0.  1.
</event>
<event>
 8    1  0.1993226E+004  0.1043930E+01  0.7957747E-01            NaN
         13   -1    0    0    0    0  0.00000000000E+00  0.00000000000E+00  0.74505805969E-08  0.10566000000E+00  0.10566000000E+00 0.  1.
     999900   -1    0    0    0    0 -0.00000000000E+00 -0.00000000000E+00 -0.74505805969E-08  0.93827000000E+00  0.93827000000E+00 0. -1.
     999902    2    1    2    0    0  0.99537358877E-02  0.79322791024E-02  0.47117793313E-02  0.10303580151E+01  0.10302686254E+01 0.  0.
     999903    2    3    3    0    0  0.51108573776E-02 -0.60863487173E-01  0.11837859108E+00  0.14037124271E+00  0.44273129753E-01 0.  0.
         14    1    1    2    0    0 -0.99537358877E-02 -0.79322791024E-02 -0.47117793313E-02  0.13571984908E-01  0.00000000000E+00 0. -1.
     999901    1    3    3    0    0  0.48428785101E-02  0.68795766275E-01 -0.11366681175E+00  0.88998677239E+00  0.88000000000E+00 0. -1.
        -11    1    4    4    0    0  0.23811957970E-01 -0.37398409880E-01  0.81927680961E-01  0.93156086396E-01  0.51100000000E-03 0.  1.
         11    1    4    4    0    0 -0.18701100592E-01 -0.23465077293E-01  0.36450910120E-01  0.47215156310E-01  0.51100000000E-03 0. -1.
</event>
<event>
 8    1  0.1993226E+004  0.1043930E+01  0.7957747E-01            NaN
         13   -1    0    0    0    0  0.00000000000E+00  0.00000000000E+00  0.74505805969E-08  0.10566000000E+00  0.10566000000E+00 0. -1.
     999900   -1    0    0    0    0 -0.00000000000E+00 -0.00000000000E+00 -0.74505805969E-08  0.93827000000E+00  0.93827000000E+00 0.  1.
     999902    2    1    2    0    0  0.44873410216E-02  0.60657103476E-02  0.81221912215E-02  0.10328440151E+01  0.10327845179E+01 0.  0.
     999903    2    3    3    0    0  0.13037301536E+00  0.19563202788E-01  0.36349071621E-01  0.14333508197E+00  0.42940059121E-01 0.  0.
         14    1    1    2    0    0 -0.44873410216E-02 -0.60657103476E-02 -0.81221912215E-02  0.11085984923E-01  0.00000000000E+00 0.  1.
     999901    1    3    3    0    0 -0.12588567434E+00 -0.13497492440E-01 -0.28226880400E-01  0.88950893311E+00  0.88000000000E+00 0. -1.
        -11    1    4    4    0    0  0.81737049405E-01  0.30624392644E-01  0.33087702405E-01  0.93348036089E-01  0.51100000000E-03 0.  1.
         11    1    4    4    0    0  0.48635965955E-01 -0.11061189856E-01  0.32613692162E-02  0.49987045878E-01  0.51100000000E-03 0. -1.
</event>
<event>
 8    1  0.1993226E+004  0.1043930E+01  0.7957747E-01            NaN
         13   -1    0    0    0    0  0.00000000000E+00  0.00000000000E+00  0.74505805969E-08  0.10566000000E+00  0.10566000000E+00 0. -1.
     999900   -1    0    0    0    0 -0.00000000000E+00 -0.00000000000E+00 -0.74505805969E-08  0.93827000000E+00  0.93827000000E+00 0. -1.
     999902    2    1    2    0    0 -0.66677212970E-02 -0.59485310647E-02 -0.12991450583E-01  0.10281622697E+01  0.10280413570E+01 0.  0.
     999903    2    3    3    0    0 -0.12263180340E+00 -0.10257080925E-01  0.46037071619E-01  0.13858338152E+00  0.44070111832E-01 0.  0.
         14    1    1    2    0    0  0.66677212970E-02  0.59485310647E-02  0.12991450583E-01  0.15767730254E-01  0.00000000000E+00 0. -1.
     999901    1    3    3    0    0  0.11596408210E+00  0.43085498599E-02 -0.59028522201E-01  0.88957888822E+00  0.88000000000E+00 0.  1.
        -11    1    4    4    0    0 -0.78965945058E-01 -0.40279664304E-02  0.51157334015E-01  0.94176318345E-01  0.51100000000E-03 0. -1.
         11    1    4    4    0    0 -0.43665858341E-01 -0.62291144943E-02 -0.51202623960E-02  0.44407063178E-01  0.51100000000E-03 0.  1.
</event>
<event>
 8    1  0.1993226E+004  0.1043930E+01  0.7957747E-01            NaN
         13   -1    0    0    0    0  0.00000000000E+00  0.00000000000E+00  0.74505805969E-08  0.10566000000E+00  0.10566000000E+00 0.  1.
     999900   -1    0    0    0    0 -0.00000000000E+00 -0.00000000000E+00 -0.74505805969E-08  0.93827000000E+00  0.93827000000E+00 0. -1.
     999902    2    1    2    0    0  0.11864498667E-01  0.12320669447E-01 -0.54311735678E-02  0.10259838898E+01  0.10258269246E+01 0.  0.
     999903    2    3    3    0    0 -0.12433024686E-01 -0.10970742066E+00  0.63155913010E-01  0.13458868406E+00  0.43990297528E-01 0.  0.
         14    1    1    2    0    0 -0.11864498667E-01 -0.12320669447E-01  0.54311735678E-02  0.17946110179E-01  0.00000000000E+00 0. -1.
     999901    1    3    3    0    0  0.24297523353E-01  0.12202809011E+00 -0.68587086578E-01  0.89139520577E+00  0.88000000000E+00 0.  1.
        -11    1    4    4    0    0 -0.16383298551E-01 -0.32254747653E-01  0.39365707008E-01  0.53466823608E-01  0.51100000000E-03 0.  1.
         11    1    4    4    0    0  0.39502738646E-02 -0.77452673008E-01  0.23790206002E-01  0.81121860447E-01  0.51100000000E-03 0. -1.
</event>
<event>
 8    1  0.1993226E+004  0.1043930E+01  0.7957747E-01            NaN
         13   -1    0    0    0    0  0.00000000000E+00  0.00000000000E+00  0.74505805969E-08  0.10566000000E+00  0.10566000000E+00 0.  1.
     999900   -1    0    0    0    0 -0.00000000000E+00 -0.00000000000E+00 -0.74505805969E-08  0.93827000000E+00  0.93827000000E+00 0. -1.
     999902    2    1    2    0    0 -0.95528577649E-02  0.23802646067E-02 -0.11071420679E-01  0.10291144977E+01  0.10290078476E+01 0.  0.
     999903    2    3    3    0    0  0.89045772908E-01 -0.89596329698E-01 -0.36975277839E-01  0.13846732087E+00  0.43004369652E-01 0.  0.
         14    1    1    2    0    0  0.95528577649E-02 -0.23802646067E-02  0.11071420679E-01  0.14815502250E-01  0.00000000000E+00 0.  1.
     999901    1    3    3    0    0 -0.98598630672E-01  0.91976594305E-01  0.25903857160E-01  0.89064717688E+00  0.88000000000E+00 0.  1.
        -11    1    4    4    0    0  0.29573618714E-01 -0.49814087279E-01 -0.33295388558E-01  0.66819804216E-01  0.51100000000E-03 0.  1.
         11    1    4    4    0    0  0.59472154193E-01 -0.39782242419E-01 -0.36798892808E-02  0.71647516652E-01  0.51100000000E-03 0. -1.
</event>
<event>
 8    1  0.1993226E+004  0.1043930E+01  0.7957747E-01            NaN
         13   -1    0    0    0    0  0.00000000000E+00  0.00000000000E+00  0.74505805969E-08  0.10566000000E+00  0.10566000000E+00 0. -1.
     999900   -1    0    0    0    0 -0.00000000000E+00 -0.00000000000E+00 -0.74505805969E-08  0.93827000000E+00  0.93827000000E+00 0.  1.
     999902    2    1    2    0    0  0.80807826942E-02  0.40693496234E-02  0.10127342173E-01  0.10303498043E+01  0.10302603057E+01 0.  0.
     999903    2    3    3    0    0  0.13096131715E-03  0.41186110874E-01  0.12781842993E+00  0.14170361726E+00  0.45233297861E-01 0.  0.
         14    1    1    2    0    0 -0.80807826942E-02 -0.40693496234E-02 -0.10127342173E-01  0.13580195683E-01  0.00000000000E+00 0.  1.
     999901    1    3    3    0    0  0.79498213771E-02 -0.37116761251E-01 -0.11769108776E+00  0.88864618705E+00  0.88000000000E+00 0.  1.
        -11    1    4    4    0    0 -0.16005432876E-01  0.11319949932E-02  0.52310602940E-01  0.54718512362E-01  0.51100000000E-03 0.  1.
         11    1    4    4    0    0  0.16136394193E-01  0.40054115881E-01  0.75507826993E-01  0.86985104901E-01  0.51100000000E-03 0. -1.
</event>
<event>
 8    1  0.1993226E+004  0.1043930E+01  0.7957747E-01            NaN
         13   -1    0    0    0    0  0.00000000000E+00  0.00000000000E+00  0.74505805969E-08  0.10566000000E+00  0.10566000000E+00 0.  1.
     999900   -1    0    0    0    0 -0.00000000000E+00 -0.00000000000E+00 -0.74505805969E-08  0.93827000000E+00  0.93827000000E+00 0.  1.
     999902    2    1    2    0    0 -0.84727822548E-02 -0.83954660247E-02 -0.69242429331E-02  0.10301380810E+01  0.10300457509E+01 0.  0.
     999903    2    3    3    0    0 -0.85285746026E-01 -0.10239903015E+00 -0.14210130679E-01  0.14177442484E+00  0.46247593168E-01 0.  0.
         14    1    1    2    0    0  0.84727822548E-02  0.83954660247E-02  0.69242429331E-02  0.13791918978E-01  0.00000000000E+00 0.  1.
     999901    1    3    3    0    0  0.76812963771E-01  0.94003564121E-01  0.72858877459E-02  0.88836365619E+00  0.88000000000E+00 0. -1.
        -11    1    4    4    0    0 -0.66350975093E-01 -0.57300139909E-01 -0.26027688036E-01  0.91451952383E-01  0.51100000000E-03 0.  1.
         11    1    4    4    0    0 -0.18934770933E-01 -0.45098890237E-01  0.11817557356E-01  0.50322472453E-01  0.51100000000E-03 0. -1.
</event>
<event>
 8    1  0.1993226E+004  0.1043930E+01  0.7957747E-01            NaN
         13   -1    0    0    0    0  0.00000000000E+00  0.00000000000E+00  0.74505805969E-08  0.10566000000E+00  0.10566000000E+00 0. -1.
     999900   -1    0    0    0    0 -0.00000000000E+00 -0.00000000000E+00 -0.74505805969E-08  0.93827000000E+00  0.93827000000E+00 0. -1.
     999902    2    1    2    0    0 -0.31359149711E-02 -0.71968727784E-02 -0.12222949474E-01  0.10294031478E+01  0.10293006418E+01 0.  0.
     999903    2    3    3    0    0  0.81756677739E-01 -0.10410904745E+00  0.43441728207E-02  0.13986776829E+00  0.44958565940E-01 0.  0.
         14    1    1    2    0    0  0.31359149711E-02  0.71968727784E-02  0.12222949474E-01  0.14526852183E-01  0.00000000000E+00 0. -1.
     999901    1    3    3    0    0 -0.84892592710E-01  0.96912174674E-01 -0.16567122295E-01  0.88953537953E+00  0.88000000000E+00 0.  1.
        -11    1    4    4    0    0  0.10471372409E-01 -0.47417465330E-01 -0.16386855858E-02  0.48590246654E-01  0.51100000000E-03 0.  1.
         11    1    4    4    0    0  0.71285305329E-01 -0.56691582122E-01  0.59828584064E-02  0.91277521631E-01  0.51100000000E-03 0. -1.
</event>
<event>
 8    1  0.1993226E+004  0.1043930E+01  0.7957747E-01            NaN
         13   -1    0    0    0    0  0.00000000000E+00  0.00000000000E+00  0.74505805969E-08  0.10566000000E+00  0.10566000000E+00 0. -1.
     999900   -1    0    0    0    0 -0.00000000000E+00 -0.00000000000E+00 -0.74505805969E-08  0.93827000000E+00  0.93827000000E+00 0. -1.
     999902    2    1    2    0    0 -0.19760129853E-02  0.12619624202E-01  0.37533806650E-04  0.10311565529E+01  0.10310774343E+01 0.  0.
     999903    2    3    3    0    0  0.72570504820E-01 -0.64171544842E-01  0.90807255629E-01  0.14003747591E+00  0.44497995983E-01 0.  0.
         14    1    1    2    0    0  0.19760129853E-02 -0.12619624202E-01 -0.37533806650E-04  0.12773447111E-01  0.00000000000E+00 0. -1.
     999901    1    3    3    0    0 -0.74546517806E-01  0.76791169043E-01 -0.90769721823E-01  0.89111907698E+00  0.88000000000E+00 0. -1.
        -11    1    4    4    0    0  0.52110010279E-01 -0.68107232308E-01  0.73612511921E-01  0.11301819011E+00  0.51100000000E-03 0. -1.
         11    1    4    4    0    0  0.20460494541E-01  0.39356874666E-02  0.17194743708E-01  0.27019285796E-01  0.51100000000E-03 0.  1.
</event>
<event>
 8    1  0.1993226E+004  0.1043930E+01  0.7957747E-01            NaN
         13   -1    0    0    0    0  0.00000000000E+00  0.00000000000E+00  0.74505805969E-08  0.10566000000E+00  0.10566000000E+00 0. -1.
     999900   -1    0    0    0    0 -0.00000000000E+00 -0.00000000000E+00 -0.74505805969E-08  0.93827000000E+00  0.93827000000E+00 0.  1.
     999902    2    1    2    0    0  0.11271138166E-01 -0.58589820685E-02  0.22333937082E-02  0.10310321601E+01  0.10309514833E+01 0.  0.
     999903    2    3    3    0    0  0.12524491193E+00 -0.34126631386E-01 -0.37152864882E-01  0.14235879015E+00  0.45108478463E-01 0.  0.
         14    1    1    2    0    0 -0.11271138166E-01  0.58589820685E-02 -0.22333937082E-02  0.12897839892E-01  0.00000000000E+00 0. -1.
     999901    1    3    3    0    0 -0.11397377377E+00  0.28267649317E-01  0.39386258590E-01  0.88867336996E+00  0.88000000000E+00 0. -1.
        -11    1    4    4    0    0  0.78020275843E-01  0.11432623677E-02 -0.15442443113E-01  0.79543702841E-01  0.51100000000E-03 0.  1.
         11    1    4    4    0    0  0.47224636091E-01 -0.35269893753E-01 -0.21710421769E-01  0.62815087309E-01  0.51100000000E-03 0. -1.
</event>
<event>
 8    1  0.1993226E+004  0.1043930E+01  0.7957747E-01            NaN
         13   -1    0    0    0    0  0.00000000000E+00  0.00000000000E+00  0.74505805969E-08  0.10566000000E+00  0.10566000000E+00 0. -1.
     999900   -1    0    0    0    0 -0.00000000000E+00 -0.00000000000E+00 -0.74505805969E-08  0.93827000000E+00  0.93827000000E+00 0.  1.
     999902    2    1    2    0    0  0.10046223964E-01 -0.89476567721E-02  0.19028294589E-02  0.10303429496E+01  0.10302533601E+01 0.  0.
     999903    2    3    3    0    0 -0.12469490220E+00 -0.17075752759E-01 -0.39122982267E-01  0.13910540877E+00  0.44489403669E-01 0.  0.
         14    1    1    2    0    0 -0.10046223964E-01  0.89476567721E-02 -0.19028294589E-02  0.13587050364E-01  0.00000000000E+00 0. -1.
     999901    1    3    3    0    0  0.13474112617E+00  0.81280959873E-02  0.41025811726E-01  0.89123754087E+00  0.88000000000E+00 0. -1.
        -11    1    4    4    0    0 -0.86667629381E-01 -0.28397408576E-02 -0.63958793721E-02  0.86951196108E-01  0.51100000000E-03 0.  1.
         11    1    4    4    0    0 -0.38027272824E-01 -0.14236011902E-01 -0.32727102895E-01  0.52154212660E-01  0.51100000000E-03 0. -1.
</event>
<event>
 8    1  0.1993226E+004  0.1043930E+01  0.7957747E-01            NaN
         13   -1    0    0    0    0  0.00000000000E+00  0.00000000000E+00  0.74505805969E-08  0.10566000000E+00  0.10566000000E+00 0. -1.
     999900   -1    0    0    0    0 -0.00000000000E+00 -0.00000000000E+00 -0.74505805969E-08  0.93827000000E+00  0.93827000000E+00 0. -1.
     999902    2    1    2    0    0 -0.84555674126E-03 -0.55804264067E-03  0.14216803552E-01  0.10296771448E+01  0.10295784956E+01 0.  0.
     999903    2    3    3    0    0  0.23299105881E-01 -0.30520039712E-02 -0.12813569240E+00  0.13790732155E+00  0.45249426579E-01 0.  0.
         14    1    1    2    0    0  0.84555674126E-03  0.55804264067E-03 -0.14216803552E-01  0.14252855189E-01  0.00000000000E+00 0.  1.
     999901    1    3    3    0    0 -0.24144662622E-01  0.24939613306E-02  0.14235249596E+00  0.89176982326E+00  0.88000000000E+00 0. -1.
        -11    1    4    4    0    0  0.17786714094E-01  0.72263028499E-02 -0.15531863763E-01  0.24699930447E-01  0.51100000000E-03 0.  1.
         11    1    4    4    0    0  0.55123917871E-02 -0.10278306821E-01 -0.11260382864E+00  0.11320739110E+00  0.51100000000E-03 0. -1.
</event>
<event>
 8    1  0.1993226E+004  0.1043930E+01  0.7957747E-01            NaN
         13   -1    0    0    0    0  0.00000000000E+00  0.00000000000E+00  0.74505805969E-08  0.10566000000E+00  0.10566000000E+00 0. -1.
     999900   -1    0    0    0    0 -0.00000000000E+00 -0.00000000000E+00 -0.74505805969E-08  0.93827000000E+00  0.93827000000E+00 0.  1.
     999902    2    1    2    0    0 -0.20014607614E-02 -0.15787522014E-02  0.14880448062E-01  0.10288327804E+01  0.10287220053E+01 0.  0.
     999903    2    3    3    0    0  0.49644833242E-01  0.12100489034E+00  0.11210277810E-01  0.13882853369E+00  0.45176304453E-01 0.  0.
         14    1    1    2    0    0  0.20014607614E-02  0.15787522014E-02 -0.14880448062E-01  0.15097219552E-01  0.00000000000E+00 0.  1.
     999901    1    3    3    0    0 -0.51646294004E-01 -0.12258364254E+00  0.36701702513E-02  0.89000424676E+00  0.88000000000E+00 0. -1.
        -11    1    4    4    0    0  0.40224048215E-01  0.64123075442E-01  0.24677499701E-01  0.79617730258E-01  0.51100000000E-03 0.  1.
         11    1    4    4    0    0  0.94207850272E-02  0.56881814895E-01 -0.13467221890E-01  0.59210803429E-01  0.51100000000E-03 0. -1.
</event>
<event>
 8    1  0.1993226E+004  0.1043930E+01  0.7957747E-01            NaN
         13   -1    0    0    0    0  0.00000000000E+00  0.00000000000E+00  0.74505805969E-08  0.10566000000E+00  0.10566000000E+00 0. -1.
     999900   -1    0    0    0    0 -0.00000000000E+00 -0.00000000000E+00 -0.74505805969E-08  0.93827000000E+00  0.93827000000E+00 0.  1.
     999902    2    1    2    0    0  0.11908170895E-04 -0.85582553448E-02  0.10286722270E-01  0.10305486499E+01  0.10304617699E+01 0.  0.
     999903    2    3    3    0    0 -0.45212626438E-01 -0.12468861625E+00 -0.18331868026E-01  0.14130709496E+00  0.45168629497E-01 0.  0.
         14    1    1    2    0    0 -0.11908170895E-04  0.85582553448E-02 -0.10286722270E-01  0.13381350134E-01  0.00000000000E+00 0.  1.
     999901    1    3    3    0    0  0.45224534609E-01  0.11613036090E+00  0.28618590295E-01  0.88924155490E+00  0.88000000000E+00 0.  1.
        -11    1    4    4    0    0 -0.32483136048E-01 -0.65018690465E-01 -0.30954787707E-01  0.79000280001E-01  0.51100000000E-03 0.  1.
         11    1    4    4    0    0 -0.12729490390E-01 -0.59669925783E-01  0.12622919682E-01  0.62306814963E-01  0.51100000000E-03 0. -1.
</event>
<event>
 8    1  0.1993226E+004  0.1043930E+01  0.7957747E-01            NaN
         13   -1    0    0    0    0  0.00000000000E+00  0.00000000000E+00  0.74505805969E-08  0.10566000000E+00  0.10566000000E+00 0.  1.
     999900   -1    0    0    0    0 -0.00000000000E+00 -0.00000000000E+00 -0.74505805969E-08  0.93827000000E+00  0.93827000000E+00 0.  1.
     999902    2    1    2    0    0 -0.16427089509E-02 -0.28075467493E-02 -0.12777673911E-01  0.10307447900E+01  0.10306604545E+01 0.  0.
     999903    2    3    3    0    0  0.90137226553E-01 -0.65230635853E-01  0.71404289455E-01  0.13978642873E+00  0.45408343280E-01 0.  0.
         14    1    1    2    0    0  0.16427089509E-02  0.28075467493E-02  0.12777673911E-01  0.13185209972E-01  0.00000000000E+00 0.  1.
     999901    1    3    3    0    0 -0.91779935503E-01  0.62423089104E-01 -0.84181963366E-01  0.89095836130E+00  0.88000000000E+00 0.  1.
        -11    1    4    4    0    0  0.49963957478E-01 -0.23009337709E-01  0.58089262354E-01  0.80002813642E-01  0.51100000000E-03 0. -1.
         11    1    4    4    0    0  0.40173269074E-01 -0.42221298144E-01  0.13315027101E-01  0.59783615086E-01  0.51100000000E-03 0.  1.
</event>
<event>
 8    1  0.1993226E+004  0.1043930E+01  0.7957747E-01            NaN
         13   -1    0    0    0    0  0.00000000000E+00  0.00000000000E+00  0.74505805969E-08  0.10566000000E+00  0.10566000000E+00 0. -1.
     999900   -1    0    0    0    0 -0.00000000000E+00 -0.00000000000E+00 -0.74505805969E-08  0.93827000000E+00  0.93827000000E+00 0. -1.
     999902    2    1    2    0    0  0.10867874780E-01  0.55405379229E-02  0.59320069055E-02  0.10303654518E+01  0.10302761607E+01 0.  0.
     999903    2    3    3    0    0  0.56907241801E-01  0.10183426862E+00 -0.65137446653E-01  0.14107192705E+00  0.45274156086E-01 0.  0.
         14    1    1    2    0    0 -0.10867874780E-01 -0.55405379229E-02 -0.59320069055E-02  0.13564548228E-01  0.00000000000E+00 0.  1.
     999901    1    3    3    0    0 -0.46039367021E-01 -0.96293730698E-01  0.71069453559E-01  0.88929352472E+00  0.88000000000E+00 0.  1.
        -11    1    4    4    0    0  0.20940097719E-01  0.52435039806E-01 -0.55564575800E-01  0.79218711785E-01  0.51100000000E-03 0. -1.
         11    1    4    4    0    0  0.35967144082E-01  0.49399228815E-01 -0.95728708527E-02  0.61853215263E-01  0.51100000000E-03 0.  1.
</event>
<event>
 8    1  0.1993226E+004  0.1043930E+01  0.7957747E-01            NaN
         13   -1    0    0    0    0  0.00000000000E+00  0.00000000000E+00  0.74505805969E-08  0.10566000000E+00  0.10566000000E+00 0. -1.
     999900   -1    0    0    0    0 -0.00000000000E+00 -0.00000000000E+00 -0.74505805969E-08  0.93827000000E+00  0.93827000000E+00 0. -1.
     999902    2    1    2    0    0 -0.42957154552E-03 -0.12343760485E-01  0.37828022765E-02  0.10310124713E+01  0.10309315464E+01 0.  0.
     999903    2    3    3    0    0  0.64214025752E-02  0.12707568416E+00 -0.33997979154E-01  0.13920974377E+00  0.45100180245E-01 0.  0.
         14    1    1    2    0    0  0.42957154552E-03  0.12343760485E-01 -0.37828022765E-02  0.12917528698E-01  0.00000000000E+00 0.  1.
     999901    1    3    3    0    0 -0.68509741207E-02 -0.13941944464E+00  0.37780781431E-01  0.89180272753E+00  0.88000000000E+00 0.  1.
        -11    1    4    4    0    0  0.13297202857E-01  0.24798186241E-01 -0.22550007598E-01  0.36062856353E-01  0.51100000000E-03 0.  1.
         11    1    4    4    0    0 -0.68758002814E-02  0.10227749792E+00 -0.11447971556E-01  0.10314688741E+00  0.51100000000E-03 0. -1.
</event>
<event>
 8    1  0.1993226E+004  0.1043930E+01  0.7957747E-01            NaN
         13   -1    0    0    0    0  0.00000000000E+00  0.00000000000E+00  0.74505805969E-08  0.10566000000E+00  0.10566000000E+00 0.  1.
     999900   -1    0    0    0    0 -0.00000000000E+00 -0.00000000000E+00 -0.74505805969E-08  0.93827000000E+00  0.93827000000E+00 0. -1.
     999902    2    1    2    0    0  0.13416737998E-01  0.35936680627E-02  0.94663474074E-03  0.10300080955E+01  0.10299140048E+01 0.  0.
     999903    2    3    3    0    0 -0.91250445871E-01  0.60206466063E-01  0.73644777161E-01  0.13902815843E+00  0.44201959309E-01 0.  0.
         14    1    1    2    0    0 -0.13416737998E-01 -0.35936680627E-02 -0.94663474074E-03  0.13921904539E-01  0.00000000000E+00 0. -1.
     999901    1    3    3    0    0  0.10466718387E+00 -0.56612798001E-01 -0.72698142420E-01  0.89097993703E+00  0.88000000000E+00 0. -1.
        -11    1    4    4    0    0 -0.57055275126E-01  0.55506779659E-01  0.66616731475E-01  0.10379960039E+00  0.51100000000E-03 0.  1.
         11    1    4    4    0    0 -0.34195170745E-01  0.46996864043E-02  0.70280456854E-02  0.35228558042E-01  0.51100000000E-03 0. -1.
</event>
<event>
 8    1  0.1993226E+004  0.1043930E+01  0.7957747E-01            NaN
         13   -1    0    0    0    0  0.00000000000E+00  0.00000000000E+00  0.74505805969E-08  0.10566000000E+00  0.10566000000E+00 0.  1.
     999900   -1    0    0    0    0 -0.00000000000E+00 -0.00000000000E+00 -0.74505805969E-08  0.93827000000E+00  0.93827000000E+00 0.  1.
     999902    2    1    2    0    0 -0.59562106601E-02 -0.78268171710E-02 -0.11360316297E-01  0.10289036132E+01  0.10287938827E+01 0.  0.
     999903    2    3    3    0    0 -0.89889007364E-02 -0.75370200185E-01 -0.10972728958E+00  0.14084541289E+00  0.45120780573E-01 0.  0.
         14    1    1    2    0    0  0.59562106601E-02  0.78268171710E-02  0.11360316297E-01  0.15026386752E-01  0.00000000000E+00 0.  1.
     999901    1    3    3    0    0  0.30326900763E-02  0.67543383014E-01  0.98366973284E-01  0.88805820036E+00  0.88000000000E+00 0. -1.
        -11    1    4    4    0    0 -0.81774488248E-02 -0.12198808430E-01 -0.54948011265E-03  0.14705259120E-01  0.51100000000E-03 0. -1.
         11    1    4    4    0    0 -0.81145191158E-03 -0.63171391755E-01 -0.10917780947E+00  0.12614015377E+00  0.51100000000E-03 0.  1.
</event>
<event>
 8    1  0.2785026E+004  0.1043930E+01  0.7957747E-01            NaN
         13   -1    0    0    0    0  0.00000000000E+00  0.00000000000E+00  0.74505805969E-08  0.10566000000E+00  0.10566000000E+00 0.  1.
     999900   -1    0    0    0    0 -0.00000000000E+00 -0.00000000000E+00 -0.74505805969E-08  0.93827000000E+00  0.93827000000E+00 0. -1.
     999902    2    1    2    0    0 -0.45840343779E-03  0.22815634759E-02 -0.13872557181E-01  0.10298636036E+01  0.10297675361E+01 0.  0.
     999903    2    3    3    0    0  0.12821815185E+00 -0.11738041935E-01  0.29705056305E-01  0.13932825132E+00  0.44184784183E-01 0.  0.
         14    1    1    2    0    0  0.45840343779E-03 -0.22815634759E-02  0.13872557181E-01  0.14066396424E-01  0.00000000000E+00 0.  1.
     999901    1    3    3    0    0 -0.12867655529E+00  0.14019605411E-01 -0.43577613486E-01  0.89053535225E+00  0.88000000000E+00 0. -1.
        -11    1    4    4    0    0  0.24376389215E-01 -0.46423063144E-02  0.24862225164E-01  0.35130481355E-01  0.51100000000E-03 0. -1.
         11    1    4    4    0    0  0.10384176264E+00 -0.70957356207E-02  0.48428311410E-02  0.10419776997E+00  0.51100000000E-03 0.  1.
</event>
<event>
 8    1  0.1993226E+004  0.1043930E+01  0.7957747E-01            NaN
         13   -1    0    0    0    0  0.00000000000E+00  0.00000000000E+00  0.74505805969E-08  0.10566000000E+00  0.10566000000E+00 0. -1.
     999900   -1    0    0    0    0 -0.00000000000E+00 -0.00000000000E+00 -0.74505805969E-08  0.93827000000E+00  0.93827000000E+00 0.  1.
     999902    2    1    2    0    0 -0.27650612976E-02  0.99115118998E-02  0.95042312022E-02  0.10299223577E+01  0.10298270966E+01 0.  0.
     999903    2    3    3    0    0  0.95199368637E-01 -0.90310837679E-01 -0.64620512854E-02  0.13868923945E+00  0.44429492917E-01 0.  0.
         14    1    1    2    0    0  0.27650612976E-02 -0.99115118998E-02 -0.95042312022E-02  0.14007642302E-01  0.00000000000E+00 0.  1.
     999901    1    3    3    0    0 -0.97964429935E-01  0.10022234958E+00  0.15966282488E-01  0.89123311825E+00  0.88000000000E+00 0. -1.
        -11    1    4    4    0    0  0.22116956313E-01 -0.50505295368E-01  0.87648888804E-03  0.55145026707E-01  0.51100000000E-03 0.  1.
         11    1    4    4    0    0  0.73082412324E-01 -0.39805542312E-01 -0.73385401735E-02  0.83544212742E-01  0.51100000000E-03 0. -1.
</event>
<event>
 8    1  0.1993226E+004  0.1043930E+01  0.7957747E-01            NaN
         13   -1    0    0    0    0  0.00000000000E+00  0.00000000000E+00  0.74505805969E-08  0.10566000000E+00  0.10566000000E+00 0. -1.
     999900   -1    0    0    0    0 -0.00000000000E+00 -0.00000000000E+00 -0.74505805969E-08  0.93827000000E+00  0.93827000000E+00 0. -1.
     999902    2    1    2    0    0 -0.37200568332E-02 -0.64643806680E-02 -0.12436690430E-01  0.10294283343E+01  0.10293261859E+01 0.  0.
     999903    2    3    3    0    0  0.10892425026E+00  0.21798983443E-01  0.68664683912E-01  0.13810067813E+00  0.44914034661E-01 0.  0.
         14    1    1    2    0    0  0.37200568332E-02  0.64643806680E-02  0.12436690430E-01  0.14501665736E-01  0.00000000000E+00 0. -1.
     999901    1    3    3    0    0 -0.11264430709E+00 -0.28263364111E-01 -0.81101374342E-01  0.89132765614E+00  0.88000000000E+00 0. -1.
        -11    1    4    4    0    0  0.41127372656E-01  0.15089694655E-01  0.37086132126E-02  0.43967881451E-01  0.51100000000E-03 0. -1.
         11    1    4    4    0    0  0.67796877602E-01  0.67092887883E-02  0.64956070700E-01  0.94132796678E-01  0.51100000000E-03 0.  1.
</event>
<event>
 8    1  0.1993226E+004  0.1043930E+01  0.7957747E-01            NaN
         13   -1    0    0    0    0  0.00000000000E+00  0.00000000000E+00  0.74505805969E-08  0.10566000000E+00  0.10566000000E+00 0. -1.
     999900   -1    0    0    0    0 -0.00000000000E+00 -0.00000000000E+00 -0.74505805969E-08  0.93827000000E+00  0.93827000000E+00 0.  1.
     999902    2    1    2    0    0  0.13028267982E-01  0.42286186760E-02  0.24997390561E-02  0.10300064344E+01  0.10299123212E+01 0.  0.
     999903    2    3    3    0    0  0.11075852405E-01 -0.18791635427E-01  0.13129102049E+00  0.14033180954E+00  0.44495894611E-01 0.  0.
         14    1    1    2    0    0 -0.13028267982E-01 -0.42286186760E-02 -0.24997390561E-02  0.13923565559E-01  0.00000000000E+00 0. -1.
     999901    1    3    3    0    0  0.19524155773E-02  0.23020254104E-01 -0.12879128144E+00  0.88967462490E+00  0.88000000000E+00 0.  1.
        -11    1    4    4    0    0 -0.14670323122E-01 -0.17903434057E-02  0.71878352148E-01  0.73383801609E-01  0.51100000000E-03 0. -1.
         11    1    4    4    0    0  0.25746175527E-01 -0.17001292022E-01  0.59412668344E-01  0.66948007928E-01  0.51100000000E-03 0.  1.
</event>
<event>
 8    1  0.1993226E+004  0.1043930E+01  0.7957747E-01            NaN
         13   -1    0    0    0    0  0.00000000000E+00  0.00000000000E+00  0.74505805969E-08  0.10566000000E+00  0.10566000000E+00 0.  1.
     999900   -1    0    0    0    0 -0.00000000000E+00 -0.00000000000E+00 -0.74505805969E-08  0.93827000000E+00  0.93827000000E+00 0.  1.
     999902    2    1    2    0    0  0.93544866070E-02 -0.91575625713E-02 -0.44315904486E-02  0.10301094947E+01  0.10300167789E+01 0.  0.
     999903    2    3    3    0    0 -0.78710347198E-01  0.78705436852E-01 -0.68485415934E-01  0.13905494299E+00  0.47499057134E-01 0.  0.
         14    1    1    2    0    0 -0.93544866070E-02  0.91575625713E-02  0.44315904486E-02  0.13820505267E-01  0.00000000000E+00 0. -1.
     999901    1    3    3    0    0  0.88064833805E-01 -0.87862999423E-01  0.64053825485E-01  0.89105455174E+00  0.88000000000E+00 0.  1.
        -11    1    4    4    0    0 -0.42973506252E-01  0.32212585681E-01 -0.71269810247E-02  0.54179589288E-01  0.51100000000E-03 0.  1.
         11    1    4    4    0    0 -0.35736840946E-01  0.46492851170E-01 -0.61358434909E-01  0.84875353703E-01  0.51100000000E-03 0. -1.
</event>
<event>
 8    1  0.1993226E+004  0.1043930E+01  0.7957747E-01            NaN
         13   -1    0    0    0    0  0.00000000000E+00  0.00000000000E+00  0.74505805969E-08  0.10566000000E+00  0.10566000000E+00 0.  1.
     999900   -1    0    0    0    0 -0.00000000000E+00 -0.00000000000E+00 -0.74505805969E-08  0.93827000000E+00  0.93827000000E+00 0.  1.
     999902    2    1    2    0    0 -0.25763293160E-02 -0.84317039285E-02 -0.32598718250E-02  0.10345301134E+01  0.10344874082E+01 0.  0.
     999903    2    3    3    0    0  0.13549312666E+00 -0.14787593978E-01 -0.67935120400E-02  0.14373493007E+00  0.45127796415E-01 0.  0.
         14    1    1    2    0    0  0.25763293160E-02  0.84317039285E-02  0.32598718250E-02  0.93998866056E-02  0.00000000000E+00 0. -1.
     999901    1    3    3    0    0 -0.13806945598E+00  0.63558900496E-02  0.35336402150E-02  0.89079518332E+00  0.88000000000E+00 0. -1.
        -11    1    4    4    0    0  0.11356476907E+00 -0.19957931888E-01 -0.20848281611E-01  0.11717588398E+00  0.51100000000E-03 0.  1.
         11    1    4    4    0    0  0.21928357591E-01  0.51703379102E-02  0.14054769571E-01  0.26559046094E-01  0.51100000000E-03 0. -1.
</event>
<event>
 8    1  0.1993226E+004  0.1043930E+01  0.7957747E-01            NaN
         13   -1    0    0    0    0  0.00000000000E+00  0.00000000000E+00  0.74505805969E-08  0.10566000000E+00  0.10566000000E+00 0.  1.
     999900   -1    0    0    0    0 -0.00000000000E+00 -0.00000000000E+00 -0.74505805969E-08  0.93827000000E+00  0.93827000000E+00 0. -1.
     999902    2    1    2    0    0  0.33314358291E-02  0.62143542247E-02 -0.12454365016E-01  0.10296181912E+01  0.10295187185E+01 0.  0.
     999903    2    3    3    0    0  0.64453821147E-02  0.11959597844E+00 -0.59261479372E-01  0.14110482871E+00  0.45320069933E-01 0.  0.
         14    1    1    2    0    0 -0.33314358291E-02 -0.62143542247E-02  0.12454365016E-01  0.14311808798E-01  0.00000000000E+00 0.  1.
     999901    1    3    3    0    0 -0.31139462856E-02 -0.11338162422E+00  0.46807114356E-01  0.88851336249E+00  0.88000000000E+00 0.  1.
        -11    1    4    4    0    0  0.10952169726E-01  0.50362001937E-01 -0.27406081032E-02  0.51614468075E-01  0.51100000000E-03 0.  1.
         11    1    4    4    0    0 -0.45067876113E-02  0.69233976502E-01 -0.56520871269E-01  0.89490360637E-01  0.51100000000E-03 0. -1.
</event>
<event>
 8    1  0.1993226E+004  0.1043930E+01  0.7957747E-01            NaN
         13   -1    0    0    0    0  0.00000000000E+00  0.00000000000E+00  0.74505805969E-08  0.10566000000E+00  0.10566000000E+00 0.  1.
     999900   -1    0    0    0    0 -0.00000000000E+00 -0.00000000000E+00 -0.74505805969E-08  0.93827000000E+00  0.93827000000E+00 0.  1.
     999902    2    1    2    0    0  0.82735427019E-02 -0.10869749199E-01  0.25028154851E-03  0.10302674381E+01  0.10301768433E+01 0.  0.
     999903    2    3    3    0    0 -0.85500223037E-01 -0.62584142186E-01  0.76789052894E-01  0.14047752971E+00  0.51091239123E-01 0.  0.
         14    1    1    2    0    0 -0.82735427019E-02  0.10869749199E-01 -0.25028154851E-03  0.13662561888E-01  0.00000000000E+00 0.  1.
     999901    1    3    3    0    0  0.93773765739E-01  0.51714392988E-01 -0.76538771346E-01  0.88978990841E+00  0.88000000000E+00 0.  1.
        -11    1    4    4    0    0 -0.27565267706E-01 -0.95185005786E-03  0.21555293039E-02  0.27670515532E-01  0.51100000000E-03 0.  1.
         11    1    4    4    0    0 -0.57934955332E-01 -0.61632292128E-01  0.74633523591E-01  0.11280701417E+00  0.51100000000E-03 0. -1.
</event>
<event>
 8    1  0.1993226E+004  0.1043930E+01  0.7957747E-01            NaN
         13   -1    0    0    0    0  0.00000000000E+00  0.00000000000E+00  0.74505805969E-08  0.10566000000E+00  0.10566000000E+00 0.  1.
     999900   -1    0    0    0    0 -0.00000000000E+00 -0.00000000000E+00 -0.74505805969E-08  0.93827000000E+00  0.93827000000E+00 0.  1.
     999902    2    1    2    0    0 -0.26934319915E-02  0.64292601220E-02  0.13479431975E-01  0.10287548543E+01  0.10286429240E+01 0.  0.
     999903    2    3    3    0    0  0.75659694061E-01  0.68786221900E-02 -0.10501200854E+00  0.13736288899E+00  0.45489961380E-01 0.  0.
         14    1    1    2    0    0  0.26934319915E-02 -0.64292601220E-02 -0.13479431975E-01  0.15175145731E-01  0.00000000000E+00 0. -1.
     999901    1    3    3    0    0 -0.78353126053E-01 -0.44936206796E-03  0.11849144051E+00  0.89139196528E+00  0.88000000000E+00 0. -1.
        -11    1    4    4    0    0  0.35803534936E-01 -0.57926372651E-02 -0.81909109257E-01  0.89581309773E-01  0.51100000000E-03 0. -1.
         11    1    4    4    0    0  0.39856159126E-01  0.12671259455E-01 -0.23102899279E-01  0.47781579218E-01  0.51100000000E-03 0.  1.
</event>
<event>
 8    1  0.1993226E+004  0.1043930E+01  0.7957747E-01            NaN
         13   -1    0    0    0    0  0.00000000000E+00  0.00000000000E+00  0.74505805969E-08  0.10566000000E+00  0.10566000000E+00 0. -1.
     999900   -1    0    0    0    0 -0.00000000000E+00 -0.00000000000E+00 -0.74505805969E-08  0.93827000000E+00  0.93827000000E+00 0. -1.
     999902    2    1    2    0    0 -0.10754328186E-01 -0.62221752894E-02 -0.15528202243E-01  0.10240429161E+01  0.10238497927E+01 0.  0.
     999903    2    3    3    0    0  0.76980429457E-01 -0.84655931914E-01 -0.56374060791E-01  0.13526981458E+00  0.45025267107E-01 0.  0.
         14    1    1    2    0    0  0.10754328186E-01  0.62221752894E-02  0.15528202243E-01  0.19887083873E-01  0.00000000000E+00 0.  1.
     999901    1    3    3    0    0 -0.87734757643E-01  0.78433756625E-01  0.40845858548E-01  0.88877310155E+00  0.88000000000E+00 0. -1.
        -11    1    4    4    0    0  0.53411515655E-01 -0.44002689106E-01 -0.54757808681E-01  0.88247976667E-01  0.51100000000E-03 0. -1.
         11    1    4    4    0    0  0.23568913802E-01 -0.40653242809E-01 -0.16162521100E-02  0.47021837911E-01  0.51100000000E-03 0.  1.
</event>
<event>
 8    1  0.1993226E+004  0.1043930E+01  0.7957747E-01            NaN
         13   -1    0    0    0    0  0.00000000000E+00  0.00000000000E+00  0.74505805969E-08  0.10566000000E+00  0.10566000000E+00 0. -1.
     999900   -1    0    0    0    0 -0.00000000000E+00 -0.00000000000E+00 -0.74505805969E-08  0.93827000000E+00  0.93827000000E+00 0.  1.
     999902    2    1    2    0    0 -0.93936959145E-02  0.10838730920E-01 -0.13315499086E-02  0.10295253953E+01  0.10294246194E+01 0.  0.
     999903    2    3    3    0    0  0.96036193957E-01  0.41880499488E-01  0.75579013844E-01  0.13936008040E+00  0.52269665073E-01 0.  0.
         14    1    1    2    0    0  0.93936959145E-02 -0.10838730920E-01  0.13315499086E-02  0.14404604682E-01  0.00000000000E+00 0.  1.
     999901    1    3    3    0    0 -0.10542988987E+00 -0.31041768567E-01 -0.76910563753E-01  0.89016531492E+00  0.88000000000E+00 0.  1.
        -11    1    4    4    0    0  0.65961844340E-01  0.15498163328E-01  0.72495283796E-01  0.99231977049E-01  0.51100000000E-03 0.  1.
         11    1    4    4    0    0  0.30074349617E-01  0.26382336160E-01  0.30837300479E-02  0.40128103346E-01  0.51100000000E-03 0. -1.
</event>
<event>
 8    1  0.1993226E+004  0.1043930E+01  0.7957747E-01            NaN
         13   -1    0    0    0    0  0.00000000000E+00  0.00000000000E+00  0.74505805969E-08  0.10566000000E+00  0.10566000000E+00 0. -1.
     999900   -1    0    0    0    0 -0.00000000000E+00 -0.00000000000E+00 -0.74505805969E-08  0.93827000000E+00  0.93827000000E+00 0.  1.
     999902    2    1    2    0    0  0.12025922555E-02  0.84739909120E-02 -0.11209918942E-01  0.10298262050E+01  0.10297296225E+01 0.  0.
     999903    2    3    3    0    0  0.11184429494E+00  0.36483382195E-01  0.60297812467E-01  0.13957934711E+00  0.44792683141E-01 0.  0.
         14    1    1    2    0    0 -0.12025922555E-02 -0.84739909120E-02  0.11209918942E-01  0.14103794978E-01  0.00000000000E+00 0. -1.
     999901    1    3    3    0    0 -0.11064170269E+00 -0.28009391283E-01 -0.71507731408E-01  0.89024685791E+00  0.88000000000E+00 0.  1.
        -11    1    4    4    0    0  0.53500720655E-01  0.28219811800E-01  0.52581179788E-01  0.80148153300E-01  0.51100000000E-03 0. -1.
         11    1    4    4    0    0  0.58343574289E-01  0.82635703950E-02  0.77166326789E-02  0.59431193808E-01  0.51100000000E-03 0.  1.
</event>
<event>
 8    1  0.1993226E+004  0.1043930E+01  0.7957747E-01            NaN
         13   -1    0    0    0    0  0.00000000000E+00  0.00000000000E+00  0.74505805969E-08  0.10566000000E+00  0.10566000000E+00 0.  1.
     999900   -1    0    0    0    0 -0.00000000000E+00 -0.00000000000E+00 -0.74505805969E-08  0.93827000000E+00  0.93827000000E+00 0. -1.
     999902    2    1    2    0    0  0.83320290549E-02  0.11057984202E-01  0.41319294365E-03  0.10300781968E+01  0.10299850577E+01 0.  0.
     999903    2    3    3    0    0 -0.10154653490E+00 -0.23908368904E-01 -0.79129188476E-01  0.13899855105E+00  0.46646113161E-01 0.  0.
         14    1    1    2    0    0 -0.83320290549E-02 -0.11057984202E-01 -0.41319294365E-03  0.13851803175E-01  0.00000000000E+00 0.  1.
     999901    1    3    3    0    0  0.10987856395E+00  0.34966353106E-01  0.79542381420E-01  0.89107964577E+00  0.88000000000E+00 0.  1.
        -11    1    4    4    0    0 -0.33752833511E-02 -0.15351254393E-01 -0.10415891788E-01  0.18862806575E-01  0.51100000000E-03 0.  1.
         11    1    4    4    0    0 -0.98171251546E-01 -0.85571145112E-02 -0.68713296689E-01  0.12013574448E+00  0.51100000000E-03 0. -1.
</event>
<event>
 8    1  0.1993226E+004  0.1043930E+01  0.7957747E-01            NaN
         13   -1    0    0    0    0  0.00000000000E+00  0.00000000000E+00  0.74505805969E-08  0.10566000000E+00  0.10566000000E+00 0. -1.
     999900   -1    0    0    0    0 -0.00000000000E+00 -0.00000000000E+00 -0.74505805969E-08  0.93827000000E+00  0.93827000000E+00 0. -1.
     999902    2    1    2    0    0  0.11438510717E-01  0.21330454684E-02 -0.64144347198E-02  0.10306433758E+01  0.10305577294E+01 0.  0.
     999903    2    3    3    0    0 -0.73098027797E-01  0.10718868109E+00  0.27889798769E-01  0.13971133945E+00  0.43688470739E-01 0.  0.
         14    1    1    2    0    0 -0.11438510717E-01 -0.21330454684E-02  0.64144347198E-02  0.13286624220E-01  0.00000000000E+00 0.  1.
     999901    1    3    3    0    0  0.84536538514E-01 -0.10505563562E+00 -0.34304233489E-01  0.89093203633E+00  0.88000000000E+00 0. -1.
        -11    1    4    4    0    0 -0.13291304687E-01  0.57813620241E-01  0.10938356289E-01  0.60323977198E-01  0.51100000000E-03 0.  1.
         11    1    4    4    0    0 -0.59806723110E-01  0.49375060845E-01  0.16951442480E-01  0.79387362255E-01  0.51100000000E-03 0. -1.
</event>
<event>
 8    1  0.1993226E+004  0.1043930E+01  0.7957747E-01            NaN
         13   -1    0    0    0    0  0.00000000000E+00  0.00000000000E+00  0.74505805969E-08  0.10566000000E+00  0.10566000000E+00 0.  1.
     999900   -1    0    0    0    0 -0.00000000000E+00 -0.00000000000E+00 -0.74505805969E-08  0.93827000000E+00  0.93827000000E+00 0. -1.
     999902    2    1    2    0    0 -0.75863343944E-02 -0.84476598695E-03  0.48273025206E-02  0.10348984470E+01  0.10348590371E+01 0.  0.
     999903    2    3    3    0    0 -0.11028652597E+00 -0.72860663710E-01  0.40040244106E-01  0.14530664733E+00  0.45155359390E-01 0.  0.
         14    1    1    2    0    0  0.75863343944E-02  0.84476598695E-03 -0.48273025206E-02  0.90315529530E-02  0.00000000000E+00 0. -1.
     999901    1    3    3    0    0  0.10270019158E+00  0.72015897723E-01 -0.35212941585E-01  0.88959179972E+00  0.88000000000E+00 0. -1.
        -11    1    4    4    0    0 -0.90291114282E-01 -0.72946232032E-01  0.45334266652E-01  0.12461578929E+00  0.51100000000E-03 0.  1.
         11    1    4    4    0    0 -0.19995411691E-01  0.85568321942E-04 -0.52940225464E-02  0.20690858038E-01  0.51100000000E-03 0. -1.
</event>
<event>
 8    1  0.1993226E+004  0.1043930E+01  0.7957747E-01            NaN
         13   -1    0    0    0    0  0.00000000000E+00  0.00000000000E+00  0.74505805969E-08  0.10566000000E+00  0.10566000000E+00 0.  1.
     999900   -1    0    0    0    0 -0.00000000000E+00 -0.00000000000E+00 -0.74505805969E-08  0.93827000000E+00  0.93827000000E+00 0.  1.
     999902    2    1    2    0    0  0.60448270008E-02 -0.11195292633E-01  0.81859052457E-02  0.10288011020E+01  0.10286898580E+01 0.  0.
     999903    2    3    3    0    0 -0.76540686954E-01 -0.50022903450E-01  0.10049457961E+00  0.13927940925E+00  0.30640262419E-01 0.  0.
         14    1    1    2    0    0 -0.60448270008E-02  0.11195292633E-01 -0.81859052457E-02  0.15128898020E-01  0.00000000000E+00 0. -1.
     999901    1    3    3    0    0  0.82585513955E-01  0.38827610817E-01 -0.92308674362E-01  0.88952169273E+00  0.88000000000E+00 0.  1.
        -11    1    4    4    0    0 -0.35042510908E-01 -0.35826632737E-01  0.37844861376E-01  0.62801431812E-01  0.51100000000E-03 0.  1.
         11    1    4    4    0    0 -0.41498176046E-01 -0.14196270712E-01  0.62649718232E-01  0.76477977437E-01  0.51100000000E-03 0. -1.
</event>
<event>
 8    1  0.1993226E+004  0.1043930E+01  0.7957747E-01            NaN
         13   -1    0    0    0    0  0.00000000000E+00  0.00000000000E+00  0.74505805969E-08  0.10566000000E+00  0.10566000000E+00 0. -1.
     999900   -1    0    0    0    0 -0.00000000000E+00 -0.00000000000E+00 -0.74505805969E-08  0.93827000000E+00  0.93827000000E+00 0.  1.
     999902    2    1    2    0    0  0.10685136412E-01 -0.95633843715E-02  0.11344769180E-03  0.10295897304E+01  0.10294898590E+01 0.  0.
     999903    2    3    3    0    0 -0.12762490305E+00 -0.13704110716E-01 -0.23838271701E-01  0.13845534243E+00  0.46105315533E-01 0.  0.
         14    1    1    2    0    0 -0.10685136412E-01  0.95633843715E-02 -0.11344769180E-03  0.14340269564E-01  0.00000000000E+00 0. -1.
     999901    1    3    3    0    0  0.13831003946E+00  0.41407263449E-02  0.23951719393E-01  0.89113438801E+00  0.88000000000E+00 0.  1.
        -11    1    4    4    0    0 -0.52922704786E-01 -0.21887497581E-02  0.12743988297E-01  0.54481865479E-01  0.51100000000E-03 0. -1.
         11    1    4    4    0    0 -0.74702198262E-01 -0.11515360958E-01 -0.36582259998E-01  0.83973476948E-01  0.51100000000E-03 0.  1.
</event>
<event>
 8    1  0.1993226E+004  0.1043930E+01  0.7957747E-01            NaN
         13   -1    0    0    0    0  0.00000000000E+00  0.00000000000E+00  0.74505805969E-08  0.10566000000E+00  0.10566000000E+00 0.  1.
     999900   -1    0    0    0    0 -0.00000000000E+00 -0.00000000000E+00 -0.74505805969E-08  0.93827000000E+00  0.93827000000E+00 0. -1.
     999902    2    1    2    0    0  0.11925831462E-02 -0.47303082266E-02 -0.10294005983E-01  0.10325385721E+01  0.10324757325E+01 0.  0.
     999903    2    3    3    0    0  0.28722185248E-01  0.12659736925E+00 -0.37714999579E-01  0.14194509090E+00  0.43291220939E-01 0.  0.
         14    1    1    2    0    0 -0.11925831462E-02  0.47303082266E-02  0.10294005983E-01  0.11391427903E-01  0.00000000000E+00 0.  1.
     999901    1    3    3    0    0 -0.27529602102E-01 -0.13132767748E+00  0.27420993596E-01  0.89059348120E+00  0.88000000000E+00 0. -1.
        -11    1    4    4    0    0  0.30633088402E-01  0.86091731179E-01 -0.43100638997E-01  0.10103513491E+00  0.51100000000E-03 0.  1.
         11    1    4    4    0    0 -0.19109031539E-02  0.40505638072E-01  0.53856394173E-02  0.40909955994E-01  0.51100000000E-03 0. -1.
</event>
<event>
 8    1  0.1993226E+004  0.1043930E+01  0.7957747E-01            NaN
         13   -1    0    0    0    0  0.00000000000E+00  0.00000000000E+00  0.74505805969E-08  0.10566000000E+00  0.10566000000E+00 0.  1.
     999900   -1    0    0    0    0 -0.00000000000E+00 -0.00000000000E+00 -0.74505805969E-08  0.93827000000E+00  0.93827000000E+00 0. -1.
     999902    2    1    2    0    0  0.33589865714E-02 -0.10449177303E-01  0.94837648402E-02  0.10294244875E+01  0.10293222846E+01 0.  0.
     999903    2    3    3    0    0 -0.49767949399E-01  0.10744810792E+00  0.51655178954E-01  0.13897478688E+00  0.51222936179E-01 0.  0.
         14    1    1    2    0    0 -0.33589865714E-02  0.10449177303E-01 -0.94837648402E-02  0.14505512492E-01  0.00000000000E+00 0. -1.
     999901    1    3    3    0    0  0.53126935970E-01 -0.11789728523E+00 -0.42171414114E-01  0.89044970063E+00  0.88000000000E+00 0.  1.
        -11    1    4    4    0    0  0.54709775939E-02  0.42135239502E-01  0.25353129073E-01  0.49480827384E-01  0.51100000000E-03 0. -1.
         11    1    4    4    0    0 -0.55238926993E-01  0.65312868420E-01  0.26302049881E-01  0.89493959492E-01  0.51100000000E-03 0.  1.
</event>
<event>
 8    1  0.1993226E+004  0.1043930E+01  0.7957747E-01            NaN
         13   -1    0    0    0    0  0.00000000000E+00  0.00000000000E+00  0.74505805969E-08  0.10566000000E+00  0.10566000000E+00 0.  1.
     999900   -1    0    0    0    0 -0.00000000000E+00 -0.00000000000E+00 -0.74505805969E-08  0.93827000000E+00  0.93827000000E+00 0. -1.
     999902    2    1    2    0    0 -0.46518165490E-02 -0.96297878249E-02 -0.88710493154E-02  0.10300351187E+01  0.10299413954E+01 0.  0.
     999903    2    3    3    0    0 -0.28887124132E-01  0.55581388347E-01  0.11517934503E+00  0.13861583015E+00  0.44992334645E-01 0.  0.
         14    1    1    2    0    0  0.46518165490E-02  0.96297878249E-02  0.88710493154E-02  0.13894881313E-01  0.00000000000E+00 0.  1.
     999901    1    3    3    0    0  0.24235307583E-01 -0.65211176172E-01 -0.12405039434E+00  0.89141928853E+00  0.88000000000E+00 0. -1.
        -11    1    4    4    0    0 -0.40963670791E-02  0.51803996469E-01  0.74813452536E-01  0.91091975908E-01  0.51100000000E-03 0.  1.
         11    1    4    4    0    0 -0.24790757053E-01  0.37773918775E-02  0.40365892492E-01  0.47523854246E-01  0.51100000000E-03 0. -1.
</event>
<event>
 8    1  0.1993226E+004  0.1043930E+01  0.7957747E-01            NaN
         13   -1    0    0    0    0  0.00000000000E+00  0.00000000000E+00  0.74505805969E-08  0.10566000000E+00  0.10566000000E+00 0.  1.
     999900   -1    0    0    0    0 -0.00000000000E+00 -0.00000000000E+00 -0.74505805969E-08  0.93827000000E+00  0.93827000000E+00 0. -1.
     999902    2    1    2    0    0  0.73268170726E-02  0.10367755191E-01  0.48510060344E-02  0.10303393835E+01  0.10302497466E+01 0.  0.
     999903    2    3    3    0    0 -0.12958001735E+00 -0.36456904758E-02 -0.22569864951E-01  0.13922111859E+00  0.45484602906E-01 0.  0.
         14    1    1    2    0    0 -0.73268170726E-02 -0.10367755191E-01 -0.48510060344E-02  0.13590616457E-01  0.00000000000E+00 0. -1.
     999901    1    3    3    0    0  0.13690683442E+00  0.14013445667E-01  0.27420870986E-01  0.89111826496E+00  0.88000000000E+00 0. -1.
        -11    1    4    4    0    0 -0.47685235222E-01 -0.22870409816E-01 -0.37653200203E-02  0.53022410915E-01  0.51100000000E-03 0.  1.
         11    1    4    4    0    0 -0.81894782128E-01  0.19224719340E-01 -0.18804544931E-01  0.86198707673E-01  0.51100000000E-03 0. -1.
</event>
<event>
 8    1  0.1993226E+004  0.1043930E+01  0.7957747E-01            NaN
         13   -1    0    0    0    0  0.00000000000E+00  0.00000000000E+00  0.74505805969E-08  0.10566000000E+00  0.10566000000E+00 0.  1.
     999900   -1    0    0    0    0 -0.00000000000E+00 -0.00000000000E+00 -0.74505805969E-08  0.93827000000E+00  0.93827000000E+00 0. -1.
     999902    2    1    2    0    0 -0.71063137708E-02 -0.11698386715E-01 -0.27053233062E-02  0.10299775550E+01  0.10298830483E+01 0.  0.
     999903    2    3    3    0    0 -0.10011467854E+00  0.77558374623E-02  0.86975474334E-01  0.14033062042E+00  0.45219995772E-01 0.  0.
         14    1    1    2    0    0  0.71063137708E-02  0.11698386715E-01  0.27053233062E-02  0.13952444995E-01  0.00000000000E+00 0. -1.
     999901    1    3    3    0    0  0.93008364768E-01 -0.19454224177E-01 -0.89680797640E-01  0.88964693459E+00  0.88000000000E+00 0. -1.
        -11    1    4    4    0    0 -0.55717774912E-01 -0.17060953914E-01  0.55746790805E-01  0.80644357494E-01  0.51100000000E-03 0.  1.
         11    1    4    4    0    0 -0.44396903627E-01  0.24816791376E-01  0.31228683529E-01  0.59686262924E-01  0.51100000000E-03 0. -1.
</event>
<event>
 8    1  0.1993226E+004  0.1043930E+01  0.7957747E-01            NaN
         13   -1    0    0    0    0  0.00000000000E+00  0.00000000000E+00  0.74505805969E-08  0.10566000000E+00  0.10566000000E+00 0.  1.
     999900   -1    0    0    0    0 -0.00000000000E+00 -0.00000000000E+00 -0.74505805969E-08  0.93827000000E+00  0.93827000000E+00 0.  1.
     999902    2    1    2    0    0 -0.62136514654E-02  0.93419279438E-02 -0.83408219893E-02  0.10299496426E+01  0.10298547547E+01 0.  0.
     999903    2    3    3    0    0 -0.21099076112E-01 -0.95250755093E-01 -0.90420359645E-01  0.13983826993E+00  0.43139575103E-01 0.  0.
         14    1    1    2    0    0  0.62136514654E-02 -0.93419279438E-02  0.83408219893E-02  0.13980357424E-01  0.00000000000E+00 0.  1.
     999901    1    3    3    0    0  0.14885424646E-01  0.10459268304E+00  0.82079537656E-01  0.89011137265E+00  0.88000000000E+00 0. -1.
        -11    1    4    4    0    0  0.64711881623E-02 -0.40792575089E-01 -0.56551016471E-01  0.70029915347E-01  0.51100000000E-03 0. -1.
         11    1    4    4    0    0 -0.27570264274E-01 -0.54458180004E-01 -0.33869343174E-01  0.69808354583E-01  0.51100000000E-03 0.  1.
</event>
<event>
 8    1  0.1993226E+004  0.1043930E+01  0.7957747E-01            NaN
         13   -1    0    0    0    0  0.00000000000E+00  0.00000000000E+00  0.74505805969E-08  0.10566000000E+00  0.10566000000E+00 0. -1.
     999900   -1    0    0    0    0 -0.00000000000E+00 -0.00000000000E+00 -0.74505805969E-08  0.93827000000E+00  0.93827000000E+00 0.  1.
     999902    2    1    2    0    0  0.11021754997E-01 -0.68915358291E-02  0.57102085733E-02  0.10297321540E+01  0.10296342701E+01 0.  0.
     999903    2    3    3    0    0 -0.10951166815E+00 -0.43325923812E-01  0.60366527868E-01  0.13909020351E+00  0.42802171559E-01 0.  0.
         14    1    1    2    0    0 -0.11021754997E-01  0.68915358291E-02 -0.57102085733E-02  0.14197846007E-01  0.00000000000E+00 0.  1.
     999901    1    3    3    0    0  0.12053342315E+00  0.36434387983E-01 -0.54656319295E-01  0.89064195048E+00  0.88000000000E+00 0. -1.
        -11    1    4    4    0    0 -0.43853509212E-01  0.42762067879E-02  0.18099706536E-01  0.47636925934E-01  0.51100000000E-03 0. -1.
         11    1    4    4    0    0 -0.65658158937E-01 -0.47602130600E-01  0.42266821332E-01  0.91453277575E-01  0.51100000000E-03 0.  1.
</event>
<event>
 8    1  0.1993226E+004  0.1043930E+01  0.7957747E-01            NaN
         13   -1    0    0    0    0  0.00000000000E+00  0.00000000000E+00  0.74505805969E-08  0.10566000000E+00  0.10566000000E+00 0. -1.
     999900   -1    0    0    0    0 -0.00000000000E+00 -0.00000000000E+00 -0.74505805969E-08  0.93827000000E+00  0.93827000000E+00 0.  1.
     999902    2    1    2    0    0  0.36659635219E-03 -0.40694458428E-02 -0.13148258356E-01  0.10301615041E+01  0.10300694894E+01 0.  0.
     999903    2    3    3    0    0 -0.49518894492E-01  0.11451816175E+00 -0.45872256261E-01  0.14020507654E+00  0.44572068708E-01 0.  0.
         14    1    1    2    0    0 -0.36659635219E-03  0.40694458428E-02  0.13148258356E-01  0.13768495929E-01  0.00000000000E+00 0. -1.
     999901    1    3    3    0    0  0.49885490844E-01 -0.11858760760E+00  0.32723997905E-01  0.88995642754E+00  0.88000000000E+00 0. -1.
        -11    1    4    4    0    0 -0.30478033207E-01  0.40793358293E-01  0.73225567694E-03  0.50929420853E-01  0.51100000000E-03 0. -1.
         11    1    4    4    0    0 -0.19040861285E-01  0.73724803460E-01 -0.46604511938E-01  0.89275655683E-01  0.51100000000E-03 0.  1.
</event>
<event>
 8    1  0.1993226E+004  0.1043930E+01  0.7957747E-01            NaN
         13   -1    0    0    0    0  0.00000000000E+00  0.00000000000E+00  0.74505805969E-08  0.10566000000E+00  0.10566000000E+00 0.  1.
     999900   -1    0    0    0    0 -0.00000000000E+00 -0.00000000000E+00 -0.74505805969E-08  0.93827000000E+00  0.93827000000E+00 0.  1.
     999902    2    1    2    0    0 -0.54183230328E-02  0.10759268054E-01 -0.72452371389E-02  0.10298724919E+01  0.10297765466E+01 0.  0.
     999903    2    3    3    0    0 -0.48617694446E-01  0.12406368779E+00 -0.11891765715E-01  0.14154503679E+00  0.46239642173E-01 0.  0.
         14    1    1    2    0    0  0.54183230328E-02 -0.10759268054E-01  0.72452371389E-02  0.14057508127E-01  0.00000000000E+00 0.  1.
     999901    1    3    3    0    0  0.43199371414E-01 -0.11330441973E+00  0.46465285760E-02  0.88832745508E+00  0.88000000000E+00 0. -1.
        -11    1    4    4    0    0 -0.79859224845E-02  0.38309566911E-01  0.16532228713E-01  0.42484980664E-01  0.51100000000E-03 0.  1.
         11    1    4    4    0    0 -0.40631771962E-01  0.85754120876E-01 -0.28423994428E-01  0.99060056129E-01  0.51100000000E-03 0. -1.
</event>
<event>
 8    1  0.1993226E+004  0.1043930E+01  0.7957747E-01            NaN
         13   -1    0    0    0    0  0.00000000000E+00  0.00000000000E+00  0.74505805969E-08  0.10566000000E+00  0.10566000000E+00 0.  1.
     999900   -1    0    0    0    0 -0.00000000000E+00 -0.00000000000E+00 -0.74505805969E-08  0.93827000000E+00  0.93827000000E+00 0. -1.
     999902    2    1    2    0    0  0.33625043637E-02  0.60492754314E-03  0.13096422928E-01  0.10303952792E+01  0.10303063830E+01 0.  0.
     999903    2    3    3    0    0 -0.96616411275E-02  0.48312726931E-01 -0.12168798131E+00  0.13876054565E+00  0.44933921952E-01 0.  0.
         14    1    1    2    0    0 -0.33625043637E-02 -0.60492754314E-03 -0.13096422928E-01  0.13534720774E-01  0.00000000000E+00 0. -1.
     999901    1    3    3    0    0  0.13024145491E-01 -0.47707799388E-01  0.13478440424E+00  0.89163473357E+00  0.88000000000E+00 0.  1.
        -11    1    4    4    0    0  0.12618909584E-01  0.39123722982E-01 -0.90000802806E-01  0.98945986305E-01  0.51100000000E-03 0. -1.
         11    1    4    4    0    0 -0.22280550712E-01  0.91890039485E-02 -0.31687178503E-01  0.39814559348E-01  0.51100000000E-03 0.  1.
</event>
<event>
 8    1  0.1993226E+004  0.1043930E+01  0.7957747E-01            NaN
         13   -1    0    0    0    0  0.00000000000E+00  0.00000000000E+00  0.74505805969E-08  0.10566000000E+00  0.10566000000E+00 0. -1.
     999900   -1    0    0    0    0 -0.00000000000E+00 -0.00000000000E+00 -0.74505805969E-08  0.93827000000E+00  0.93827000000E+00 0.  1.
     999902    2    1    2    0    0  0.40667186284E-02  0.73489122225E-02 -0.86941092526E-02  0.10318414828E+01  0.10317706690E+01 0.  0.
     999903    2    3    3    0    0  0.87596191302E-01 -0.91495147493E-01  0.42716957649E-01  0.14089231553E+00  0.44513496366E-01 0.  0.
         14    1    1    2    0    0 -0.40667186284E-02 -0.73489122225E-02  0.86941092526E-02  0.12088517153E-01  0.00000000000E+00 0.  1.
     999901    1    3    3    0    0 -0.83529472674E-01  0.98844059715E-01 -0.51411066902E-01  0.89094916732E+00  0.88000000000E+00 0.  1.
        -11    1    4    4    0    0  0.38755914137E-01 -0.71631601642E-01  0.23439250049E-01  0.84751205291E-01  0.51100000000E-03 0. -1.
         11    1    4    4    0    0  0.48840277166E-01 -0.19863545850E-01  0.19277707600E-01  0.56141110237E-01  0.51100000000E-03 0.  1.
</event>
<event>
 8    1  0.1993226E+004  0.1043930E+01  0.7957747E-01            NaN
         13   -1    0    0    0    0  0.00000000000E+00  0.00000000000E+00  0.74505805969E-08  0.10566000000E+00  0.10566000000E+00 0. -1.
     999900   -1    0    0    0    0 -0.00000000000E+00 -0.00000000000E+00 -0.74505805969E-08  0.93827000000E+00  0.93827000000E+00 0. -1.
     999902    2    1    2    0    0  0.18012352498E-02 -0.12117073865E-01  0.26654288398E-02  0.10313931568E+01  0.10313169597E+01 0.  0.
     999903    2    3    3    0    0  0.40778804332E-01 -0.12297309177E+00 -0.37672590055E-01  0.14266627894E+00  0.46358935741E-01 0.  0.
         14    1    1    2    0    0 -0.18012352498E-02  0.12117073865E-01 -0.26654288398E-02  0.12536843238E-01  0.00000000000E+00 0.  1.
     999901    1    3    3    0    0 -0.38977569082E-01  0.11085601790E+00  0.40338018895E-01  0.88872687782E+00  0.88000000000E+00 0.  1.
        -11    1    4    4    0    0  0.21396443279E-01 -0.21734405001E-01  0.53511364408E-02  0.30969144772E-01  0.51100000000E-03 0. -1.
         11    1    4    4    0    0  0.19382361053E-01 -0.10123868677E+00 -0.43023726496E-01  0.11169713417E+00  0.51100000000E-03 0.  1.
</event>
<event>
 8    1  0.1993226E+004  0.1043930E+01  0.7957747E-01            NaN
         13   -1    0    0    0    0  0.00000000000E+00  0.00000000000E+00  0.74505805969E-08  0.10566000000E+00  0.10566000000E+00 0. -1.
     999900   -1    0    0    0    0 -0.00000000000E+00 -0.00000000000E+00 -0.74505805969E-08  0.93827000000E+00  0.93827000000E+00 0. -1.
     999902    2    1    2    0    0  0.51484056839E-02  0.72689248520E-02  0.10712170966E-01  0.10299982393E+01  0.10299040145E+01 0.  0.
     999903    2    3    3    0    0 -0.92587798793E-01  0.41749191754E-01 -0.83837818852E-01  0.13888603814E+00  0.44102791551E-01 0.  0.
         14    1    1    2    0    0 -0.51484056839E-02 -0.72689248520E-02 -0.10712170966E-01  0.13931760707E-01  0.00000000000E+00 0.  1.
     999901    1    3    3    0    0  0.97736204477E-01 -0.34480266903E-01  0.94549989818E-01  0.89111220115E+00  0.88000000000E+00 0.  1.
        -11    1    4    4    0    0 -0.66756639927E-01  0.70757966026E-02 -0.45515740366E-01  0.81107703790E-01  0.51100000000E-03 0. -1.
         11    1    4    4    0    0 -0.25831158866E-01  0.34673395152E-01 -0.38322078485E-01  0.57778334349E-01  0.51100000000E-03 0.  1.
</event>
<event>
 8    1  0.1993226E+004  0.1043930E+01  0.7957747E-01            NaN
         13   -1    0    0    0    0  0.00000000000E+00  0.00000000000E+00  0.74505805969E-08  0.10566000000E+00  0.10566000000E+00 0. -1.
     999900   -1    0    0    0    0 -0.00000000000E+00 -0.00000000000E+00 -0.74505805969E-08  0.93827000000E+00  0.93827000000E+00 0.  1.
     999902    2    1    2    0    0 -0.11870686320E-02  0.71382194071E-02  0.10003958284E-01  0.10315832397E+01  0.10315093494E+01 0.  0.
     999903    2    3    3    0    0  0.11443165067E+00 -0.62865134059E-01  0.27863226499E-01  0.14108500209E+00  0.45628835927E-01 0.  0.
         14    1    1    2    0    0  0.11870686320E-02 -0.71382194071E-02 -0.10003958284E-01  0.12346760287E-01  0.00000000000E+00 0.  1.
     999901    1    3    3    0    0 -0.11561871930E+00  0.70003353466E-01 -0.17859268215E-01  0.89049823762E+00  0.88000000000E+00 0.  1.
        -11    1    4    4    0    0  0.79872796718E-01 -0.53699635573E-01  0.81675555277E-03  0.96250936239E-01  0.51100000000E-03 0. -1.
         11    1    4    4    0    0  0.34558853953E-01 -0.91654984865E-02  0.27046470946E-01  0.44834065851E-01  0.51100000000E-03 0.  1.
</event>
<event>
 8    1  0.1993226E+004  0.1043930E+01  0.7957747E-01            NaN
         13   -1    0    0    0    0  0.00000000000E+00  0.00000000000E+00  0.74505805969E-08  0.10566000000E+00  0.10566000000E+00 0.  1.
     999900   -1    0    0    0    0 -0.00000000000E+00 -0.00000000000E+00 -0.74505805969E-08  0.93827000000E+00  0.93827000000E+00 0. -1.
     999902    2    1    2    0    0 -0.96703804306E-02  0.98689925014E-02  0.28584085198E-02  0.10298202952E+01  0.10297236312E+01 0.  0.
     999903    2    3    3    0    0  0.61362579136E-01 -0.47112921765E-01  0.10633438338E+00  0.13909031519E+00  0.45322413595E-01 0.  0.
         14    1    1    2    0    0  0.96703804306E-02 -0.98689925014E-02 -0.28584085198E-02  0.14109704814E-01  0.00000000000E+00 0.  1.
     999901    1    3    3    0    0 -0.71032959567E-01  0.56981914266E-01 -0.10347597486E+00  0.89072998000E+00  0.88000000000E+00 0. -1.
        -11    1    4    4    0    0  0.19488665368E-01 -0.40859344815E-01  0.40095049066E-01  0.60474525357E-01  0.51100000000E-03 0.  1.
         11    1    4    4    0    0  0.41873913769E-01 -0.62535769497E-02  0.66239334314E-01  0.78615789828E-01  0.51100000000E-03 0. -1.
</event>
<event>
 8    1  0.1993226E+004  0.1043930E+01  0.7957747E-01            NaN
         13   -1    0    0    0    0  0.00000000000E+00  0.00000000000E+00  0.74505805969E-08  0.10566000000E+00  0.10566000000E+00 0. -1.
     999900   -1    0    0    0    0 -0.00000000000E+00 -0.00000000000E+00 -0.74505805969E-08  0.93827000000E+00  0.93827000000E+00 0.  1.
     999902    2    1    2    0    0 -0.11807799500E-01 -0.57115779845E-02  0.50641675659E-02  0.10298696997E+01  0.10297737160E+01 0.  0.
     999903    2    3    3    0    0 -0.81849867707E-01 -0.61814244008E-01 -0.79983366745E-01  0.14122664223E+00  0.55020213681E-01 0.  0.
         14    1    1    2    0    0  0.11807799500E-01  0.57115779845E-02 -0.50641675659E-02  0.14060300325E-01  0.00000000000E+00 0.  1.
     999901    1    3    3    0    0  0.70042068207E-01  0.56102666024E-01  0.85047534311E-01  0.88864305745E+00  0.88000000000E+00 0. -1.
        -11    1    4    4    0    0 -0.40541872717E-01 -0.44504360718E-02 -0.10530358123E-01  0.42125994205E-01  0.51100000000E-03 0. -1.
         11    1    4    4    0    0 -0.41307994990E-01 -0.57363807936E-01 -0.69453008622E-01  0.99100648024E-01  0.51100000000E-03 0.  1.
</event>
<event>
 8    1  0.1993226E+004  0.1043930E+01  0.7957747E-01            NaN
         13   -1    0    0    0    0  0.00000000000E+00  0.00000000000E+00  0.74505805969E-08  0.10566000000E+00  0.10566000000E+00 0.  1.
     999900   -1    0    0    0    0 -0.00000000000E+00 -0.00000000000E+00 -0.74505805969E-08  0.93827000000E+00  0.93827000000E+00 0.  1.
     999902    2    1    2    0    0 -0.96101728642E-02  0.85722888514E-02  0.40246097252E-02  0.10304378896E+01  0.10303495559E+01 0.  0.
     999903    2    3    3    0    0  0.40948878105E-01 -0.10326618352E+00  0.70861013884E-01  0.13940973831E+00  0.45531050608E-01 0.  0.
         14    1    1    2    0    0  0.96101728642E-02 -0.85722888514E-02 -0.40246097252E-02  0.13492110364E-01  0.00000000000E+00 0. -1.
     999901    1    3    3    0    0 -0.50559050969E-01  0.11183847237E+00 -0.66836404159E-01  0.89102815133E+00  0.88000000000E+00 0.  1.
        -11    1    4    4    0    0  0.49286991259E-01 -0.74155399365E-01  0.45973208264E-01  0.10020991848E+00  0.51100000000E-03 0. -1.
         11    1    4    4    0    0 -0.83381131535E-02 -0.29110784155E-01  0.24887805621E-01  0.39199819830E-01  0.51100000000E-03 0.  1.
</event>
<event>
 8    1  0.1993226E+004  0.1043930E+01  0.7957747E-01            NaN
         13   -1    0    0    0    0  0.00000000000E+00  0.00000000000E+00  0.74505805969E-08  0.10566000000E+00  0.10566000000E+00 0.  1.
     999900   -1    0    0    0    0 -0.00000000000E+00 -0.00000000000E+00 -0.74505805969E-08  0.93827000000E+00  0.93827000000E+00 0. -1.
     999902    2    1    2    0    0 -0.17449087719E-01 -0.74320996220E-02  0.10722890131E-02  0.10249337748E+01  0.10247577207E+01 0.  0.
     999903    2    3    3    0    0  0.23448650574E-01  0.63742784857E-01 -0.10697079338E+00  0.13453397876E+00  0.45206846506E-01 0.  0.
         14    1    1    2    0    0  0.17449087719E-01  0.74320996220E-02 -0.10722890131E-02  0.18996225171E-01  0.00000000000E+00 0. -1.
     999901    1    3    3    0    0 -0.40897738293E-01 -0.71174884479E-01  0.10804308239E+00  0.89039979606E+00  0.88000000000E+00 0.  1.
        -11    1    4    4    0    0  0.95026553427E-03  0.49099937404E-01 -0.90691600355E-01  0.10313551451E+00  0.51100000000E-03 0.  1.
         11    1    4    4    0    0  0.22498385040E-01  0.14642847453E-01 -0.16279193025E-01  0.31398464253E-01  0.51100000000E-03 0. -1.
</event>
<event>
 8    1  0.1993226E+004  0.1043930E+01  0.7957747E-01            NaN
         13   -1    0    0    0    0  0.00000000000E+00  0.00000000000E+00  0.74505805969E-08  0.10566000000E+00  0.10566000000E+00 0. -1.
     999900   -1    0    0    0    0 -0.00000000000E+00 -0.00000000000E+00 -0.74505805969E-08  0.93827000000E+00  0.93827000000E+00 0.  1.
     999902    2    1    2    0    0  0.85580657516E-02  0.39914971364E-02 -0.19697190387E-02  0.10342836363E+01  0.10342386514E+01 0.  0.
     999903    2    3    3    0    0 -0.14539536967E-01 -0.13455402881E+00 -0.10432376948E-01  0.14310465398E+00  0.45320223965E-01 0.  0.
         14    1    1    2    0    0 -0.85580657516E-02 -0.39914971364E-02  0.19697190387E-02  0.96463636615E-02  0.00000000000E+00 0. -1.
     999901    1    3    3    0    0  0.23097602718E-01  0.13854552594E+00  0.84626579095E-02  0.89117898235E+00  0.88000000000E+00 0.  1.
        -11    1    4    4    0    0  0.61856758719E-02 -0.10782415638E+00 -0.14741533186E-01  0.10900406051E+00  0.51100000000E-03 0.  1.
         11    1    4    4    0    0 -0.20725212838E-01 -0.26729872423E-01  0.43091562380E-02  0.34100593477E-01  0.51100000000E-03 0. -1.
</event>
<event>
 8    1  0.1993226E+004  0.1043930E+01  0.7957747E-01            NaN
         13   -1    0    0    0    0  0.00000000000E+00  0.00000000000E+00  0.74505805969E-08  0.10566000000E+00  0.10566000000E+00 0. -1.
     999900   -1    0    0    0    0 -0.00000000000E+00 -0.00000000000E+00 -0.74505805969E-08  0.93827000000E+00  0.93827000000E+00 0. -1.
     999902    2    1    2    0    0  0.13638014030E-01  0.18252843861E-02  0.27315044466E-02  0.10299018780E+01  0.10298063362E+01 0.  0.
     999903    2    3    3    0    0 -0.10801927769E+00 -0.42999779950E-01 -0.61719661768E-01  0.13807020340E+00  0.41676360087E-01 0.  0.
         14    1    1    2    0    0 -0.13638014030E-01 -0.18252843861E-02 -0.27315044466E-02  0.14028121981E-01  0.00000000000E+00 0.  1.
     999901    1    3    3    0    0  0.12165729172E+00  0.44825064336E-01  0.64451166215E-01  0.89183167462E+00  0.88000000000E+00 0.  1.
        -11    1    4    4    0    0 -0.72197757670E-01 -0.11509844075E-01 -0.23025981829E-01  0.76651481939E-01  0.51100000000E-03 0. -1.
         11    1    4    4    0    0 -0.35821520022E-01 -0.31489935875E-01 -0.38693679939E-01  0.61418721465E-01  0.51100000000E-03 0.  1.
</event>
<event>
 8    1  0.1993226E+004  0.1043930E+01  0.7957747E-01            NaN
         13   -1    0    0    0    0  0.00000000000E+00  0.00000000000E+00  0.74505805969E-08  0.10566000000E+00  0.10566000000E+00 0. -1.
     999900   -1    0    0    0    0 -0.00000000000E+00 -0.00000000000E+00 -0.74505805969E-08  0.93827000000E+00  0.93827000000E+00 0.  1.
     999902    2    1    2    0    0  0.67437520405E-02 -0.15937029709E-01 -0.90181813156E-02  0.10244160383E+01  0.10242301620E+01 0.  0.
     999903    2    3    3    0    0 -0.77291142680E-01 -0.96862380073E-01  0.31026627998E-01  0.13581356101E+00  0.46113233460E-01 0.  0.
         14    1    1    2    0    0 -0.67437520405E-02  0.15937029709E-01  0.90181813156E-02  0.19513961714E-01  0.00000000000E+00 0.  1.
     999901    1    3    3    0    0  0.84034894721E-01  0.80925350364E-01 -0.40044809313E-01  0.88860247727E+00  0.88000000000E+00 0.  1.
        -11    1    4    4    0    0 -0.24728907889E-01 -0.64447785514E-01  0.63942346276E-02  0.69326642068E-01  0.51100000000E-03 0. -1.
         11    1    4    4    0    0 -0.52562234791E-01 -0.32414594559E-01  0.24632393370E-01  0.66486918945E-01  0.51100000000E-03 0.  1.
</event>
<event>
 8    1  0.1993226E+004  0.1043930E+01  0.7957747E-01            NaN
         13   -1    0    0    0    0  0.00000000000E+00  0.00000000000E+00  0.74505805969E-08  0.10566000000E+00  0.10566000000E+00 0. -1.
     999900   -1    0    0    0    0 -0.00000000000E+00 -0.00000000000E+00 -0.74505805969E-08  0.93827000000E+00  0.93827000000E+00 0. -1.
     999902    2    1    2    0    0  0.16548280728E-02  0.34043838131E-02 -0.12995320411E-01  0.10303946153E+01  0.10303057103E+01 0.  0.
     999903    2    3    3    0    0 -0.75000580343E-02  0.71174940301E-01 -0.11408039748E+00  0.14197193831E+00  0.44939639304E-01 0.  0.
         14    1    1    2    0    0 -0.16548280728E-02 -0.34043838131E-02  0.12995320411E-01  0.13535384652E-01  0.00000000000E+00 0. -1.
     999901    1    3    3    0    0  0.91548861072E-02 -0.67770556488E-01  0.10108507707E+00  0.88842267704E+00  0.88000000000E+00 0.  1.
        -11    1    4    4    0    0  0.90240200271E-02  0.69091929777E-02 -0.17572759658E-02  0.11511690791E-01  0.51100000000E-03 0.  1.
         11    1    4    4    0    0 -0.16524078061E-01  0.64265747324E-01 -0.11232312152E+00  0.13046024752E+00  0.51100000000E-03 0. -1.
</event>
<event>
 8    1  0.1993226E+004  0.1043930E+01  0.7957747E-01            NaN
         13   -1    0    0    0    0  0.00000000000E+00  0.00000000000E+00  0.74505805969E-08  0.10566000000E+00  0.10566000000E+00 0. -1.
     999900   -1    0    0    0    0 -0.00000000000E+00 -0.00000000000E+00 -0.74505805969E-08  0.93827000000E+00  0.93827000000E+00 0.  1.
     999902    2    1    2    0    0  0.10240350187E-01  0.27196385407E-02 -0.85945425434E-02  0.10302871496E+01  0.10301968177E+01 0.  0.
     999903    2    3    3    0    0 -0.98427220695E-01  0.87899898831E-01  0.76879677421E-02  0.13937220537E+00  0.44172353256E-01 0.  0.
         14    1    1    2    0    0 -0.10240350187E-01 -0.27196385407E-02  0.85945425434E-02  0.13642850409E-01  0.00000000000E+00 0. -1.
     999901    1    3    3    0    0  0.10866757088E+00 -0.85180260290E-01 -0.16282510285E-01  0.89091494423E+00  0.88000000000E+00 0. -1.
        -11    1    4    4    0    0 -0.42056363041E-01  0.61764171901E-01 -0.83743606639E-02  0.75192696722E-01  0.51100000000E-03 0.  1.
         11    1    4    4    0    0 -0.56370857654E-01  0.26135726930E-01  0.16062328406E-01  0.64179508643E-01  0.51100000000E-03 0. -1.
</event>
<event>
 7    1  0.1993226E+004  0.1043930E+01  0.7957747E-01            NaN
         13   -1    0    0    0    0  0.00000000000E+00  0.00000000000E+00  0.74505805969E-08  0.10566000000E+00  0.10566000000E+00 0. -1.
     999900   -1    0    0    0    0 -0.00000000000E+00 -0.00000000000E+00 -0.74505805969E-08  0.93827000000E+00  0.93827000000E+00 0. -1.
     999903    2    1    2    0    0 -0.26525152482E-01  0.80012217073E-01 -0.60114726505E-01  0.11274840054E+00  0.44641716876E-01 0.  0.
         14    1    1    2    0    0 -0.19785922826E-01 -0.37256459337E-01 -0.17178161803E-01  0.45547949980E-01  0.00000000000E+00 0.  1.
     999901    1    1    2    0    0  0.46311075307E-01 -0.42755757735E-01  0.77292888308E-01  0.88563364948E+00  0.88000000000E+00 0.  1.
        -11    1    3    3    0    0 -0.34120528128E-01  0.32425355004E-01 -0.32539595623E-01  0.57224998830E-01  0.51100000000E-03 0.  1.
         11    1    3    3    0    0  0.75953756466E-02  0.47586862069E-01 -0.27575130882E-01  0.55523401705E-01  0.51100000000E-03 0. -1.
</event>
<event>
 7    1  0.1993226E+004  0.1043930E+01  0.7957747E-01            NaN
         13   -1    0    0    0    0  0.00000000000E+00  0.00000000000E+00  0.74505805969E-08  0.10566000000E+00  0.10566000000E+00 0.  1.
     999900   -1    0    0    0    0 -0.00000000000E+00 -0.00000000000E+00 -0.74505805969E-08  0.93827000000E+00  0.93827000000E+00 0.  1.
     999903    2    1    2    0    0  0.90416846036E-01 -0.72743062245E-01  0.58707428133E-02  0.12464770021E+00  0.45120110743E-01 0.  0.
         14    1    1    2    0    0  0.58570657019E-02  0.37289842905E-02 -0.30224381523E-01  0.31011671688E-01  0.00000000000E+00 0. -1.
     999901    1    1    2    0    0 -0.96273911738E-01  0.69014077955E-01  0.24353638709E-01  0.88827062811E+00  0.88000000000E+00 0.  1.
        -11    1    3    3    0    0  0.17795074777E-01 -0.18778007716E-01  0.20476814592E-01  0.32997565318E-01  0.51100000000E-03 0.  1.
         11    1    3    3    0    0  0.72621771259E-01 -0.53965054530E-01 -0.14606071778E-01  0.91650134888E-01  0.51100000000E-03 0. -1.
</event>
<event>
 8    1  0.1993226E+004  0.1043930E+01  0.7957747E-01            NaN
         13   -1    0    0    0    0  0.00000000000E+00  0.00000000000E+00  0.74505805969E-08  0.10566000000E+00  0.10566000000E+00 0.  1.
     999900   -1    0    0    0    0 -0.00000000000E+00 -0.00000000000E+00 -0.74505805969E-08  0.93827000000E+00  0.93827000000E+00 0. -1.
     999902    2    1    2    0    0 -0.11171528774E-01 -0.87896460464E-02  0.11040991881E-02  0.10296723716E+01  0.10295736559E+01 0.  0.
     999903    2    3    3    0    0  0.58732922636E-01  0.38407362977E-01 -0.11074519612E+00  0.13859187307E+00  0.44928021158E-01 0.  0.
         14    1    1    2    0    0  0.11171528774E-01  0.87896460464E-02 -0.11040991881E-02  0.14257628407E-01  0.00000000000E+00 0.  1.
     999901    1    3    3    0    0 -0.69904451410E-01 -0.47197009023E-01  0.11184929531E+00  0.89108049852E+00  0.88000000000E+00 0. -1.
        -11    1    4    4    0    0  0.33757598579E-01  0.20389745535E-01 -0.97290400562E-01  0.10498095231E+00  0.51100000000E-03 0. -1.
         11    1    4    4    0    0  0.24975324057E-01  0.18017617442E-01 -0.13454795559E-01  0.33610920763E-01  0.51100000000E-03 0.  1.
</event>
<event>
 8    1  0.1993226E+004  0.1043930E+01  0.7957747E-01            NaN
         13   -1    0    0    0    0  0.00000000000E+00  0.00000000000E+00  0.74505805969E-08  0.10566000000E+00  0.10566000000E+00 0.  1.
     999900   -1    0    0    0    0 -0.00000000000E+00 -0.00000000000E+00 -0.74505805969E-08  0.93827000000E+00  0.93827000000E+00 0.  1.
     999902    2    1    2    0    0  0.72538561335E-02 -0.10554976634E-01  0.31981091915E-02  0.10307294749E+01  0.10306449420E+01 0.  0.
     999903    2    3    3    0    0  0.39825854496E-01  0.12570426264E+00 -0.95287725045E-02  0.13955637786E+00  0.44693676989E-01 0.  0.
         14    1    1    2    0    0 -0.72538561335E-02  0.10554976634E-01 -0.31981091915E-02  0.13200525101E-01  0.00000000000E+00 0.  1.
     999901    1    3    3    0    0 -0.32571998363E-01 -0.13625923928E+00  0.12726881696E-01  0.89117309704E+00  0.88000000000E+00 0. -1.
        -11    1    4    4    0    0  0.76796811320E-02  0.76336493280E-01  0.10263521544E-01  0.77406968058E-01  0.51100000000E-03 0. -1.
         11    1    4    4    0    0  0.32146173364E-01  0.49367769365E-01 -0.19792294049E-01  0.62149409802E-01  0.51100000000E-03 0.  1.
</event>
<event>
 8    1  0.1993226E+004  0.1043930E+01  0.7957747E-01            NaN
         13   -1    0    0    0    0  0.00000000000E+00  0.00000000000E+00  0.74505805969E-08  0.10566000000E+00  0.10566000000E+00 0.  1.
     999900   -1    0    0    0    0 -0.00000000000E+00 -0.00000000000E+00 -0.74505805969E-08  0.93827000000E+00  0.93827000000E+00 0. -1.
     999902    2    1    2    0    0  0.11469587791E-01  0.11495087994E-03  0.61236395388E-02  0.10309275533E+01  0.10308455542E+01 0.  0.
     999903    2    3    3    0    0  0.65316000941E-01  0.92940149343E-01  0.69084285191E-01  0.14217562138E+00  0.50370800217E-01 0.  0.
         14    1    1    2    0    0 -0.11469587791E-01 -0.11495087994E-03 -0.61236395388E-02  0.13002446655E-01  0.00000000000E+00 0. -1.
     999901    1    3    3    0    0 -0.53846413150E-01 -0.92825198463E-01 -0.62960645652E-01  0.88875193197E+00  0.88000000000E+00 0.  1.
        -11    1    4    4    0    0  0.47874064762E-01  0.89617119671E-01  0.71512297230E-01  0.12424743052E+00  0.51100000000E-03 0. -1.
         11    1    4    4    0    0  0.17441936178E-01  0.33230296719E-02 -0.24280120397E-02  0.17928190855E-01  0.51100000000E-03 0.  1.
</event>
<event>
 8    1  0.1993226E+004  0.1043930E+01  0.7957747E-01            NaN
         13   -1    0    0    0    0  0.00000000000E+00  0.00000000000E+00  0.74505805969E-08  0.10566000000E+00  0.10566000000E+00 0.  1.
     999900   -1    0    0    0    0 -0.00000000000E+00 -0.00000000000E+00 -0.74505805969E-08  0.93827000000E+00  0.93827000000E+00 0.  1.
     999902    2    1    2    0    0  0.47859718552E-02  0.74626871382E-02 -0.68649132573E-02  0.10327173170E+01  0.10326564446E+01 0.  0.
     999903    2    3    3    0    0 -0.25534959064E-01 -0.13009302918E+00  0.18427676359E-01  0.14115652321E+00  0.44825823059E-01 0.  0.
         14    1    1    2    0    0 -0.47859718552E-02 -0.74626871382E-02  0.68649132573E-02  0.11212682995E-01  0.00000000000E+00 0.  1.
     999901    1    3    3    0    0  0.30320930919E-01  0.13755571632E+00 -0.25292589616E-01  0.89156079380E+00  0.88000000000E+00 0. -1.
        -11    1    4    4    0    0  0.45457888370E-02 -0.67949791869E-01  0.23205880406E-01  0.71948679054E-01  0.51100000000E-03 0.  1.
         11    1    4    4    0    0 -0.30080747901E-01 -0.62143237311E-01 -0.47782040465E-02  0.69207844155E-01  0.51100000000E-03 0. -1.
</event>
<event>
 8    1  0.1993226E+004  0.1043930E+01  0.7957747E-01            NaN
         13   -1    0    0    0    0  0.00000000000E+00  0.00000000000E+00  0.74505805969E-08  0.10566000000E+00  0.10566000000E+00 0.  1.
     999900   -1    0    0    0    0 -0.00000000000E+00 -0.00000000000E+00 -0.74505805969E-08  0.93827000000E+00  0.93827000000E+00 0. -1.
     999902    2    1    2    0    0  0.68884523495E-02 -0.78128447503E-02  0.96269409161E-02  0.10297465833E+01  0.10296488996E+01 0.  0.
     999903    2    3    3    0    0 -0.10758018147E+00  0.73323604026E-01  0.16049505949E-01  0.13860829950E+00  0.44775302323E-01 0.  0.
         14    1    1    2    0    0 -0.68884523495E-02  0.78128447503E-02 -0.96269409161E-02  0.14183416735E-01  0.00000000000E+00 0. -1.
     999901    1    3    3    0    0  0.11446863381E+00 -0.81136448776E-01 -0.64225650328E-02  0.89113828376E+00  0.88000000000E+00 0. -1.
        -11    1    4    4    0    0 -0.79275927399E-01  0.73242185921E-01  0.20758690853E-01  0.10991030357E+00  0.51100000000E-03 0.  1.
         11    1    4    4    0    0 -0.28304254067E-01  0.81418104739E-04 -0.47091849038E-02  0.28697995934E-01  0.51100000000E-03 0. -1.
</event>
<event>
 8    1  0.1993226E+004  0.1043930E+01  0.7957747E-01            NaN
         13   -1    0    0    0    0  0.00000000000E+00  0.00000000000E+00  0.74505805969E-08  0.10566000000E+00  0.10566000000E+00 0.  1.
     999900   -1    0    0    0    0 -0.00000000000E+00 -0.00000000000E+00 -0.74505805969E-08  0.93827000000E+00  0.93827000000E+00 0. -1.
     999902    2    1    2    0    0  0.81844237498E-02 -0.57514210763E-02 -0.10576196253E-01  0.10293725427E+01  0.10292696012E+01 0.  0.
     999903    2    3    3    0    0 -0.63120645899E-01  0.72245700009E-01 -0.90663958708E-01  0.13943882967E+00  0.44939700734E-01 0.  0.
         14    1    1    2    0    0 -0.81844237498E-02  0.57514210763E-02  0.10576196253E-01  0.14557457323E-01  0.00000000000E+00 0.  1.
     999901    1    3    3    0    0  0.71305069649E-01 -0.77997121085E-01  0.80087762455E-01  0.88993371301E+00  0.88000000000E+00 0.  1.
        -11    1    4    4    0    0 -0.64092080032E-01  0.73958627254E-01 -0.74111348853E-01  0.12276166510E+00  0.51100000000E-03 0. -1.
         11    1    4    4    0    0  0.97143413329E-03 -0.17129272454E-02 -0.16552609856E-01  0.16677164569E-01  0.51100000000E-03 0.  1.
</event>
<event>
 8    1  0.1993226E+004  0.1043930E+01  0.7957747E-01            NaN
         13   -1    0    0    0    0  0.00000000000E+00  0.00000000000E+00  0.74505805969E-08  0.10566000000E+00  0.10566000000E+00 0.  1.
     999900   -1    0    0    0    0 -0.00000000000E+00 -0.00000000000E+00 -0.74505805969E-08  0.93827000000E+00  0.93827000000E+00 0. -1.
     999902    2    1    2    0    0  0.39865982108E-02  0.70291921762E-02  0.10449628642E-01  0.10307202594E+01  0.10306356077E+01 0.  0.
     999903    2    3    3    0    0  0.49129941397E-01 -0.11496268086E+00  0.45280023376E-01  0.14047698090E+00  0.45313712194E-01 0.  0.
         14    1    1    2    0    0 -0.39865982108E-02 -0.70291921762E-02 -0.10449628642E-01  0.13209740599E-01  0.00000000000E+00 0. -1.
     999901    1    3    3    0    0 -0.45143343186E-01  0.12199187304E+00 -0.34830394734E-01  0.89024327850E+00  0.88000000000E+00 0. -1.
        -11    1    4    4    0    0  0.24113473937E-02 -0.61723005310E-01  0.26352627096E-01  0.67158514402E-01  0.51100000000E-03 0. -1.
         11    1    4    4    0    0  0.46718594003E-01 -0.53239675552E-01  0.18927396280E-01  0.73318466497E-01  0.51100000000E-03 0.  1.
</event>
<event>
 8    1  0.1993226E+004  0.1043930E+01  0.7957747E-01            NaN
         13   -1    0    0    0    0  0.00000000000E+00  0.00000000000E+00  0.74505805969E-08  0.10566000000E+00  0.10566000000E+00 0.  1.
     999900   -1    0    0    0    0 -0.00000000000E+00 -0.00000000000E+00 -0.74505805969E-08  0.93827000000E+00  0.93827000000E+00 0.  1.
     999902    2    1    2    0    0  0.96720402098E-02 -0.28591914629E-02 -0.96007982412E-02  0.10300052499E+01  0.10299111205E+01 0.  0.
     999903    2    3    3    0    0  0.22397753644E-01 -0.84690595136E-01 -0.10134917641E+00  0.14136804201E+00  0.45156521891E-01 0.  0.
         14    1    1    2    0    0 -0.96720402098E-02  0.28591914629E-02  0.96007982412E-02  0.13924750070E-01  0.00000000000E+00 0.  1.
     999901    1    3    3    0    0 -0.12725713434E-01  0.81831403673E-01  0.91748378168E-01  0.88863720792E+00  0.88000000000E+00 0. -1.
        -11    1    4    4    0    0  0.81385472404E-02 -0.43632388933E-01 -0.83127874742E-01  0.94236542781E-01  0.51100000000E-03 0. -1.
         11    1    4    4    0    0  0.14259206403E-01 -0.41058206203E-01 -0.18221301667E-01  0.47131499226E-01  0.51100000000E-03 0.  1.
</event>
<event>
 8    1  0.1993226E+004  0.1043930E+01  0.7957747E-01            NaN
         13   -1    0    0    0    0  0.00000000000E+00  0.00000000000E+00  0.74505805969E-08  0.10566000000E+00  0.10566000000E+00 0. -1.
     999900   -1    0    0    0    0 -0.00000000000E+00 -0.00000000000E+00 -0.74505805969E-08  0.93827000000E+00  0.93827000000E+00 0.  1.
     999902    2    1    2    0    0 -0.14048566479E-01 -0.15229561520E-03 -0.31472469474E-02  0.10295324107E+01  0.10294317336E+01 0.  0.
     999903    2    3    3    0    0  0.43520697071E-01 -0.10037326134E+00 -0.73453507362E-01  0.13919459149E+00  0.44842768530E-01 0.  0.
         14    1    1    2    0    0  0.14048566479E-01  0.15229561520E-03  0.31472469474E-02  0.14397589292E-01  0.00000000000E+00 0. -1.
     999901    1    3    3    0    0 -0.57569263550E-01  0.10022096573E+00  0.70306260415E-01  0.89033781922E+00  0.88000000000E+00 0. -1.
        -11    1    4    4    0    0  0.30120026944E-01 -0.79429063080E-01 -0.76271716640E-01  0.11416579157E+00  0.51100000000E-03 0. -1.
         11    1    4    4    0    0  0.13400670127E-01 -0.20944198265E-01  0.28182092775E-02  0.25028799918E-01  0.51100000000E-03 0.  1.
</event>
<event>
 8    1  0.1993226E+004  0.1043930E+01  0.7957747E-01            NaN
         13   -1    0    0    0    0  0.00000000000E+00  0.00000000000E+00  0.74505805969E-08  0.10566000000E+00  0.10566000000E+00 0. -1.
     999900   -1    0    0    0    0 -0.00000000000E+00 -0.00000000000E+00 -0.74505805969E-08  0.93827000000E+00  0.93827000000E+00 0.  1.
     999902    2    1    2    0    0 -0.98886928580E-02  0.13505986393E-02  0.86992492561E-02  0.10306903890E+01  0.10306053515E+01 0.  0.
     999903    2    3    3    0    0  0.13172998819E+00  0.29562671810E-02 -0.34149627777E-02  0.13928409375E+00  0.45020745167E-01 0.  0.
         14    1    1    2    0    0  0.98886928580E-02 -0.13505986393E-02 -0.86992492561E-02  0.13239611050E-01  0.00000000000E+00 0.  1.
     999901    1    3    3    0    0 -0.14161868105E+00 -0.16056685417E-02  0.12114212034E-01  0.89140629520E+00  0.88000000000E+00 0.  1.
        -11    1    4    4    0    0  0.93669989931E-01 -0.48347777659E-02 -0.21807664912E-01  0.96297858022E-01  0.51100000000E-03 0. -1.
         11    1    4    4    0    0  0.38059998262E-01  0.77910449468E-02  0.18392702134E-01  0.42986235725E-01  0.51100000000E-03 0.  1.
</event>
<event>
 8    1  0.1993226E+004  0.1043930E+01  0.7957747E-01            NaN
         13   -1    0    0    0    0  0.00000000000E+00  0.00000000000E+00  0.74505805969E-08  0.10566000000E+00  0.10566000000E+00 0.  1.
     999900   -1    0    0    0    0 -0.00000000000E+00 -0.00000000000E+00 -0.74505805969E-08  0.93827000000E+00  0.93827000000E+00 0. -1.
     999902    2    1    2    0    0  0.11549775880E-01  0.68501115259E-02 -0.11960152354E-01  0.10259476032E+01  0.10257899970E+01 0.  0.
     999903    2    3    3    0    0 -0.80030375137E-02  0.10353827872E+00 -0.78351173516E-01  0.13795059763E+00  0.45904653645E-01 0.  0.
         14    1    1    2    0    0 -0.11549775880E-01 -0.68501115259E-02  0.11960152354E-01  0.17982396812E-01  0.00000000000E+00 0.  1.
     999901    1    3    3    0    0  0.19552813393E-01 -0.96688167191E-01  0.66391021162E-01  0.88799700556E+00  0.88000000000E+00 0.  1.
        -11    1    4    4    0    0 -0.63596129353E-02  0.54247947334E-02 -0.24768019448E-01  0.26145534666E-01  0.51100000000E-03 0.  1.
         11    1    4    4    0    0 -0.16434245783E-02  0.98113483984E-01 -0.53583154068E-01  0.11180506297E+00  0.51100000000E-03 0. -1.
</event>
<event>
 8    1  0.1993226E+004  0.1043930E+01  0.7957747E-01            NaN
         13   -1    0    0    0    0  0.00000000000E+00  0.00000000000E+00  0.74505805969E-08  0.10566000000E+00  0.10566000000E+00 0.  1.
     999900   -1    0    0    0    0 -0.00000000000E+00 -0.00000000000E+00 -0.74505805969E-08  0.93827000000E+00  0.93827000000E+00 0.  1.
     999902    2    1    2    0    0  0.12521574129E-01  0.38515504991E-02  0.13377596545E-02  0.10307613303E+01  0.10306772076E+01 0.  0.
     999903    2    3    3    0    0 -0.96410382061E-01 -0.88564984298E-01 -0.70651894928E-02  0.13920224842E+00  0.46782805072E-01 0.  0.
         14    1    1    2    0    0 -0.12521574129E-01 -0.38515504991E-02 -0.13377596545E-02  0.13168669667E-01  0.00000000000E+00 0. -1.
     999901    1    3    3    0    0  0.10893195619E+00  0.92416534797E-01  0.84029491473E-02  0.89155908191E+00  0.88000000000E+00 0. -1.
        -11    1    4    4    0    0 -0.35953423878E-01 -0.44878200695E-01  0.18409297766E-01  0.60380998264E-01  0.51100000000E-03 0.  1.
         11    1    4    4    0    0 -0.60456958183E-01 -0.43686783603E-01 -0.25474487259E-01  0.78821250158E-01  0.51100000000E-03 0. -1.
</event>
<event>
 8    1  0.1993226E+004  0.1043930E+01  0.7957747E-01            NaN
         13   -1    0    0    0    0  0.00000000000E+00  0.00000000000E+00  0.74505805969E-08  0.10566000000E+00  0.10566000000E+00 0. -1.
     999900   -1    0    0    0    0 -0.00000000000E+00 -0.00000000000E+00 -0.74505805969E-08  0.93827000000E+00  0.93827000000E+00 0. -1.
     999902    2    1    2    0    0  0.11686590941E-02  0.27888869489E-02  0.14654100869E-01  0.10289671685E+01  0.10288583710E+01 0.  0.
     999903    2    3    3    0    0  0.14742204559E-01 -0.12414638948E+00 -0.38628850349E-01  0.13816086046E+00  0.44346100911E-01 0.  0.
         14    1    1    2    0    0 -0.11686590941E-02 -0.27888869489E-02 -0.14654100869E-01  0.14962831509E-01  0.00000000000E+00 0.  1.
     999901    1    3    3    0    0 -0.13573545465E-01  0.12693527643E+00  0.53282951218E-01  0.89080630803E+00  0.88000000000E+00 0. -1.
        -11    1    4    4    0    0  0.24098857771E-01 -0.47402947125E-01 -0.28060141227E-01  0.60128420807E-01  0.51100000000E-03 0. -1.
         11    1    4    4    0    0 -0.93566532119E-02 -0.76743442359E-01 -0.10568709122E-01  0.78032439652E-01  0.51100000000E-03 0.  1.
</event>
<event>
 8    1  0.1993226E+004  0.1043930E+01  0.7957747E-01            NaN
         13   -1    0    0    0    0  0.00000000000E+00  0.00000000000E+00  0.74505805969E-08  0.10566000000E+00  0.10566000000E+00 0. -1.
     999900   -1    0    0    0    0 -0.00000000000E+00 -0.00000000000E+00 -0.74505805969E-08  0.93827000000E+00  0.93827000000E+00 0.  1.
     999902    2    1    2    0    0  0.72495389131E-02 -0.11116561426E-01 -0.92372995487E-03  0.10306263528E+01  0.10305404854E+01 0.  0.
     999903    2    3    3    0    0 -0.10849843636E+00 -0.62037144638E-01  0.44960912552E-01  0.14040396484E+00  0.45511225823E-01 0.  0.
         14    1    1    2    0    0 -0.72495389131E-02  0.11116561426E-01  0.92372995487E-03  0.13303647222E-01  0.00000000000E+00 0.  1.
     999901    1    3    3    0    0  0.11574797528E+00  0.50920583212E-01 -0.45884642507E-01  0.89022238794E+00  0.88000000000E+00 0.  1.
        -11    1    4    4    0    0 -0.13447881417E-01  0.73354819158E-02  0.46791006686E-02  0.16025289814E-01  0.51100000000E-03 0.  1.
         11    1    4    4    0    0 -0.95050554946E-01 -0.69372626554E-01  0.40281811883E-01  0.12437867502E+00  0.51100000000E-03 0. -1.
</event>
<event>
 8    1  0.1993226E+004  0.1043930E+01  0.7957747E-01            NaN
         13   -1    0    0    0    0  0.00000000000E+00  0.00000000000E+00  0.74505805969E-08  0.10566000000E+00  0.10566000000E+00 0. -1.
     999900   -1    0    0    0    0 -0.00000000000E+00 -0.00000000000E+00 -0.74505805969E-08  0.93827000000E+00  0.93827000000E+00 0.  1.
     999902    2    1    2    0    0  0.14160464471E-01 -0.10547100341E-01  0.10268762082E-01  0.10235043408E+01  0.10233005072E+01 0.  0.
     999903    2    3    3    0    0 -0.32059937565E-01 -0.21222636198E-01  0.12364279180E+00  0.13496398535E+00  0.38072266696E-01 0.  0.
         14    1    1    2    0    0 -0.14160464471E-01  0.10547100341E-01 -0.10268762082E-01  0.20425659214E-01  0.00000000000E+00 0.  1.
     999901    1    3    3    0    0  0.46220402036E-01  0.10675535857E-01 -0.11337402972E+00  0.88854035544E+00  0.88000000000E+00 0.  1.
        -11    1    4    4    0    0 -0.18924536085E-01 -0.25645383827E-01  0.11320096464E+00  0.11760333028E+00  0.51100000000E-03 0. -1.
         11    1    4    4    0    0 -0.13135401480E-01  0.44227476291E-02  0.10441827167E-01  0.17360655063E-01  0.51100000000E-03 0.  1.
</event>
<event>
 8    1  0.1993226E+004  0.1043930E+01  0.7957747E-01            NaN
         13   -1    0    0    0    0  0.00000000000E+00  0.00000000000E+00  0.74505805969E-08  0.10566000000E+00  0.10566000000E+00 0. -1.
     999900   -1    0    0    0    0 -0.00000000000E+00 -0.00000000000E+00 -0.74505805969E-08  0.93827000000E+00  0.93827000000E+00 0.  1.
     999902    2    1    2    0    0 -0.11043768667E-01 -0.37532166190E-02 -0.75510090220E-02  0.10300350657E+01  0.10299413417E+01 0.  0.
     999903    2    3    3    0    0 -0.31308671242E-01 -0.10472946467E+00  0.73307139080E-01  0.14034696922E+00  0.48732345142E-01 0.  0.
         14    1    1    2    0    0  0.11043768667E-01  0.37532166190E-02  0.75510090220E-02  0.13894934279E-01  0.00000000000E+00 0. -1.
     999901    1    3    3    0    0  0.20264902575E-01  0.10097624805E+00 -0.80858148102E-01  0.88968809650E+00  0.88000000000E+00 0. -1.
        -11    1    4    4    0    0 -0.25797688987E-01 -0.23750202071E-01  0.75205472500E-02  0.35866594589E-01  0.51100000000E-03 0.  1.
         11    1    4    4    0    0 -0.55109822550E-02 -0.80979262601E-01  0.65786591830E-01  0.10448037463E+00  0.51100000000E-03 0. -1.
</event>
<event>
 7    1  0.2982228E+004  0.1043930E+01  0.7957747E-01            NaN
         13   -1    0    0    0    0  0.00000000000E+00  0.00000000000E+00  0.74505805969E-08  0.10566000000E+00  0.10566000000E+00 0. -1.
     999900   -1    0    0    0    0 -0.00000000000E+00 -0.00000000000E+00 -0.74505805969E-08  0.93827000000E+00  0.93827000000E+00 0. -1.
     999903    2    1    2    0    0 -0.40244935088E-01 -0.47129085660E-01  0.61794841335E-02  0.76856141003E-01  0.45031931673E-01 0.  0.
         14    1    1    2    0    0  0.56722964272E-01 -0.44730608540E-01  0.36848834520E-01  0.81093517753E-01  0.00000000000E+00 0. -1.
     999901    1    1    2    0    0 -0.16478029184E-01  0.91859694200E-01 -0.43028318653E-01  0.88598034124E+00  0.88000000000E+00 0.  1.
        -11    1    3    3    0    0 -0.11143749506E-01 -0.14330796650E-01  0.23507976006E-01  0.29705907537E-01  0.51100000000E-03 0.  1.
         11    1    3    3    0    0 -0.29101185582E-01 -0.32798289010E-01 -0.17328491873E-01  0.47150233466E-01  0.51100000000E-03 0. -1.
</event>
<event>
 8    1  0.1993226E+004  0.1043930E+01  0.7957747E-01            NaN
         13   -1    0    0    0    0  0.00000000000E+00  0.00000000000E+00  0.74505805969E-08  0.10566000000E+00  0.10566000000E+00 0. -1.
     999900   -1    0    0    0    0 -0.00000000000E+00 -0.00000000000E+00 -0.74505805969E-08  0.93827000000E+00  0.93827000000E+00 0. -1.
     999902    2    1    2    0    0 -0.74718890847E-02  0.98690597941E-02 -0.64126463010E-02  0.10299890710E+01  0.10298947213E+01 0.  0.
     999903    2    3    3    0    0 -0.11597982432E-01  0.63955235095E-01 -0.11734141080E+00  0.14136793141E+00  0.44621744149E-01 0.  0.
         14    1    1    2    0    0  0.74718890847E-02 -0.98690597941E-02  0.64126463010E-02  0.13940928961E-01  0.00000000000E+00 0.  1.
     999901    1    3    3    0    0  0.41260933468E-02 -0.54086175301E-01  0.11092876449E+00  0.88862113963E+00  0.88000000000E+00 0.  1.
        -11    1    4    4    0    0 -0.27533670399E-01  0.50139557624E-01 -0.78017776175E-01  0.96742507538E-01  0.51100000000E-03 0. -1.
         11    1    4    4    0    0  0.15935687967E-01  0.13815677471E-01 -0.39323634620E-01  0.44625423871E-01  0.51100000000E-03 0.  1.
</event>
<event>
 8    1  0.1993226E+004  0.1043930E+01  0.7957747E-01            NaN
         13   -1    0    0    0    0  0.00000000000E+00  0.00000000000E+00  0.74505805969E-08  0.10566000000E+00  0.10566000000E+00 0. -1.
     999900   -1    0    0    0    0 -0.00000000000E+00 -0.00000000000E+00 -0.74505805969E-08  0.93827000000E+00  0.93827000000E+00 0. -1.
     999902    2    1    2    0    0  0.27874589723E-02  0.48378489846E-02  0.12368383730E-01  0.10303597522E+01  0.10302703855E+01 0.  0.
     999903    2    3    3    0    0  0.70972570990E-01  0.14423607064E-01 -0.11022102425E+00  0.13919800522E+00  0.44522625680E-01 0.  0.
         14    1    1    2    0    0 -0.27874589723E-02 -0.48378489846E-02 -0.12368383730E-01  0.13570247839E-01  0.00000000000E+00 0.  1.
     999901    1    3    3    0    0 -0.68185112018E-01 -0.95857580796E-02  0.12258940798E+00  0.89116174694E+00  0.88000000000E+00 0.  1.
        -11    1    4    4    0    0  0.28731630180E-01 -0.83494728730E-02 -0.17171397752E-01  0.34501279567E-01  0.51100000000E-03 0.  1.
         11    1    4    4    0    0  0.42240940810E-01  0.22773079937E-01 -0.93049626498E-01  0.10469672565E+00  0.51100000000E-03 0. -1.
</event>
<event>
 8    1  0.1993226E+004  0.1043930E+01  0.7957747E-01            NaN
         13   -1    0    0    0    0  0.00000000000E+00  0.00000000000E+00  0.74505805969E-08  0.10566000000E+00  0.10566000000E+00 0.  1.
     999900   -1    0    0    0    0 -0.00000000000E+00 -0.00000000000E+00 -0.74505805969E-08  0.93827000000E+00  0.93827000000E+00 0. -1.
     999902    2    1    2    0    0  0.10584390995E-02  0.13374814583E-01  0.33855273543E-02  0.10300928126E+01  0.10299998713E+01 0.  0.
     999903    2    3    3    0    0  0.45531448777E-02 -0.12046601450E+00  0.51779758050E-01  0.13865151785E+00  0.44836461514E-01 0.  0.
         14    1    1    2    0    0 -0.10584390995E-02 -0.13374814583E-01 -0.33855273543E-02  0.13837187356E-01  0.00000000000E+00 0.  1.
     999901    1    3    3    0    0 -0.34947057782E-02  0.13384082908E+00 -0.48394230696E-01  0.89144129479E+00  0.88000000000E+00 0. -1.
        -11    1    4    4    0    0  0.23491492439E-01 -0.57824774861E-01  0.17760800010E-01  0.64894236591E-01  0.51100000000E-03 0.  1.
         11    1    4    4    0    0 -0.18938347561E-01 -0.62641239638E-01  0.34018958040E-01  0.73757281260E-01  0.51100000000E-03 0. -1.
</event>
<event>
 8    1  0.1993226E+004  0.1043930E+01  0.7957747E-01            NaN
         13   -1    0    0    0    0  0.00000000000E+00  0.00000000000E+00  0.74505805969E-08  0.10566000000E+00  0.10566000000E+00 0. -1.
     999900   -1    0    0    0    0 -0.00000000000E+00 -0.00000000000E+00 -0.74505805969E-08  0.93827000000E+00  0.93827000000E+00 0. -1.
     999902    2    1    2    0    0 -0.34290589223E-02  0.10366637600E-01  0.10119629666E-01  0.10290426723E+01  0.10289349780E+01 0.  0.
     999903    2    3    3    0    0  0.19237319834E-01  0.51527123472E-01 -0.11804888006E+00  0.13851748055E+00  0.47185118505E-01 0.  0.
         14    1    1    2    0    0  0.34290589223E-02 -0.10366637600E-01 -0.10119629666E-01  0.14887327658E-01  0.00000000000E+00 0.  1.
     999901    1    3    3    0    0 -0.22666378757E-01 -0.41160485872E-01  0.12816850972E+00  0.89052519179E+00  0.88000000000E+00 0. -1.
        -11    1    4    4    0    0  0.23032394576E-01  0.37445825944E-02 -0.51086050448E-01  0.56165458870E-01  0.51100000000E-03 0. -1.
         11    1    4    4    0    0 -0.37950747420E-02  0.47782540878E-01 -0.66962829611E-01  0.82352021685E-01  0.51100000000E-03 0.  1.
</event>
<event>
 8    1  0.1993226E+004  0.1043930E+01  0.7957747E-01            NaN
         13   -1    0    0    0    0  0.00000000000E+00  0.00000000000E+00  0.74505805969E-08  0.10566000000E+00  0.10566000000E+00 0. -1.
     999900   -1    0    0    0    0 -0.00000000000E+00 -0.00000000000E+00 -0.74505805969E-08  0.93827000000E+00  0.93827000000E+00 0.  1.
     999902    2    1    2    0    0 -0.18807380125E-02  0.49935446300E-02 -0.11996408407E-01  0.10308003969E+01  0.10307167757E+01 0.  0.
     999903    2    3    3    0    0 -0.88948201862E-01 -0.94617681237E-01 -0.30537441413E-01  0.14071786729E+00  0.44773816330E-01 0.  0.
         14    1    1    2    0    0  0.18807380125E-02 -0.49935446300E-02  0.11996408407E-01  0.13129603121E-01  0.00000000000E+00 0. -1.
     999901    1    3    3    0    0  0.87067463849E-01  0.99611225867E-01  0.18541033006E-01  0.89008252959E+00  0.88000000000E+00 0. -1.
        -11    1    4    4    0    0 -0.99653282246E-02 -0.27761788255E-01  0.75482642298E-02  0.30450978106E-01  0.51100000000E-03 0. -1.
         11    1    4    4    0    0 -0.78982873637E-01 -0.66855892982E-01 -0.38085705643E-01  0.11026688918E+00  0.51100000000E-03 0.  1.
</event>
<event>
 8    1  0.1993226E+004  0.1043930E+01  0.7957747E-01            NaN
         13   -1    0    0    0    0  0.00000000000E+00  0.00000000000E+00  0.74505805969E-08  0.10566000000E+00  0.10566000000E+00 0.  1.
     999900   -1    0    0    0    0 -0.00000000000E+00 -0.00000000000E+00 -0.74505805969E-08  0.93827000000E+00  0.93827000000E+00 0.  1.
     999902    2    1    2    0    0  0.78931851108E-02 -0.74891703102E-02  0.91427749543E-02  0.10297180199E+01  0.10296199397E+01 0.  0.
     999903    2    3    3    0    0 -0.39882543790E-01 -0.10294462901E+00  0.74823507897E-01  0.14083769980E+00  0.45260207798E-01 0.  0.
         14    1    1    2    0    0 -0.78931851108E-02  0.74891703102E-02 -0.91427749543E-02  0.14211980052E-01  0.00000000000E+00 0. -1.
     999901    1    3    3    0    0  0.47775728901E-01  0.95455458699E-01 -0.65680732943E-01  0.88888032015E+00  0.88000000000E+00 0.  1.
        -11    1    4    4    0    0  0.84226101823E-03 -0.60427159470E-01  0.37229560880E-01  0.70982056392E-01  0.51100000000E-03 0. -1.
         11    1    4    4    0    0 -0.40724804808E-01 -0.42517469538E-01  0.37593947017E-01  0.69855643408E-01  0.51100000000E-03 0.  1.
</event>
<event>
 8    1  0.1993226E+004  0.1043930E+01  0.7957747E-01            NaN
         13   -1    0    0    0    0  0.00000000000E+00  0.00000000000E+00  0.74505805969E-08  0.10566000000E+00  0.10566000000E+00 0.  1.
     999900   -1    0    0    0    0 -0.00000000000E+00 -0.00000000000E+00 -0.74505805969E-08  0.93827000000E+00  0.93827000000E+00 0. -1.
     999902    2    1    2    0    0 -0.10103623447E-01 -0.10287629199E-01 -0.63324063774E-02  0.10281814162E+01  0.10280607991E+01 0.  0.
     999903    2    3    3    0    0  0.28364983268E-01 -0.68455000316E-01  0.10706545893E+00  0.13816885863E+00  0.46227282605E-01 0.  0.
         14    1    1    2    0    0  0.10103623447E-01  0.10287629199E-01  0.63324063774E-02  0.15748583803E-01  0.00000000000E+00 0.  1.
     999901    1    3    3    0    0 -0.38468606715E-01  0.58167371117E-01 -0.11339786530E+00  0.89001255756E+00  0.88000000000E+00 0. -1.
        -11    1    4    4    0    0 -0.67472422628E-02 -0.42932465169E-01  0.60665495225E-01  0.74627644177E-01  0.51100000000E-03 0.  1.
         11    1    4    4    0    0  0.35112225531E-01 -0.25522535147E-01  0.46399963701E-01  0.63541214456E-01  0.51100000000E-03 0. -1.
</event>
<event>
 8    1  0.1993226E+004  0.1043930E+01  0.7957747E-01            NaN
         13   -1    0    0    0    0  0.00000000000E+00  0.00000000000E+00  0.74505805969E-08  0.10566000000E+00  0.10566000000E+00 0.  1.
     999900   -1    0    0    0    0 -0.00000000000E+00 -0.00000000000E+00 -0.74505805969E-08  0.93827000000E+00  0.93827000000E+00 0.  1.
     999902    2    1    2    0    0 -0.12211570264E-01  0.60654821502E-02 -0.23625496048E-02  0.10300918584E+01  0.10299989042E+01 0.  0.
     999903    2    3    3    0    0  0.63031043966E-01 -0.10834616575E+00 -0.38036878452E-01  0.13878712157E+00  0.45861278380E-01 0.  0.
         14    1    1    2    0    0  0.12211570264E-01 -0.60654821502E-02  0.23625496048E-02  0.13838141590E-01  0.00000000000E+00 0.  1.
     999901    1    3    3    0    0 -0.75242614229E-01  0.11441164791E+00  0.35674328847E-01  0.89130473684E+00  0.88000000000E+00 0. -1.
        -11    1    4    4    0    0  0.25272649254E-01 -0.85863832165E-01 -0.24441677436E-01  0.92784487881E-01  0.51100000000E-03 0. -1.
         11    1    4    4    0    0  0.37758394712E-01 -0.22482333590E-01 -0.13595201016E-01  0.46002633691E-01  0.51100000000E-03 0.  1.
</event>
<event>
 8    1  0.1993226E+004  0.1043930E+01  0.7957747E-01            NaN
         13   -1    0    0    0    0  0.00000000000E+00  0.00000000000E+00  0.74505805969E-08  0.10566000000E+00  0.10566000000E+00 0.  1.
     999900   -1    0    0    0    0 -0.00000000000E+00 -0.00000000000E+00 -0.74505805969E-08  0.93827000000E+00  0.93827000000E+00 0. -1.
     999902    2    1    2    0    0 -0.46782943481E-02  0.11284710128E-01 -0.62320867592E-02  0.10302161374E+01  0.10301248564E+01 0.  0.
     999903    2    3    3    0    0  0.34274967513E-01 -0.48078290002E-01  0.11719400243E+00  0.13877050148E+00  0.45127846255E-01 0.  0.
         14    1    1    2    0    0  0.46782943481E-02 -0.11284710128E-01  0.62320867592E-02  0.13713862550E-01  0.00000000000E+00 0.  1.
     999901    1    3    3    0    0 -0.38953261861E-01  0.59363000130E-01 -0.12342608919E+00  0.89144563597E+00  0.88000000000E+00 0. -1.
        -11    1    4    4    0    0  0.37633482879E-01 -0.14425835291E-01  0.68574294789E-01  0.79542936734E-01  0.51100000000E-03 0.  1.
         11    1    4    4    0    0 -0.33585153657E-02 -0.33652454711E-01  0.48619707644E-01  0.59227564747E-01  0.51100000000E-03 0. -1.
</event>
<event>
 8    1  0.1993226E+004  0.1043930E+01  0.7957747E-01            NaN
         13   -1    0    0    0    0  0.00000000000E+00  0.00000000000E+00  0.74505805969E-08  0.10566000000E+00  0.10566000000E+00 0. -1.
     999900   -1    0    0    0    0 -0.00000000000E+00 -0.00000000000E+00 -0.74505805969E-08  0.93827000000E+00  0.93827000000E+00 0. -1.
     999902    2    1    2    0    0  0.58565578471E-02 -0.21312662864E-02 -0.12056693104E-01  0.10303577705E+01  0.10302683775E+01 0.  0.
     999903    2    3    3    0    0 -0.24018637323E-01  0.10501050597E+00  0.75393425870E-01  0.13905568366E+00  0.45257189376E-01 0.  0.
         14    1    1    2    0    0 -0.58565578471E-02  0.21312662864E-02  0.12056693104E-01  0.13572229530E-01  0.00000000000E+00 0. -1.
     999901    1    3    3    0    0  0.29875195170E-01 -0.10714177226E+00 -0.87450118974E-01  0.89130208681E+00  0.88000000000E+00 0. -1.
        -11    1    4    4    0    0 -0.19646367147E-01  0.10617966272E-01  0.15137298911E-01  0.26983696729E-01  0.51100000000E-03 0.  1.
         11    1    4    4    0    0 -0.43722701753E-02  0.94392539698E-01  0.60256126959E-01  0.11207198693E+00  0.51100000000E-03 0. -1.
</event>
<event>
 8    1  0.1993226E+004  0.1043930E+01  0.7957747E-01            NaN
         13   -1    0    0    0    0  0.00000000000E+00  0.00000000000E+00  0.74505805969E-08  0.10566000000E+00  0.10566000000E+00 0. -1.
     999900   -1    0    0    0    0 -0.00000000000E+00 -0.00000000000E+00 -0.74505805969E-08  0.93827000000E+00  0.93827000000E+00 0. -1.
     999902    2    1    2    0    0  0.11104001315E-01 -0.45108353338E-03 -0.78146018542E-02  0.10303443339E+01  0.10302547627E+01 0.  0.
     999903    2    3    3    0    0 -0.81613734816E-02 -0.12207746716E+00  0.51322331999E-01  0.13980443652E+00  0.44065663549E-01 0.  0.
         14    1    1    2    0    0 -0.11104001315E-01  0.45108353338E-03  0.78146018542E-02  0.13585666112E-01  0.00000000000E+00 0.  1.
     999901    1    3    3    0    0  0.19265374797E-01  0.12162638362E+00 -0.59136933853E-01  0.89053989737E+00  0.88000000000E+00 0. -1.
        -11    1    4    4    0    0 -0.15849840972E-01 -0.10638221056E+00  0.28903597612E-01  0.11137356625E+00  0.51100000000E-03 0. -1.
         11    1    4    4    0    0  0.76884674902E-02 -0.15695256599E-01  0.22418734387E-01  0.28430870274E-01  0.51100000000E-03 0.  1.
</event>
<event>
 8    1  0.1993226E+004  0.1043930E+01  0.7957747E-01            NaN
         13   -1    0    0    0    0  0.00000000000E+00  0.00000000000E+00  0.74505805969E-08  0.10566000000E+00  0.10566000000E+00 0.  1.
     999900   -1    0    0    0    0 -0.00000000000E+00 -0.00000000000E+00 -0.74505805969E-08  0.93827000000E+00  0.93827000000E+00 0.  1.
     999902    2    1    2    0    0  0.13661077402E-01 -0.21702451692E-02 -0.19017701202E-02  0.10299674884E+01  0.10298728443E+01 0.  0.
     999903    2    3    3    0    0  0.31450097170E-01 -0.16037233329E-01  0.12836915955E+00  0.14009150959E+00  0.43596886031E-01 0.  0.
         14    1    1    2    0    0 -0.13661077402E-01  0.21702451692E-02  0.19017701202E-02  0.13962511574E-01  0.00000000000E+00 0.  1.
     999901    1    3    3    0    0 -0.17789019768E-01  0.13866988160E-01 -0.13027092967E+00  0.88987597883E+00  0.88000000000E+00 0.  1.
        -11    1    4    4    0    0  0.28548484635E-01 -0.19233484980E-01  0.45243424269E-01  0.56852189755E-01  0.51100000000E-03 0. -1.
         11    1    4    4    0    0  0.29016125348E-02  0.31962516514E-02  0.83125735282E-01  0.83239319838E-01  0.51100000000E-03 0.  1.
</event>
<event>
 8    1  0.1993226E+004  0.1043930E+01  0.7957747E-01            NaN
         13   -1    0    0    0    0  0.00000000000E+00  0.00000000000E+00  0.74505805969E-08  0.10566000000E+00  0.10566000000E+00 0. -1.
     999900   -1    0    0    0    0 -0.00000000000E+00 -0.00000000000E+00 -0.74505805969E-08  0.93827000000E+00  0.93827000000E+00 0.  1.
     999902    2    1    2    0    0 -0.32461967737E-02  0.10391105500E-01 -0.86287649731E-02  0.10300386915E+01  0.10299450167E+01 0.  0.
     999903    2    3    3    0    0  0.30865138623E-01  0.99597723735E-01  0.81937949144E-01  0.14025010220E+00  0.45649756856E-01 0.  0.
         14    1    1    2    0    0  0.32461967737E-02 -0.10391105500E-01  0.86287649731E-02  0.13891308505E-01  0.00000000000E+00 0. -1.
     999901    1    3    3    0    0 -0.34111335396E-01 -0.89206618235E-01 -0.90566714117E-01  0.88978858930E+00  0.88000000000E+00 0. -1.
        -11    1    4    4    0    0  0.28262833809E-01  0.69639684309E-01  0.31428309025E-01  0.81464551400E-01  0.51100000000E-03 0.  1.
         11    1    4    4    0    0  0.26023048138E-02  0.29958039426E-01  0.50509640120E-01  0.58785550798E-01  0.51100000000E-03 0. -1.
</event>
<event>
 8    1  0.1993226E+004  0.1043930E+01  0.7957747E-01            NaN
         13   -1    0    0    0    0  0.00000000000E+00  0.00000000000E+00  0.74505805969E-08  0.10566000000E+00  0.10566000000E+00 0. -1.
     999900   -1    0    0    0    0 -0.00000000000E+00 -0.00000000000E+00 -0.74505805969E-08  0.93827000000E+00  0.93827000000E+00 0. -1.
     999902    2    1    2    0    0  0.11553506031E-01  0.36036265685E-02  0.80256129016E-02  0.10294082891E+01  0.10293058562E+01 0.  0.
     999903    2    3    3    0    0 -0.53915889687E-02 -0.51811157709E-01 -0.11977238101E+00  0.13829086593E+00  0.45447497752E-01 0.  0.
         14    1    1    2    0    0 -0.11553506031E-01 -0.36036265685E-02 -0.80256129016E-02  0.14521710936E-01  0.00000000000E+00 0. -1.
     999901    1    3    3    0    0  0.16945095000E-01  0.55414784277E-01  0.12779799392E+00  0.89111742313E+00  0.88000000000E+00 0.  1.
        -11    1    4    4    0    0  0.13451493055E-01 -0.23468110359E-01 -0.22347695319E-01  0.35090960036E-01  0.51100000000E-03 0.  1.
         11    1    4    4    0    0 -0.18843082023E-01 -0.28343047350E-01 -0.97424685694E-01  0.10319990590E+00  0.51100000000E-03 0. -1.
</event>
<event>
 8    1  0.1993226E+004  0.1043930E+01  0.7957747E-01            NaN
         13   -1    0    0    0    0  0.00000000000E+00  0.00000000000E+00  0.74505805969E-08  0.10566000000E+00  0.10566000000E+00 0.  1.
     999900   -1    0    0    0    0 -0.00000000000E+00 -0.00000000000E+00 -0.74505805969E-08  0.93827000000E+00  0.93827000000E+00 0. -1.
     999902    2    1    2    0    0 -0.37394949102E-02 -0.10116995100E-02  0.26114418549E-01  0.10175298065E+01  0.10171872674E+01 0.  0.
     999903    2    3    3    0    0  0.11826128162E+00  0.23303085946E-01  0.24770084316E-02  0.12846618373E+00  0.44369586956E-01 0.  0.
         14    1    1    2    0    0  0.37394949102E-02  0.10116995100E-02 -0.26114418549E-01  0.26400193451E-01  0.00000000000E+00 0. -1.
     999901    1    3    3    0    0 -0.12200077653E+00 -0.24314785456E-01  0.23637410118E-01  0.88906362282E+00  0.88000000000E+00 0.  1.
        -11    1    4    4    0    0  0.41317571939E-01 -0.23943866113E-02  0.19217459105E-01  0.45633832774E-01  0.51100000000E-03 0.  1.
         11    1    4    4    0    0  0.76943709678E-01  0.25697472557E-01 -0.16740450674E-01  0.82832350954E-01  0.51100000000E-03 0. -1.
</event>
<event>
 8    1  0.1993226E+004  0.1043930E+01  0.7957747E-01            NaN
         13   -1    0    0    0    0  0.00000000000E+00  0.00000000000E+00  0.74505805969E-08  0.10566000000E+00  0.10566000000E+00 0.  1.
     999900   -1    0    0    0    0 -0.00000000000E+00 -0.00000000000E+00 -0.74505805969E-08  0.93827000000E+00  0.93827000000E+00 0. -1.
     999902    2    1    2    0    0 -0.10975835802E-01  0.39832542934E-02  0.86411715442E-02  0.10294039843E+01  0.10293014902E+01 0.  0.
     999903    2    3    3    0    0  0.42413275235E-01 -0.36191216822E-02  0.12695804857E+00  0.13984955838E+00  0.40343139733E-01 0.  0.
         14    1    1    2    0    0  0.10975835802E-01 -0.39832542934E-02 -0.86411715442E-02  0.14526015695E-01  0.00000000000E+00 0. -1.
     999901    1    3    3    0    0 -0.53389111037E-01  0.76023759756E-02 -0.11831687703E+00  0.88955442593E+00  0.88000000000E+00 0. -1.
        -11    1    4    4    0    0  0.35169448786E-01  0.97580691287E-02  0.11450837079E+00  0.12018543232E+00  0.51100000000E-03 0. -1.
         11    1    4    4    0    0  0.72438264492E-02 -0.13377190811E-01  0.12449677783E-01  0.19664126055E-01  0.51100000000E-03 0.  1.
</event>
<event>
 8    1  0.1993226E+004  0.1043930E+01  0.7957747E-01            NaN
         13   -1    0    0    0    0  0.00000000000E+00  0.00000000000E+00  0.74505805969E-08  0.10566000000E+00  0.10566000000E+00 0.  1.
     999900   -1    0    0    0    0 -0.00000000000E+00 -0.00000000000E+00 -0.74505805969E-08  0.93827000000E+00  0.93827000000E+00 0. -1.
     999902    2    1    2    0    0 -0.10719019232E-01  0.64122535685E-02 -0.61963283358E-02  0.10299869424E+01  0.10298925637E+01 0.  0.
     999903    2    3    3    0    0  0.12408895047E+00 -0.39741787411E-01 -0.11667699188E-01  0.13850877665E+00  0.45508995911E-01 0.  0.
         14    1    1    2    0    0  0.10719019232E-01 -0.64122535685E-02  0.61963283358E-02  0.13943057554E-01  0.00000000000E+00 0.  1.
     999901    1    3    3    0    0 -0.13480796970E+00  0.46154040979E-01  0.54713708519E-02  0.89147816580E+00  0.88000000000E+00 0. -1.
        -11    1    4    4    0    0  0.89824951403E-01 -0.77456020219E-02 -0.15447115800E-01  0.91473442883E-01  0.51100000000E-03 0. -1.
         11    1    4    4    0    0  0.34263999067E-01 -0.31996185389E-01  0.37794166118E-02  0.47035333766E-01  0.51100000000E-03 0.  1.
</event>
<event>
 8    1  0.1993226E+004  0.1043930E+01  0.7957747E-01            NaN
         13   -1    0    0    0    0  0.00000000000E+00  0.00000000000E+00  0.74505805969E-08  0.10566000000E+00  0.10566000000E+00 0.  1.
     999900   -1    0    0    0    0 -0.00000000000E+00 -0.00000000000E+00 -0.74505805969E-08  0.93827000000E+00  0.93827000000E+00 0. -1.
     999902    2    1    2    0    0  0.67542931225E-03 -0.51203405837E-02  0.12615294404E-01  0.10302984284E+01  0.10302082468E+01 0.  0.
     999903    2    3    3    0    0 -0.45634175923E-01  0.12276525540E+00 -0.10619052951E-01  0.13954642017E+00  0.46975026906E-01 0.  0.
         14    1    1    2    0    0 -0.67542931225E-03  0.51203405837E-02 -0.12615294404E-01  0.13631571639E-01  0.00000000000E+00 0. -1.
     999901    1    3    3    0    0  0.46309605235E-01 -0.12788559598E+00  0.23234347355E-01  0.89075200819E+00  0.88000000000E+00 0.  1.
        -11    1    4    4    0    0 -0.11535252090E-01  0.91382725407E-01 -0.13589078034E-01  0.93106330110E-01  0.51100000000E-03 0. -1.
         11    1    4    4    0    0 -0.34098923833E-01  0.31382529988E-01  0.29700250838E-02  0.46440090062E-01  0.51100000000E-03 0.  1.
</event>
<event>
 8    1  0.1993226E+004  0.1043930E+01  0.7957747E-01            NaN
         13   -1    0    0    0    0  0.00000000000E+00  0.00000000000E+00  0.74505805969E-08  0.10566000000E+00  0.10566000000E+00 0.  1.
     999900   -1    0    0    0    0 -0.00000000000E+00 -0.00000000000E+00 -0.74505805969E-08  0.93827000000E+00  0.93827000000E+00 0.  1.
     999902    2    1    2    0    0 -0.11447433216E-01  0.18573585516E-02  0.69343473950E-02  0.10304178321E+01  0.10303292338E+01 0.  0.
     999903    2    3    3    0    0 -0.67759686116E-02 -0.12479011294E+00  0.45449221751E-01  0.14050502727E+00  0.45360168590E-01 0.  0.
         14    1    1    2    0    0  0.11447433216E-01 -0.18573585516E-02 -0.69343473950E-02  0.13512167917E-01  0.00000000000E+00 0. -1.
     999901    1    3    3    0    0 -0.46714646045E-02  0.12664747149E+00 -0.38514874356E-01  0.88991280481E+00  0.88000000000E+00 0.  1.
        -11    1    4    4    0    0  0.12862766678E-02 -0.59360754998E-01 -0.17859030623E-02  0.59403739885E-01  0.51100000000E-03 0.  1.
         11    1    4    4    0    0 -0.80622452795E-02 -0.65429357938E-01  0.47235124813E-01  0.81101287389E-01  0.51100000000E-03 0. -1.
</event>
<event>
 8    1  0.1993226E+004  0.1043930E+01  0.7957747E-01            NaN
         13   -1    0    0    0    0  0.00000000000E+00  0.00000000000E+00  0.74505805969E-08  0.10566000000E+00  0.10566000000E+00 0. -1.
     999900   -1    0    0    0    0 -0.00000000000E+00 -0.00000000000E+00 -0.74505805969E-08  0.93827000000E+00  0.93827000000E+00 0.  1.
     999902    2    1    2    0    0 -0.91414531934E-02 -0.93661725567E-02  0.53264286268E-02  0.10297998126E+01  0.10297028658E+01 0.  0.
     999903    2    3    3    0    0  0.96665760972E-01  0.66374343659E-02 -0.85973796422E-01  0.13862810459E+00  0.49375427421E-01 0.  0.
         14    1    1    2    0    0  0.91414531934E-02  0.93661725567E-02 -0.53264286268E-02  0.14130187428E-01  0.00000000000E+00 0. -1.
     999901    1    3    3    0    0 -0.10580721417E+00 -0.16003606923E-01  0.91300225049E-01  0.89117170798E+00  0.88000000000E+00 0. -1.
        -11    1    4    4    0    0  0.65673421690E-01  0.27075108710E-01 -0.63130361850E-01  0.95035590893E-01  0.51100000000E-03 0.  1.
         11    1    4    4    0    0  0.30992339282E-01 -0.20437674344E-01 -0.22843434572E-01  0.43592513701E-01  0.51100000000E-03 0. -1.
</event>
<event>
 8    1  0.1993226E+004  0.1043930E+01  0.7957747E-01            NaN
         13   -1    0    0    0    0  0.00000000000E+00  0.00000000000E+00  0.74505805969E-08  0.10566000000E+00  0.10566000000E+00 0. -1.
     999900   -1    0    0    0    0 -0.00000000000E+00 -0.00000000000E+00 -0.74505805969E-08  0.93827000000E+00  0.93827000000E+00 0. -1.
     999902    2    1    2    0    0  0.51490638085E-02 -0.60376201540E-02  0.13529965739E-01  0.10282447940E+01  0.10281251532E+01 0.  0.
     999903    2    3    3    0    0  0.55461146324E-01  0.49199468866E-01  0.10893105076E+00  0.13994089965E+00  0.47127010169E-01 0.  0.
         14    1    1    2    0    0 -0.51490638085E-02  0.60376201540E-02 -0.13529965739E-01  0.15685206027E-01  0.00000000000E+00 0.  1.
     999901    1    3    3    0    0 -0.50312082515E-01 -0.55237089020E-01 -0.95401085017E-01  0.88830389432E+00  0.88000000000E+00 0. -1.
        -11    1    4    4    0    0  0.35322812895E-01  0.42133767954E-01  0.10458106607E+00  0.11815420439E+00  0.51100000000E-03 0. -1.
         11    1    4    4    0    0  0.20138333429E-01  0.70657009120E-02  0.43499846856E-02  0.21786695262E-01  0.51100000000E-03 0.  1.
</event>
<event>
 8    1  0.1993226E+004  0.1043930E+01  0.7957747E-01            NaN
         13   -1    0    0    0    0  0.00000000000E+00  0.00000000000E+00  0.74505805969E-08  0.10566000000E+00  0.10566000000E+00 0.  1.
     999900   -1    0    0    0    0 -0.00000000000E+00 -0.00000000000E+00 -0.74505805969E-08  0.93827000000E+00  0.93827000000E+00 0.  1.
     999902    2    1    2    0    0  0.48240665156E-02  0.19375848234E-02  0.12476457611E-01  0.10304137932E+01  0.10303251415E+01 0.  0.
     999903    2    3    3    0    0 -0.10689967900E+00 -0.69287342659E-02  0.79378204794E-01  0.14078653937E+00  0.45215058782E-01 0.  0.
         14    1    1    2    0    0 -0.48240665156E-02 -0.19375848234E-02 -0.12476457611E-01  0.13516206835E-01  0.00000000000E+00 0. -1.
     999901    1    3    3    0    0  0.11172374552E+00  0.88663190893E-02 -0.66901747183E-01  0.88962725380E+00  0.88000000000E+00 0.  1.
        -11    1    4    4    0    0 -0.54623248072E-01 -0.25895381673E-01  0.37118224050E-01  0.70938661528E-01  0.51100000000E-03 0.  1.
         11    1    4    4    0    0 -0.52276430932E-01  0.18966647407E-01  0.42259980744E-01  0.69847877837E-01  0.51100000000E-03 0. -1.
</event>
<event>
 8    1  0.1993226E+004  0.1043930E+01  0.7957747E-01            NaN
         13   -1    0    0    0    0  0.00000000000E+00  0.00000000000E+00  0.74505805969E-08  0.10566000000E+00  0.10566000000E+00 0. -1.
     999900   -1    0    0    0    0 -0.00000000000E+00 -0.00000000000E+00 -0.74505805969E-08  0.93827000000E+00  0.93827000000E+00 0.  1.
     999902    2    1    2    0    0 -0.31140591047E-03  0.75345637175E-02  0.12233971870E-01  0.10295586155E+01  0.10294583071E+01 0.  0.
     999903    2    3    3    0    0  0.18619457324E-01 -0.63559282627E-01 -0.11212960517E+00  0.13777444216E+00  0.44969789378E-01 0.  0.
         14    1    1    2    0    0  0.31140591047E-03 -0.75345637175E-02 -0.12233971870E-01  0.14371384477E-01  0.00000000000E+00 0.  1.
     999901    1    3    3    0    0 -0.18930863235E-01  0.71093846345E-01  0.12436357704E+00  0.89178417337E+00  0.88000000000E+00 0. -1.
        -11    1    4    4    0    0  0.23069231834E-01 -0.31965517294E-01 -0.91882696766E-01  0.99983372814E-01  0.51100000000E-03 0.  1.
         11    1    4    4    0    0 -0.44497745100E-02 -0.31593765333E-01 -0.20246908406E-01  0.37791069343E-01  0.51100000000E-03 0. -1.
</event>
<event>
 8    1  0.1993226E+004  0.1043930E+01  0.7957747E-01            NaN
         13   -1    0    0    0    0  0.00000000000E+00  0.00000000000E+00  0.74505805969E-08  0.10566000000E+00  0.10566000000E+00 0.  1.
     999900   -1    0    0    0    0 -0.00000000000E+00 -0.00000000000E+00 -0.74505805969E-08  0.93827000000E+00  0.93827000000E+00 0. -1.
     999902    2    1    2    0    0 -0.11899177263E-02 -0.54935754269E-02 -0.13356927542E-01  0.10294385270E+01  0.10293365233E+01 0.  0.
     999903    2    3    3    0    0 -0.90994838487E-01  0.64269349916E-01 -0.71998104591E-01  0.14018570743E+00  0.45361829022E-01 0.  0.
         14    1    1    2    0    0  0.11899177263E-02  0.54935754269E-02  0.13356927542E-01  0.14491472959E-01  0.00000000000E+00 0.  1.
     999901    1    3    3    0    0  0.89804920761E-01 -0.69762925343E-01  0.58641177050E-01  0.88925281961E+00  0.88000000000E+00 0.  1.
        -11    1    4    4    0    0 -0.30501154638E-01  0.28533219571E-01 -0.32687071487E-02  0.41897620705E-01  0.51100000000E-03 0.  1.
         11    1    4    4    0    0 -0.60493683850E-01  0.35736130345E-01 -0.68729397442E-01  0.98288086722E-01  0.51100000000E-03 0. -1.
</event>
<event>
 7    1  0.1993226E+004  0.1043930E+01  0.7957747E-01            NaN
         13   -1    0    0    0    0  0.00000000000E+00  0.00000000000E+00  0.74505805969E-08  0.10566000000E+00  0.10566000000E+00 0. -1.
     999900   -1    0    0    0    0 -0.00000000000E+00 -0.00000000000E+00 -0.74505805969E-08  0.93827000000E+00  0.93827000000E+00 0. -1.
     999902    2    1    2    0    0 -0.64047876480E-02  0.56586558722E-02  0.10507751834E-01  0.10303854609E+01  0.10302964348E+01 0.  0.
         14    1    1    2    0    0  0.64047876480E-02 -0.56586558722E-02 -0.10507751834E-01  0.13544539110E-01  0.00000000000E+00 0.  1.
     999901    1    3    3    0    0  0.45269070003E-01 -0.11052163940E+00 -0.53402917750E-02  0.88808380246E+00  0.88000000000E+00 0. -1.
        -11    1    3    3    0    0 -0.34143438652E-01  0.96504655380E-01  0.36643267033E-01  0.10872862113E+00  0.51100000000E-03 0.  1.
         11    1    3    3    0    0 -0.17530418999E-01  0.19675639891E-01 -0.20795223424E-01  0.33573037301E-01  0.51100000000E-03 0. -1.
</event>
<event>
 8    1  0.1993226E+004  0.1043930E+01  0.7957747E-01            NaN
         13   -1    0    0    0    0  0.00000000000E+00  0.00000000000E+00  0.74505805969E-08  0.10566000000E+00  0.10566000000E+00 0.  1.
     999900   -1    0    0    0    0 -0.00000000000E+00 -0.00000000000E+00 -0.74505805969E-08  0.93827000000E+00  0.93827000000E+00 0.  1.
     999902    2    1    2    0    0 -0.13204665320E-01 -0.40984871769E-02 -0.65734523730E-03  0.10300882918E+01  0.10299952893E+01 0.  0.
     999903    2    3    3    0    0  0.65356874754E-01  0.47476703972E-01 -0.10421545946E+00  0.13904609361E+00  0.44129306142E-01 0.  0.
         14    1    1    2    0    0  0.13204665320E-01  0.40984871769E-02  0.65734523730E-03  0.13841708208E-01  0.00000000000E+00 0. -1.
     999901    1    3    3    0    0 -0.78561540075E-01 -0.51575191149E-01  0.10355811422E+00  0.89104219818E+00  0.88000000000E+00 0. -1.
        -11    1    4    4    0    0  0.38873795617E-01  0.17377182059E-01 -0.83922470984E-01  0.94108345533E-01  0.51100000000E-03 0.  1.
         11    1    4    4    0    0  0.26483079137E-01  0.30099521913E-01 -0.20292988473E-01  0.44937748076E-01  0.51100000000E-03 0. -1.
</event>
<event>
 8    1  0.1993226E+004  0.1043930E+01  0.7957747E-01            NaN
         13   -1    0    0    0    0  0.00000000000E+00  0.00000000000E+00  0.74505805969E-08  0.10566000000E+00  0.10566000000E+00 0. -1.
     999900   -1    0    0    0    0 -0.00000000000E+00 -0.00000000000E+00 -0.74505805969E-08  0.93827000000E+00  0.93827000000E+00 0. -1.
     999902    2    1    2    0    0  0.87686398552E-02 -0.90234157132E-02  0.64446615918E-02  0.10297933547E+01  0.10296963187E+01 0.  0.
     999903    2    3    3    0    0 -0.12006748617E+00  0.14961508102E-01  0.51617123750E-01  0.13894287611E+00  0.44729714927E-01 0.  0.
         14    1    1    2    0    0 -0.87686398552E-02  0.90234157132E-02 -0.64446615918E-02  0.14136645255E-01  0.00000000000E+00 0.  1.
     999901    1    3    3    0    0  0.12883612603E+00 -0.23984923815E-01 -0.45172462158E-01  0.89085047863E+00  0.88000000000E+00 0. -1.
        -11    1    4    4    0    0 -0.63612722673E-01 -0.33708723232E-02  0.58177048935E-02  0.63969118153E-01  0.51100000000E-03 0.  1.
         11    1    4    4    0    0 -0.56454763501E-01  0.18332380425E-01  0.45799418856E-01  0.74973757960E-01  0.51100000000E-03 0. -1.
</event>
<event>
 8    1  0.1993226E+004  0.1043930E+01  0.7957747E-01            NaN
         13   -1    0    0    0    0  0.00000000000E+00  0.00000000000E+00  0.74505805969E-08  0.10566000000E+00  0.10566000000E+00 0. -1.
     999900   -1    0    0    0    0 -0.00000000000E+00 -0.00000000000E+00 -0.74505805969E-08  0.93827000000E+00  0.93827000000E+00 0.  1.
     999902    2    1    2    0    0  0.15889756256E-01  0.52909062667E-02 -0.32286845788E-02  0.10268741375E+01  0.10267324830E+01 0.  0.
     999903    2    3    3    0    0  0.62112897932E-01  0.92451809530E-01 -0.69859646999E-01  0.13885764716E+00  0.44673557292E-01 0.  0.
         14    1    1    2    0    0 -0.15889756256E-01 -0.52909062667E-02  0.32286845788E-02  0.17055862544E-01  0.00000000000E+00 0. -1.
     999901    1    3    3    0    0 -0.46223141675E-01 -0.87160903264E-01  0.66630962421E-01  0.88801649030E+00  0.88000000000E+00 0.  1.
        -11    1    4    4    0    0  0.47753582178E-01  0.35263719087E-01 -0.23488160354E-01  0.63842691770E-01  0.51100000000E-03 0. -1.
         11    1    4    4    0    0  0.14359315754E-01  0.57188090443E-01 -0.46371486645E-01  0.75014955390E-01  0.51100000000E-03 0.  1.
</event>
<event>
 8    1  0.1993226E+004  0.1043930E+01  0.7957747E-01            NaN
         13   -1    0    0    0    0  0.00000000000E+00  0.00000000000E+00  0.74505805969E-08  0.10566000000E+00  0.10566000000E+00 0. -1.
     999900   -1    0    0    0    0 -0.00000000000E+00 -0.00000000000E+00 -0.74505805969E-08  0.93827000000E+00  0.93827000000E+00 0. -1.
     999902    2    1    2    0    0 -0.39312919669E-03 -0.88888626898E-02  0.97437652641E-02  0.10307350240E+01  0.10306505626E+01 0.  0.
     999903    2    3    3    0    0  0.11841343063E+00  0.34948026071E-01  0.50074781703E-01  0.14075566335E+00  0.45404492322E-01 0.  0.
         14    1    1    2    0    0  0.39312919669E-03  0.88888626898E-02 -0.97437652641E-02  0.13194976014E-01  0.00000000000E+00 0.  1.
     999901    1    3    3    0    0 -0.11880655982E+00 -0.43836888761E-01 -0.40331016439E-01  0.88997936064E+00  0.88000000000E+00 0.  1.
        -11    1    4    4    0    0  0.87985062389E-01  0.11012251410E-01  0.50481556347E-01  0.10203572677E+00  0.51100000000E-03 0.  1.
         11    1    4    4    0    0  0.30428368238E-01  0.23935774661E-01 -0.40677464383E-03  0.38719936582E-01  0.51100000000E-03 0. -1.
</event>
<event>
 8    1  0.1993226E+004  0.1043930E+01  0.7957747E-01            NaN
         13   -1    0    0    0    0  0.00000000000E+00  0.00000000000E+00  0.74505805969E-08  0.10566000000E+00  0.10566000000E+00 0. -1.
     999900   -1    0    0    0    0 -0.00000000000E+00 -0.00000000000E+00 -0.74505805969E-08  0.93827000000E+00  0.93827000000E+00 0.  1.
     999902    2    1    2    0    0  0.10062718981E-02 -0.22650866103E-01 -0.28613468710E-03  0.10212549875E+01  0.10210032289E+01 0.  0.
     999903    2    3    3    0    0 -0.23946501458E-01  0.49631213167E-01  0.11046144200E+00  0.13102335157E+00  0.43916924253E-01 0.  0.
         14    1    1    2    0    0 -0.10062718981E-02  0.22650866103E-01  0.28613468710E-03  0.22675012490E-01  0.00000000000E+00 0. -1.
     999901    1    3    3    0    0  0.24952773357E-01 -0.72282079270E-01 -0.11074757669E+00  0.89023163594E+00  0.88000000000E+00 0.  1.
        -11    1    4    4    0    0 -0.29371068847E-01  0.42802176079E-01  0.57999058516E-01  0.77838537191E-01  0.51100000000E-03 0. -1.
         11    1    4    4    0    0  0.54245673886E-02  0.68290370884E-02  0.52462383485E-01  0.53184814381E-01  0.51100000000E-03 0.  1.
</event>
<event>
 8    1  0.1993226E+004  0.1043930E+01  0.7957747E-01            NaN
         13   -1    0    0    0    0  0.00000000000E+00  0.00000000000E+00  0.74505805969E-08  0.10566000000E+00  0.10566000000E+00 0.  1.
     999900   -1    0    0    0    0 -0.00000000000E+00 -0.00000000000E+00 -0.74505805969E-08  0.93827000000E+00  0.93827000000E+00 0.  1.
     999902    2    1    2    0    0 -0.78958747292E-02  0.10076125354E-01  0.53325675735E-02  0.10300624329E+01  0.10299690803E+01 0.  0.
     999903    2    3    3    0    0 -0.11144964624E+00  0.73788028533E-01 -0.12134808433E-01  0.14153122951E+00  0.44923696966E-01 0.  0.
         14    1    1    2    0    0  0.78958747292E-02 -0.10076125354E-01 -0.53325675735E-02  0.13867567083E-01  0.00000000000E+00 0. -1.
     999901    1    3    3    0    0  0.10355377151E+00 -0.63711903179E-01  0.17467376007E-01  0.88853120341E+00  0.88000000000E+00 0. -1.
        -11    1    4    4    0    0 -0.57737621386E-01  0.12865850204E-01  0.14966602357E-02  0.59174860689E-01  0.51100000000E-03 0.  1.
         11    1    4    4    0    0 -0.53712024856E-01  0.60922178328E-01 -0.13631468669E-01  0.82356368822E-01  0.51100000000E-03 0. -1.
</event>
<event>
 8    1  0.1993226E+004  0.1043930E+01  0.7957747E-01            NaN
         13   -1    0    0    0    0  0.00000000000E+00  0.00000000000E+00  0.74505805969E-08  0.10566000000E+00  0.10566000000E+00 0.  1.
     999900   -1    0    0    0    0 -0.00000000000E+00 -0.00000000000E+00 -0.74505805969E-08  0.93827000000E+00  0.93827000000E+00 0.  1.
     999902    2    1    2    0    0 -0.44938143481E-02  0.92006792653E-02  0.90563136476E-02  0.10302601908E+01  0.10301694992E+01 0.  0.
     999903    2    3    3    0    0 -0.36451795627E-01 -0.47361938510E-01  0.11946642760E+00  0.14098462297E+00  0.45083810487E-01 0.  0.
         14    1    1    2    0    0  0.44938143481E-02 -0.92006792653E-02 -0.90563136476E-02  0.13669809187E-01  0.00000000000E+00 0. -1.
     999901    1    3    3    0    0  0.31957981278E-01  0.56562617775E-01 -0.11041011395E+00  0.88927556784E+00  0.88000000000E+00 0.  1.
        -11    1    4    4    0    0 -0.34692834756E-01 -0.24436677453E-01  0.40222949074E-01  0.58471281340E-01  0.51100000000E-03 0. -1.
         11    1    4    4    0    0 -0.17589608708E-02 -0.22925261056E-01  0.79243478522E-01  0.82513341631E-01  0.51100000000E-03 0.  1.
</event>
<event>
 8    1  0.1993226E+004  0.1043930E+01  0.7957747E-01            NaN
         13   -1    0    0    0    0  0.00000000000E+00  0.00000000000E+00  0.74505805969E-08  0.10566000000E+00  0.10566000000E+00 0.  1.
     999900   -1    0    0    0    0 -0.00000000000E+00 -0.00000000000E+00 -0.74505805969E-08  0.93827000000E+00  0.93827000000E+00 0.  1.
     999902    2    1    2    0    0 -0.29891200446E-02 -0.62831098416E-02 -0.11587229630E-01  0.10304142241E+01  0.10303255782E+01 0.  0.
     999903    2    3    3    0    0  0.14517369120E-01  0.26389319171E-01  0.12773631468E+00  0.13868275398E+00  0.44823989024E-01 0.  0.
         14    1    1    2    0    0  0.29891200446E-02  0.62831098416E-02  0.11587229630E-01  0.13515775909E-01  0.00000000000E+00 0.  1.
     999901    1    3    3    0    0 -0.17506489165E-01 -0.32672429012E-01 -0.13932354431E+00  0.89173147011E+00  0.88000000000E+00 0.  1.
        -11    1    4    4    0    0 -0.14963951659E-01  0.13052575929E-01  0.32405117208E-01  0.38008450770E-01  0.51100000000E-03 0. -1.
         11    1    4    4    0    0  0.29481320779E-01  0.13336743241E-01  0.95331197472E-01  0.10067430321E+00  0.51100000000E-03 0.  1.
</event>
<event>
 8    1  0.1993226E+004  0.1043930E+01  0.7957747E-01            NaN
         13   -1    0    0    0    0  0.00000000000E+00  0.00000000000E+00  0.74505805969E-08  0.10566000000E+00  0.10566000000E+00 0. -1.
     999900   -1    0    0    0    0 -0.00000000000E+00 -0.00000000000E+00 -0.74505805969E-08  0.93827000000E+00  0.93827000000E+00 0.  1.
     999902    2    1    2    0    0  0.10877960333E-01  0.16699195398E-02  0.71027981928E-02  0.10308315881E+01  0.10307483663E+01 0.  0.
     999903    2    3    3    0    0 -0.64943828639E-01  0.93310806706E-01  0.69413408858E-01  0.14064643427E+00  0.45150754344E-01 0.  0.
         14    1    1    2    0    0 -0.10877960333E-01 -0.16699195398E-02 -0.71027981928E-02  0.13098411905E-01  0.00000000000E+00 0.  1.
     999901    1    3    3    0    0  0.75821788972E-01 -0.91640887166E-01 -0.62310610665E-01  0.89018515382E+00  0.88000000000E+00 0.  1.
        -11    1    4    4    0    0 -0.42899199957E-01  0.61583030990E-01  0.69082582043E-01  0.10200723173E+00  0.51100000000E-03 0.  1.
         11    1    4    4    0    0 -0.22044628683E-01  0.31727775716E-01  0.33082681547E-03  0.38639202541E-01  0.51100000000E-03 0. -1.
</event>
<event>
 8    1  0.1993226E+004  0.1043930E+01  0.7957747E-01            NaN
         13   -1    0    0    0    0  0.00000000000E+00  0.00000000000E+00  0.74505805969E-08  0.10566000000E+00  0.10566000000E+00 0. -1.
     999900   -1    0    0    0    0 -0.00000000000E+00 -0.00000000000E+00 -0.74505805969E-08  0.93827000000E+00  0.93827000000E+00 0. -1.
     999902    2    1    2    0    0  0.92711032797E-02 -0.85747332499E-02  0.61865917645E-02  0.10298675207E+01  0.10297715071E+01 0.  0.
     999903    2    3    3    0    0 -0.12736431580E+00  0.44629832665E-02  0.31571923586E-01  0.13886604210E+00  0.45226144329E-01 0.  0.
         14    1    1    2    0    0 -0.92711032797E-02  0.85747332499E-02 -0.61865917645E-02  0.14062479297E-01  0.00000000000E+00 0. -1.
     999901    1    3    3    0    0  0.13663541908E+00 -0.13037716516E-01 -0.25385331821E-01  0.89100147860E+00  0.88000000000E+00 0. -1.
        -11    1    4    4    0    0 -0.94005508684E-01  0.12206059638E-01  0.39708226339E-02  0.94879144749E-01  0.51100000000E-03 0.  1.
         11    1    4    4    0    0 -0.33358807116E-01 -0.77430763713E-02  0.27601100952E-01  0.43986897352E-01  0.51100000000E-03 0. -1.
</event>
<event>
 8    1  0.1993226E+004  0.1043930E+01  0.7957747E-01            NaN
         13   -1    0    0    0    0  0.00000000000E+00  0.00000000000E+00  0.74505805969E-08  0.10566000000E+00  0.10566000000E+00 0. -1.
     999900   -1    0    0    0    0 -0.00000000000E+00 -0.00000000000E+00 -0.74505805969E-08  0.93827000000E+00  0.93827000000E+00 0. -1.
     999902    2    1    2    0    0 -0.34616000717E-02 -0.13581625310E-01 -0.15674858016E-02  0.10298268006E+01  0.10297302263E+01 0.  0.
     999903    2    3    3    0    0  0.43469192067E-01 -0.85568460734E-01  0.92779122917E-01  0.14062160141E+00  0.44214669530E-01 0.  0.
         14    1    1    2    0    0  0.34616000717E-02  0.13581625310E-01  0.15674858016E-02  0.14103199383E-01  0.00000000000E+00 0. -1.
     999901    1    3    3    0    0 -0.46930792139E-01  0.71986835424E-01 -0.94346608719E-01  0.88920519921E+00  0.88000000000E+00 0. -1.
        -11    1    4    4    0    0  0.91744859060E-02 -0.27137762881E-01  0.57478333558E-01  0.64223432759E-01  0.51100000000E-03 0.  1.
         11    1    4    4    0    0  0.34294706161E-01 -0.58430697853E-01  0.35300789359E-01  0.76398168647E-01  0.51100000000E-03 0. -1.
</event>
<event>
 8    1  0.1993226E+004  0.1043930E+01  0.7957747E-01            NaN
         13   -1    0    0    0    0  0.00000000000E+00  0.00000000000E+00  0.74505805969E-08  0.10566000000E+00  0.10566000000E+00 0. -1.
     999900   -1    0    0    0    0 -0.00000000000E+00 -0.00000000000E+00 -0.74505805969E-08  0.93827000000E+00  0.93827000000E+00 0.  1.
     999902    2    1    2    0    0  0.53746037932E-03 -0.86488847583E-02  0.98689674453E-02  0.10307965089E+01  0.10307128378E+01 0.  0.
     999903    2    3    3    0    0 -0.59587619878E-01 -0.10301556549E+00 -0.60449750113E-01  0.14092864352E+00  0.45208617539E-01 0.  0.
         14    1    1    2    0    0 -0.53746037932E-03  0.86488847583E-02 -0.98689674453E-02  0.13133491145E-01  0.00000000000E+00 0.  1.
     999901    1    3    3    0    0  0.60125080258E-01  0.94366680737E-01  0.70318717558E-01  0.88986786533E+00  0.88000000000E+00 0.  1.
        -11    1    4    4    0    0 -0.39702295174E-01 -0.62019698292E-01 -0.12345003983E-01  0.74668436857E-01  0.51100000000E-03 0.  1.
         11    1    4    4    0    0 -0.19885324704E-01 -0.40995867203E-01 -0.48104746130E-01  0.66260206667E-01  0.51100000000E-03 0. -1.
</event>
<event>
 8    1  0.1993226E+004  0.1043930E+01  0.7957747E-01            NaN
         13   -1    0    0    0    0  0.00000000000E+00  0.00000000000E+00  0.74505805969E-08  0.10566000000E+00  0.10566000000E+00 0.  1.
     999900   -1    0    0    0    0 -0.00000000000E+00 -0.00000000000E+00 -0.74505805969E-08  0.93827000000E+00  0.93827000000E+00 0. -1.
     999902    2    1    2    0    0  0.11580951373E-01  0.41257757818E-02  0.27867085928E-02  0.10313241995E+01  0.10312471568E+01 0.  0.
     999903    2    3    3    0    0  0.56453858787E-01  0.12257574195E+00 -0.19177187598E-01  0.14198377819E+00  0.39746421964E-01 0.  0.
         14    1    1    2    0    0 -0.11580951373E-01 -0.41257757818E-02 -0.27867085928E-02  0.12605800462E-01  0.00000000000E+00 0. -1.
     999901    1    3    3    0    0 -0.44872907415E-01 -0.11844996617E+00  0.21963896191E-01  0.88934042135E+00  0.88000000000E+00 0. -1.
        -11    1    4    4    0    0  0.38021373283E-01  0.60228525994E-01  0.76755298964E-02  0.71639898449E-01  0.51100000000E-03 0.  1.
         11    1    4    4    0    0  0.18432485505E-01  0.62347215956E-01 -0.26852717494E-01  0.70343879742E-01  0.51100000000E-03 0. -1.
</event>
<event>
 8    1  0.1993226E+004  0.1043930E+01  0.7957747E-01            NaN
         13   -1    0    0    0    0  0.00000000000E+00  0.00000000000E+00  0.74505805969E-08  0.10566000000E+00  0.10566000000E+00 0.  1.
     999900   -1    0    0    0    0 -0.00000000000E+00 -0.00000000000E+00 -0.74505805969E-08  0.93827000000E+00  0.93827000000E+00 0.  1.
     999902    2    1    2    0    0  0.60046226984E-02  0.10983229037E-01  0.34381722590E-02  0.10309489429E+01  0.10308672151E+01 0.  0.
     999903    2    3    3    0    0  0.30813288382E-01  0.62927590920E-01 -0.11416401806E+00  0.14126137880E+00  0.44855475475E-01 0.  0.
         14    1    1    2    0    0 -0.60046226984E-02 -0.10983229037E-01 -0.34381722590E-02  0.12981057057E-01  0.00000000000E+00 0.  1.
     999901    1    3    3    0    0 -0.24808665683E-01 -0.51944361883E-01  0.11760219032E+00  0.88968756414E+00  0.88000000000E+00 0. -1.
        -11    1    4    4    0    0  0.40664221973E-01  0.43033854425E-01 -0.94944948784E-01  0.11189412851E+00  0.51100000000E-03 0. -1.
         11    1    4    4    0    0 -0.98509335916E-02  0.19893736495E-01 -0.19219069279E-01  0.29367250285E-01  0.51100000000E-03 0.  1.
</event>
<event>
 8    1  0.1993226E+004  0.1043930E+01  0.7957747E-01            NaN
         13   -1    0    0    0    0  0.00000000000E+00  0.00000000000E+00  0.74505805969E-08  0.10566000000E+00  0.10566000000E+00 0.  1.
     999900   -1    0    0    0    0 -0.00000000000E+00 -0.00000000000E+00 -0.74505805969E-08  0.93827000000E+00  0.93827000000E+00 0.  1.
     999902    2    1    2    0    0 -0.24854290528E-02  0.35850361057E-02  0.12550879293E-01  0.10306426221E+01  0.10305569659E+01 0.  0.
     999903    2    3    3    0    0 -0.89458207635E-01 -0.86478037350E-01  0.48918202051E-01  0.14103697708E+00  0.44913434019E-01 0.  0.
         14    1    1    2    0    0  0.24854290528E-02 -0.35850361057E-02 -0.12550879293E-01  0.13287377938E-01  0.00000000000E+00 0. -1.
     999901    1    3    3    0    0  0.86972778583E-01  0.90063073456E-01 -0.36367322758E-01  0.88960564498E+00  0.88000000000E+00 0.  1.
        -11    1    4    4    0    0 -0.23564953549E-01 -0.31951235723E-01 -0.48664082915E-02  0.40001644349E-01  0.51100000000E-03 0. -1.
         11    1    4    4    0    0 -0.65893254086E-01 -0.54526801627E-01  0.53784610342E-01  0.10103533273E+00  0.51100000000E-03 0.  1.
</event>
<event>
 8    1  0.1993226E+004  0.1043930E+01  0.7957747E-01            NaN
         13   -1    0    0    0    0  0.00000000000E+00  0.00000000000E+00  0.74505805969E-08  0.10566000000E+00  0.10566000000E+00 0.  1.
     999900   -1    0    0    0    0 -0.00000000000E+00 -0.00000000000E+00 -0.74505805969E-08  0.93827000000E+00  0.93827000000E+00 0. -1.
     999902    2    1    2    0    0 -0.32796497960E-02 -0.48987435140E-02  0.11060019361E-01  0.10313969310E+01  0.10313207801E+01 0.  0.
     999903    2    3    3    0    0 -0.79003872097E-01 -0.10247535618E+00 -0.35692638633E-01  0.14154235623E+00  0.44916185538E-01 0.  0.
         14    1    1    2    0    0  0.32796497960E-02  0.48987435140E-02 -0.11060019361E-01  0.12533069020E-01  0.00000000000E+00 0. -1.
     999901    1    3    3    0    0  0.75724222301E-01  0.97576612664E-01  0.46752657993E-01  0.88985457475E+00  0.88000000000E+00 0. -1.
        -11    1    4    4    0    0 -0.75532513228E-01 -0.92873102177E-01 -0.17928535701E-01  0.12104654962E+00  0.51100000000E-03 0. -1.
         11    1    4    4    0    0 -0.34713588692E-02 -0.96022540010E-02 -0.17764102931E-01  0.20495806602E-01  0.51100000000E-03 0.  1.
</event>
<event>
 8    1  0.1993226E+004  0.1043930E+01  0.7957747E-01            NaN
         13   -1    0    0    0    0  0.00000000000E+00  0.00000000000E+00  0.74505805969E-08  0.10566000000E+00  0.10566000000E+00 0.  1.
     999900   -1    0    0    0    0 -0.00000000000E+00 -0.00000000000E+00 -0.74505805969E-08  0.93827000000E+00  0.93827000000E+00 0.  1.
     999902    2    1    2    0    0  0.66578421518E-02 -0.13876835303E-02  0.12777549335E-01  0.10294552532E+01  0.10293534864E+01 0.  0.
     999903    2    3    3    0    0  0.12349736427E+00 -0.37823693458E-01  0.21672694809E-01  0.14094066112E+00  0.52080068048E-01 0.  0.
         14    1    1    2    0    0 -0.66578421518E-02  0.13876835303E-02 -0.12777549335E-01  0.14474746792E-01  0.00000000000E+00 0. -1.
     999901    1    3    3    0    0 -0.11683952211E+00  0.36436009927E-01 -0.88951454744E-02  0.88851459209E+00  0.88000000000E+00 0. -1.
        -11    1    4    4    0    0  0.11530784012E-01  0.81383128137E-02  0.13649513330E-01  0.19640810842E-01  0.51100000000E-03 0. -1.
         11    1    4    4    0    0  0.11196658025E+00 -0.45962006271E-01  0.80231814788E-02  0.12129985027E+00  0.51100000000E-03 0.  1.
</event>
<event>
 8    1  0.1993226E+004  0.1043930E+01  0.7957747E-01            NaN
         13   -1    0    0    0    0  0.00000000000E+00  0.00000000000E+00  0.74505805969E-08  0.10566000000E+00  0.10566000000E+00 0.  1.
     999900   -1    0    0    0    0 -0.00000000000E+00 -0.00000000000E+00 -0.74505805969E-08  0.93827000000E+00  0.93827000000E+00 0.  1.
     999902    2    1    2    0    0  0.12250193845E-01  0.56686792437E-02  0.40106981870E-02  0.10298485628E+01  0.10297522884E+01 0.  0.
     999903    2    3    3    0    0 -0.11097462828E+00  0.69634787195E-01  0.85238520039E-02  0.13895216686E+00  0.45504691099E-01 0.  0.
         14    1    1    2    0    0 -0.12250193845E-01 -0.56686792437E-02 -0.40106981870E-02  0.14081437198E-01  0.00000000000E+00 0.  1.
     999901    1    3    3    0    0  0.12322482212E+00 -0.63966107952E-01 -0.45131538168E-02  0.89089639595E+00  0.88000000000E+00 0.  1.
        -11    1    4    4    0    0 -0.11197672844E+00  0.62582282471E-01  0.59437914475E-03  0.12828072419E+00  0.51100000000E-03 0.  1.
         11    1    4    4    0    0  0.10021001680E-02  0.70525047248E-02  0.79294728591E-02  0.10671442661E-01  0.51100000000E-03 0. -1.
</event>
<event>
 8    1  0.1993226E+004  0.1043930E+01  0.7957747E-01            NaN
         13   -1    0    0    0    0  0.00000000000E+00  0.00000000000E+00  0.74505805969E-08  0.10566000000E+00  0.10566000000E+00 0.  1.
     999900   -1    0    0    0    0 -0.00000000000E+00 -0.00000000000E+00 -0.74505805969E-08  0.93827000000E+00  0.93827000000E+00 0.  1.
     999902    2    1    2    0    0 -0.77292740883E-02 -0.87746491132E-02 -0.61272491286E-02  0.10307285104E+01  0.10306439651E+01 0.  0.
     999903    2    3    3    0    0 -0.58438703343E-01  0.11769434338E+00 -0.18597562073E-01  0.14015489697E+00  0.45060906776E-01 0.  0.
         14    1    1    2    0    0  0.77292740883E-02  0.87746491132E-02  0.61272491286E-02  0.13201489570E-01  0.00000000000E+00 0.  1.
     999901    1    3    3    0    0  0.50709429254E-01 -0.12646899249E+00  0.12470312945E-01  0.89057361345E+00  0.88000000000E+00 0. -1.
        -11    1    4    4    0    0 -0.44464537220E-01  0.64405574704E-01 -0.30136021973E-01  0.83866644529E-01  0.51100000000E-03 0.  1.
         11    1    4    4    0    0 -0.13974166122E-01  0.53288768674E-01  0.11538459900E-01  0.56288252446E-01  0.51100000000E-03 0. -1.
</event>
<event>
 8    1  0.1993226E+004  0.1043930E+01  0.7957747E-01            NaN
         13   -1    0    0    0    0  0.00000000000E+00  0.00000000000E+00  0.74505805969E-08  0.10566000000E+00  0.10566000000E+00 0. -1.
     999900   -1    0    0    0    0 -0.00000000000E+00 -0.00000000000E+00 -0.74505805969E-08  0.93827000000E+00  0.93827000000E+00 0.  1.
     999902    2    1    2    0    0 -0.51593665159E-02 -0.12316274922E-01 -0.49617516389E-02  0.10296846966E+01  0.10295861526E+01 0.  0.
     999903    2    3    3    0    0 -0.51338064008E-01 -0.47458303464E-01  0.11271207630E+00  0.13995745518E+00  0.44678739167E-01 0.  0.
         14    1    1    2    0    0  0.51593665159E-02  0.12316274922E-01  0.49617516389E-02  0.14245303441E-01  0.00000000000E+00 0.  1.
     999901    1    3    3    0    0  0.46178697492E-01  0.35142028542E-01 -0.11767382793E+00  0.88972724138E+00  0.88000000000E+00 0.  1.
        -11    1    4    4    0    0 -0.22539469544E-01  0.50217953322E-02  0.30520896561E-01  0.38275741189E-01  0.51100000000E-03 0. -1.
         11    1    4    4    0    0 -0.28798594464E-01 -0.52480098796E-01  0.82191179735E-01  0.10168171399E+00  0.51100000000E-03 0.  1.
</event>
<event>
 8    1  0.1993226E+004  0.1043930E+01  0.7957747E-01            NaN
         13   -1    0    0    0    0  0.00000000000E+00  0.00000000000E+00  0.74505805969E-08  0.10566000000E+00  0.10566000000E+00 0.  1.
     999900   -1    0    0    0    0 -0.00000000000E+00 -0.00000000000E+00 -0.74505805969E-08  0.93827000000E+00  0.93827000000E+00 0.  1.
     999902    2    1    2    0    0 -0.75055299209E-02  0.85586604688E-03  0.12375059594E-01  0.10294314626E+01  0.10293293587E+01 0.  0.
     999903    2    3    3    0    0 -0.75784837766E-01 -0.98984139283E-01  0.46643881489E-01  0.14049702033E+00  0.44972876007E-01 0.  0.
         14    1    1    2    0    0  0.75055299209E-02 -0.85586604688E-03 -0.12375059594E-01  0.14498537376E-01  0.00000000000E+00 0. -1.
     999901    1    3    3    0    0  0.68279307845E-01  0.99840005330E-01 -0.34268821895E-01  0.88893444229E+00  0.88000000000E+00 0.  1.
        -11    1    4    4    0    0 -0.46473441513E-01 -0.45098969230E-01  0.45492906161E-01  0.79142677638E-01  0.51100000000E-03 0. -1.
         11    1    4    4    0    0 -0.29311396252E-01 -0.53885170052E-01  0.11509753272E-02  0.61354342691E-01  0.51100000000E-03 0.  1.
</event>
<event>
 8    1  0.1993226E+004  0.1043930E+01  0.7957747E-01            NaN
         13   -1    0    0    0    0  0.00000000000E+00  0.00000000000E+00  0.74505805969E-08  0.10566000000E+00  0.10566000000E+00 0. -1.
     999900   -1    0    0    0    0 -0.00000000000E+00 -0.00000000000E+00 -0.74505805969E-08  0.93827000000E+00  0.93827000000E+00 0.  1.
     999902    2    1    2    0    0  0.27737468075E-02  0.12243666731E-01 -0.23390177594E-02  0.10311600333E+01  0.10310809581E+01 0.  0.
     999903    2    3    3    0    0  0.83315379425E-01 -0.75331881709E-01 -0.71479829503E-01  0.14046542616E+00  0.44775272982E-01 0.  0.
         14    1    1    2    0    0 -0.27737468075E-02 -0.12243666731E-01  0.23390177594E-02  0.12769966737E-01  0.00000000000E+00 0.  1.
     999901    1    3    3    0    0 -0.80541632618E-01  0.87575548441E-01  0.69140811744E-01  0.89069460710E+00  0.88000000000E+00 0. -1.
        -11    1    4    4    0    0  0.27125141079E-01 -0.32773766580E-01 -0.52286452222E-01  0.67409400393E-01  0.51100000000E-03 0. -1.
         11    1    4    4    0    0  0.56190238346E-01 -0.42558115129E-01 -0.19193377281E-01  0.73056025769E-01  0.51100000000E-03 0.  1.
</event>
<event>
 8    1  0.1993226E+004  0.1043930E+01  0.7957747E-01            NaN
         13   -1    0    0    0    0  0.00000000000E+00  0.00000000000E+00  0.74505805969E-08  0.10566000000E+00  0.10566000000E+00 0.  1.
     999900   -1    0    0    0    0 -0.00000000000E+00 -0.00000000000E+00 -0.74505805969E-08  0.93827000000E+00  0.93827000000E+00 0.  1.
     999902    2    1    2    0    0 -0.88348904060E-02 -0.35284916373E-02  0.99398859975E-02  0.10301711165E+01  0.10300792311E+01 0.  0.
     999903    2    3    3    0    0 -0.53994971717E-01  0.12054554775E+00 -0.12652504041E-01  0.14003392691E+00  0.44751857762E-01 0.  0.
         14    1    1    2    0    0  0.88348904060E-02  0.35284916373E-02 -0.99398859975E-02  0.13758883507E-01  0.00000000000E+00 0. -1.
     999901    1    3    3    0    0  0.45160081310E-01 -0.12407403939E+00  0.22592390039E-01  0.89013718958E+00  0.88000000000E+00 0.  1.
        -11    1    4    4    0    0 -0.21998810783E-01  0.91800547620E-01  0.24833404218E-02  0.94433660947E-01  0.51100000000E-03 0. -1.
         11    1    4    4    0    0 -0.31996160933E-01  0.28745000132E-01 -0.15135844463E-01  0.45600265960E-01  0.51100000000E-03 0.  1.
</event>
<event>
 8    1  0.1993226E+004  0.1043930E+01  0.7957747E-01            NaN
         13   -1    0    0    0    0  0.00000000000E+00  0.00000000000E+00  0.74505805969E-08  0.10566000000E+00  0.10566000000E+00 0.  1.
     999900   -1    0    0    0    0 -0.00000000000E+00 -0.00000000000E+00 -0.74505805969E-08  0.93827000000E+00  0.93827000000E+00 0.  1.
     999902    2    1    2    0    0 -0.11742345568E-01  0.13345158045E-02  0.84816515206E-02  0.10293834532E+01  0.10292806671E+01 0.  0.
     999903    2    3    3    0    0  0.13909028083E-01  0.12759715030E+00  0.31964955814E-01  0.13969153379E+00  0.44916281981E-01 0.  0.
         14    1    1    2    0    0  0.11742345568E-01 -0.13345158045E-02 -0.84816515206E-02  0.14546546820E-01  0.00000000000E+00 0. -1.
     999901    1    3    3    0    0 -0.25651373651E-01 -0.12626263449E+00 -0.23483304293E-01  0.88969191939E+00  0.88000000000E+00 0.  1.
        -11    1    4    4    0    0 -0.11112909951E-01  0.21384337335E-01 -0.47314083621E-02  0.24564893586E-01  0.51100000000E-03 0. -1.
         11    1    4    4    0    0  0.25021938034E-01  0.10621281296E+00  0.36696364176E-01  0.11512664021E+00  0.51100000000E-03 0.  1.
</event>
<event>
 8    1  0.1993226E+004  0.1043930E+01  0.7957747E-01            NaN
         13   -1    0    0    0    0  0.00000000000E+00  0.00000000000E+00  0.74505805969E-08  0.10566000000E+00  0.10566000000E+00 0. -1.
     999900   -1    0    0    0    0 -0.00000000000E+00 -0.00000000000E+00 -0.74505805969E-08  0.93827000000E+00  0.93827000000E+00 0.  1.
     999902    2    1    2    0    0  0.11076612747E-01  0.77765113211E-02 -0.17628501479E-02  0.10302818090E+01  0.10301914059E+01 0.  0.
     999903    2    3    3    0    0  0.75084747813E-01 -0.10964942685E+00 -0.30915682826E-03  0.14017619413E+00  0.44593201941E-01 0.  0.
         14    1    1    2    0    0 -0.11076612747E-01 -0.77765113211E-02  0.17628501479E-02  0.13648191050E-01  0.00000000000E+00 0.  1.
     999901    1    3    3    0    0 -0.64008135066E-01  0.11742593817E+00 -0.14536933197E-02  0.89010561482E+00  0.88000000000E+00 0.  1.
        -11    1    4    4    0    0  0.56852868744E-01 -0.43842513274E-01 -0.26974382879E-02  0.71846725388E-01  0.51100000000E-03 0.  1.
         11    1    4    4    0    0  0.18231879069E-01 -0.65806913579E-01  0.23882814597E-02  0.68329468742E-01  0.51100000000E-03 0. -1.
</event>
<event>
 8    1  0.1993226E+004  0.1043930E+01  0.7957747E-01            NaN
         13   -1    0    0    0    0  0.00000000000E+00  0.00000000000E+00  0.74505805969E-08  0.10566000000E+00  0.10566000000E+00 0.  1.
     999900   -1    0    0    0    0 -0.00000000000E+00 -0.00000000000E+00 -0.74505805969E-08  0.93827000000E+00  0.93827000000E+00 0. -1.
     999902    2    1    2    0    0  0.51414834460E-02  0.70477408363E-02  0.11318765003E-01  0.10296394456E+01  0.10295402702E+01 0.  0.
     999903    2    3    3    0    0  0.99267282020E-01 -0.73146910668E-01 -0.46172174128E-01  0.13913618558E+00  0.44972710099E-01 0.  0.
         14    1    1    2    0    0 -0.51414834460E-02 -0.70477408363E-02 -0.11318765003E-01  0.14290554367E-01  0.00000000000E+00 0. -1.
     999901    1    3    3    0    0 -0.94125798574E-01  0.80194651504E-01  0.57490939131E-01  0.89050326006E+00  0.88000000000E+00 0.  1.
        -11    1    4    4    0    0  0.47400826888E-02 -0.24018927449E-01 -0.54567222096E-02  0.25088128627E-01  0.51100000000E-03 0. -1.
         11    1    4    4    0    0  0.94527199331E-01 -0.49127983218E-01 -0.40715451918E-01  0.11404805695E+00  0.51100000000E-03 0.  1.
</event>
<event>
 8    1  0.1993226E+004  0.1043930E+01  0.7957747E-01            NaN
         13   -1    0    0    0    0  0.00000000000E+00  0.00000000000E+00  0.74505805969E-08  0.10566000000E+00  0.10566000000E+00 0. -1.
     999900   -1    0    0    0    0 -0.00000000000E+00 -0.00000000000E+00 -0.74505805969E-08  0.93827000000E+00  0.93827000000E+00 0. -1.
     999902    2    1    2    0    0 -0.40436436760E-02  0.11587419816E-01  0.65793104839E-02  0.10300049622E+01  0.10299108289E+01 0.  0.
     999903    2    3    3    0    0 -0.60567088596E-01 -0.42420813104E-01  0.11052769331E+00  0.14044492747E+00  0.45171994166E-01 0.  0.
         14    1    1    2    0    0  0.40436436760E-02 -0.11587419816E-01 -0.65793104839E-02  0.13925037832E-01  0.00000000000E+00 0.  1.
     999901    1    3    3    0    0  0.56523444920E-01  0.54008232920E-01 -0.10394838283E+00  0.88956003470E+00  0.88000000000E+00 0. -1.
        -11    1    4    4    0    0 -0.30779221723E-01 -0.39436163949E-01  0.40783993065E-01  0.64545849814E-01  0.51100000000E-03 0. -1.
         11    1    4    4    0    0 -0.29787866874E-01 -0.29846491543E-02  0.69743700245E-01  0.75899077651E-01  0.51100000000E-03 0.  1.
</event>
<event>
 8    1  0.1993226E+004  0.1043930E+01  0.7957747E-01            NaN
         13   -1    0    0    0    0  0.00000000000E+00  0.00000000000E+00  0.74505805969E-08  0.10566000000E+00  0.10566000000E+00 0. -1.
     999900   -1    0    0    0    0 -0.00000000000E+00 -0.00000000000E+00 -0.74505805969E-08  0.93827000000E+00  0.93827000000E+00 0. -1.
     999902    2    1    2    0    0 -0.45975758464E-02  0.12368951363E-01  0.41867261379E-02  0.10300859638E+01  0.10299929299E+01 0.  0.
     999903    2    3    3    0    0  0.51721980646E-01 -0.10165291483E+00  0.65386978516E-01  0.13884057153E+00  0.44640440967E-01 0.  0.
         14    1    1    2    0    0  0.45975758464E-02 -0.12368951363E-01 -0.41867261379E-02  0.13844036162E-01  0.00000000000E+00 0.  1.
     999901    1    3    3    0    0 -0.56319556492E-01  0.11402186619E+00 -0.61200252379E-01  0.89124539230E+00  0.88000000000E+00 0. -1.
        -11    1    4    4    0    0  0.46534227688E-01 -0.55434920640E-01  0.23089157335E-01  0.75972594271E-01  0.51100000000E-03 0. -1.
         11    1    4    4    0    0  0.51877529580E-02 -0.46217994187E-01  0.42297821182E-01  0.62867977263E-01  0.51100000000E-03 0.  1.
</event>
<event>
 8    1  0.1993226E+004  0.1043930E+01  0.7957747E-01            NaN
         13   -1    0    0    0    0  0.00000000000E+00  0.00000000000E+00  0.74505805969E-08  0.10566000000E+00  0.10566000000E+00 0.  1.
     999900   -1    0    0    0    0 -0.00000000000E+00 -0.00000000000E+00 -0.74505805969E-08  0.93827000000E+00  0.93827000000E+00 0.  1.
     999902    2    1    2    0    0  0.26356456243E-02 -0.13624820342E-01  0.30871423759E-02  0.10297133617E+01  0.10296152167E+01 0.  0.
     999903    2    3    3    0    0 -0.81577221044E-01 -0.10543367703E+00 -0.68122491872E-02  0.14088341673E+00  0.45062480245E-01 0.  0.
         14    1    1    2    0    0 -0.26356456243E-02  0.13624820342E-01 -0.30871423759E-02  0.14216638324E-01  0.00000000000E+00 0. -1.
     999901    1    3    3    0    0  0.84212866668E-01  0.91808856686E-01  0.98993915631E-02  0.88882994495E+00  0.88000000000E+00 0.  1.
        -11    1    4    4    0    0 -0.14576036703E-03 -0.27536156372E-01 -0.60084875522E-02  0.28189079402E-01  0.51100000000E-03 0.  1.
         11    1    4    4    0    0 -0.81431460677E-01 -0.77897520655E-01 -0.80376163498E-03  0.11269433733E+00  0.51100000000E-03 0. -1.
</event>
<event>
 8    1  0.1993226E+004  0.1043930E+01  0.7957747E-01            NaN
         13   -1    0    0    0    0  0.00000000000E+00  0.00000000000E+00  0.74505805969E-08  0.10566000000E+00  0.10566000000E+00 0. -1.
     999900   -1    0    0    0    0 -0.00000000000E+00 -0.00000000000E+00 -0.74505805969E-08  0.93827000000E+00  0.93827000000E+00 0. -1.
     999902    2    1    2    0    0  0.16283869856E-02 -0.63044492453E-03  0.14123295926E-01  0.10296991675E+01  0.10296008251E+01 0.  0.
     999903    2    3    3    0    0  0.73618006469E-01  0.97615689172E-01 -0.48739641567E-01  0.13908895139E+00  0.44963875393E-01 0.  0.
         14    1    1    2    0    0 -0.16283869856E-02  0.63044492453E-03 -0.14123295926E-01  0.14230832470E-01  0.00000000000E+00 0.  1.
     999901    1    3    3    0    0 -0.71989619484E-01 -0.98246134097E-01  0.62862937493E-01  0.89061021614E+00  0.88000000000E+00 0.  1.
        -11    1    4    4    0    0  0.44101043995E-01  0.25699875745E-01 -0.29681092492E-01  0.59047557674E-01  0.51100000000E-03 0. -1.
         11    1    4    4    0    0  0.29516962474E-01  0.71915813427E-01 -0.19058549075E-01  0.80041393719E-01  0.51100000000E-03 0.  1.
</event>
<event>
 8    1  0.1993226E+004  0.1043930E+01  0.7957747E-01            NaN
         13   -1    0    0    0    0  0.00000000000E+00  0.00000000000E+00  0.74505805969E-08  0.10566000000E+00  0.10566000000E+00 0. -1.
     999900   -1    0    0    0    0 -0.00000000000E+00 -0.00000000000E+00 -0.74505805969E-08  0.93827000000E+00  0.93827000000E+00 0.  1.
     999902    2    1    2    0    0  0.13262725529E-01 -0.14389785593E-01  0.14097985790E-01  0.10198111480E+01  0.10195258989E+01 0.  0.
     999903    2    3    3    0    0 -0.61426755267E-01 -0.44639455973E-01  0.97881070360E-01  0.13216641820E+00  0.46057907825E-01 0.  0.
         14    1    1    2    0    0 -0.13262725529E-01  0.14389785593E-01 -0.14097985790E-01  0.24118851988E-01  0.00000000000E+00 0.  1.
     999901    1    3    3    0    0  0.74689480796E-01  0.30249670381E-01 -0.83783084570E-01  0.88764472981E+00  0.88000000000E+00 0. -1.
        -11    1    4    4    0    0 -0.35146142268E-01 -0.35039714420E-01  0.28216950901E-01  0.57091946386E-01  0.51100000000E-03 0.  1.
         11    1    4    4    0    0 -0.26280612999E-01 -0.95997415534E-02  0.69664119459E-01  0.75074471816E-01  0.51100000000E-03 0. -1.
</event>
<event>
 8    1  0.1993226E+004  0.1043930E+01  0.7957747E-01            NaN
         13   -1    0    0    0    0  0.00000000000E+00  0.00000000000E+00  0.74505805969E-08  0.10566000000E+00  0.10566000000E+00 0. -1.
     999900   -1    0    0    0    0 -0.00000000000E+00 -0.00000000000E+00 -0.74505805969E-08  0.93827000000E+00  0.93827000000E+00 0.  1.
     999902    2    1    2    0    0  0.13560911474E-01  0.14741415056E-01 -0.10463301538E-01  0.10213315860E+01  0.10210815443E+01 0.  0.
     999903    2    3    3    0    0 -0.10792833045E+00 -0.57066185763E-01 -0.12677079024E-02  0.13004009247E+00  0.44763204679E-01 0.  0.
         14    1    1    2    0    0 -0.13560911474E-01 -0.14741415056E-01  0.10463301538E-01  0.22598414035E-01  0.00000000000E+00 0. -1.
     999901    1    3    3    0    0  0.12148924193E+00  0.71807600818E-01 -0.91955936355E-02  0.89129149350E+00  0.88000000000E+00 0. -1.
        -11    1    4    4    0    0 -0.53103069310E-01 -0.43620431170E-01 -0.18219163400E-01  0.71097658342E-01  0.51100000000E-03 0.  1.
         11    1    4    4    0    0 -0.54825261144E-01 -0.13445754593E-01  0.16951455498E-01  0.58942434125E-01  0.51100000000E-03 0. -1.
</event>
<event>
 8    1  0.1993226E+004  0.1043930E+01  0.7957747E-01            NaN
         13   -1    0    0    0    0  0.00000000000E+00  0.00000000000E+00  0.74505805969E-08  0.10566000000E+00  0.10566000000E+00 0. -1.
     999900   -1    0    0    0    0 -0.00000000000E+00 -0.00000000000E+00 -0.74505805969E-08  0.93827000000E+00  0.93827000000E+00 0.  1.
     999902    2    1    2    0    0 -0.86380491333E-02 -0.99318502206E-02 -0.33810899314E-02  0.10303399555E+01  0.10302503261E+01 0.  0.
     999903    2    3    3    0    0  0.82690092544E-01  0.10117994001E+00  0.10780777699E-01  0.13855118120E+00  0.44779157864E-01 0.  0.
         14    1    1    2    0    0  0.86380491333E-02  0.99318502206E-02  0.33810899314E-02  0.13590044546E-01  0.00000000000E+00 0.  1.
     999901    1    3    3    0    0 -0.91328141678E-01 -0.11111179023E+00 -0.14161867631E-01  0.89178877425E+00  0.88000000000E+00 0.  1.
        -11    1    4    4    0    0  0.53554993043E-03  0.27243523420E-01 -0.17859969366E-02  0.27312035591E-01  0.51100000000E-03 0.  1.
         11    1    4    4    0    0  0.82154542614E-01  0.73936416589E-01  0.12566774636E-01  0.11123914561E+00  0.51100000000E-03 0. -1.
</event>
<event>
 8    1  0.1993226E+004  0.1043930E+01  0.7957747E-01            NaN
         13   -1    0    0    0    0  0.00000000000E+00  0.00000000000E+00  0.74505805969E-08  0.10566000000E+00  0.10566000000E+00 0.  1.
     999900   -1    0    0    0    0 -0.00000000000E+00 -0.00000000000E+00 -0.74505805969E-08  0.93827000000E+00  0.93827000000E+00 0.  1.
     999902    2    1    2    0    0  0.14449600984E-01 -0.30334911070E-02 -0.51150798205E-02  0.10283044735E+01  0.10281857484E+01 0.  0.
     999903    2    3    3    0    0  0.65878569082E-01 -0.39852996129E-01  0.10842171222E+00  0.13875896153E+00  0.39629970469E-01 0.  0.
         14    1    1    2    0    0 -0.14449600984E-01  0.30334911070E-02  0.51150798205E-02  0.15625526502E-01  0.00000000000E+00 0. -1.
     999901    1    3    3    0    0 -0.51428968098E-01  0.36819505022E-01 -0.11353679204E+00  0.88954551197E+00  0.88000000000E+00 0.  1.
        -11    1    4    4    0    0  0.63439492881E-01 -0.28440552415E-01  0.70238410886E-01  0.98828790155E-01  0.51100000000E-03 0.  1.
         11    1    4    4    0    0  0.24390762014E-02 -0.11412443713E-01  0.38183301337E-01  0.39930171378E-01  0.51100000000E-03 0. -1.
</event>
<event>
 8    1  0.1993226E+004  0.1043930E+01  0.7957747E-01            NaN
         13   -1    0    0    0    0  0.00000000000E+00  0.00000000000E+00  0.74505805969E-08  0.10566000000E+00  0.10566000000E+00 0. -1.
     999900   -1    0    0    0    0 -0.00000000000E+00 -0.00000000000E+00 -0.74505805969E-08  0.93827000000E+00  0.93827000000E+00 0. -1.
     999902    2    1    2    0    0  0.70300845949E-02 -0.97997659026E-02  0.57771363229E-02  0.10305571617E+01  0.10304703929E+01 0.  0.
     999903    2    3    3    0    0  0.40762608535E-01  0.12025721554E+00 -0.33352143845E-01  0.13949947432E+00  0.47163011912E-01 0.  0.
         14    1    1    2    0    0 -0.70300845949E-02  0.97997659026E-02 -0.57771363229E-02  0.13372838339E-01  0.00000000000E+00 0.  1.
     999901    1    3    3    0    0 -0.33732523940E-01 -0.13005698145E+00  0.39129280168E-01  0.89105768734E+00  0.88000000000E+00 0.  1.
        -11    1    4    4    0    0 -0.24064510071E-02  0.63637553818E-02  0.83263852362E-02  0.10764673758E-01  0.51100000000E-03 0.  1.
         11    1    4    4    0    0  0.43169059543E-01  0.11389346016E+00 -0.41678529081E-01  0.12873480057E+00  0.51100000000E-03 0. -1.
</event>
<event>
 8    1  0.1993226E+004  0.1043930E+01  0.7957747E-01            NaN
         13   -1    0    0    0    0  0.00000000000E+00  0.00000000000E+00  0.74505805969E-08  0.10566000000E+00  0.10566000000E+00 0. -1.
     999900   -1    0    0    0    0 -0.00000000000E+00 -0.00000000000E+00 -0.74505805969E-08  0.93827000000E+00  0.93827000000E+00 0.  1.
     999902    2    1    2    0    0 -0.69163045697E-02 -0.15066410497E-01 -0.20681380392E-02  0.10272234387E+01  0.10270875736E+01 0.  0.
     999903    2    3    3    0    0  0.67681100419E-02 -0.13099296230E+00 -0.84942262136E-02  0.13949176575E+00  0.46699436280E-01 0.  0.
         14    1    1    2    0    0  0.69163045697E-02  0.15066410497E-01  0.20681380392E-02  0.16706561259E-01  0.00000000000E+00 0. -1.
     999901    1    3    3    0    0 -0.13684414612E-01  0.11592655180E+00  0.64260881744E-02  0.88773167299E+00  0.88000000000E+00 0.  1.
        -11    1    4    4    0    0 -0.15731452683E-01 -0.53696347544E-01 -0.17141633569E-01  0.58522415069E-01  0.51100000000E-03 0. -1.
         11    1    4    4    0    0  0.22499562725E-01 -0.77296614755E-01  0.86474073554E-02  0.80969350685E-01  0.51100000000E-03 0.  1.
</event>
<event>
 7    1  0.1993226E+004  0.1043930E+01  0.7957747E-01            NaN
         13   -1    0    0    0    0  0.00000000000E+00  0.00000000000E+00  0.74505805969E-08  0.10566000000E+00  0.10566000000E+00 0. -1.
     999900   -1    0    0    0    0 -0.00000000000E+00 -0.00000000000E+00 -0.74505805969E-08  0.93827000000E+00  0.93827000000E+00 0. -1.
     999902    2    1    2    0    0 -0.13423172168E-01  0.54394664759E-02 -0.11355173522E-01  0.10255259430E+01  0.10253607904E+01 0.  0.
         14    1    1    2    0    0  0.13423172168E-01 -0.54394664759E-02  0.11355173522E-01  0.18404056953E-01  0.00000000000E+00 0. -1.
     999901    1    3    3    0    0 -0.80630806624E-01 -0.74419312487E-01 -0.68539839577E-01  0.88945897638E+00  0.88000000000E+00 0. -1.
        -11    1    3    3    0    0  0.34871887676E-01  0.75417867684E-01  0.17913632049E-01  0.85000368530E-01  0.51100000000E-03 0. -1.
         11    1    3    3    0    0  0.32335746780E-01  0.44409112790E-02  0.39271034006E-01  0.51066598141E-01  0.51100000000E-03 0.  1.
</event>
<event>
 8    1  0.1993226E+004  0.1043930E+01  0.7957747E-01            NaN
         13   -1    0    0    0    0  0.00000000000E+00  0.00000000000E+00  0.74505805969E-08  0.10566000000E+00  0.10566000000E+00 0. -1.
     999900   -1    0    0    0    0 -0.00000000000E+00 -0.00000000000E+00 -0.74505805969E-08  0.93827000000E+00  0.93827000000E+00 0.  1.
     999902    2    1    2    0    0  0.13320961635E-01 -0.12631226501E-02  0.20825662529E-02  0.10303881914E+01  0.10302992014E+01 0.  0.
     999903    2    3    3    0    0 -0.89428320507E-02  0.79128020003E-01  0.10639491411E+00  0.14030983630E+00  0.45008383866E-01 0.  0.
         14    1    1    2    0    0 -0.13320961635E-01  0.12631226501E-02 -0.20825662529E-02  0.13541808591E-01  0.00000000000E+00 0. -1.
     999901    1    3    3    0    0  0.22263793686E-01 -0.80391142653E-01 -0.10431234786E+00  0.89007835511E+00  0.88000000000E+00 0.  1.
        -11    1    4    4    0    0  0.96774646488E-02  0.76544535375E-02  0.36836312204E-01  0.38851241921E-01  0.51100000000E-03 0. -1.
         11    1    4    4    0    0 -0.18620296700E-01  0.71473566466E-01  0.69558601905E-01  0.10145859437E+00  0.51100000000E-03 0.  1.
</event>
<event>
 7    1  0.1993226E+004  0.1043930E+01  0.7957747E-01            NaN
         13   -1    0    0    0    0  0.00000000000E+00  0.00000000000E+00  0.74505805969E-08  0.10566000000E+00  0.10566000000E+00 0. -1.
     999900   -1    0    0    0    0 -0.00000000000E+00 -0.00000000000E+00 -0.74505805969E-08  0.93827000000E+00  0.93827000000E+00 0. -1.
     999903    2    1    2    0    0 -0.11957985193E+00  0.92845886527E-02 -0.15011168190E-01  0.12868234288E+00  0.44139162027E-01 0.  0.
         14    1    1    2    0    0  0.26855048783E-01 -0.12744633008E-01 -0.49981780484E-02  0.30143010790E-01  0.00000000000E+00 0. -1.
     999901    1    1    2    0    0  0.92724803144E-01  0.34600443556E-02  0.20009346239E-01  0.88510464633E+00  0.88000000000E+00 0.  1.
        -11    1    3    3    0    0 -0.30303570214E-01  0.20350070317E-01  0.40318060311E-02  0.36728031672E-01  0.51100000000E-03 0.  1.
         11    1    3    3    0    0 -0.89276281713E-01 -0.11065481664E-01 -0.19042974221E-01  0.91954311205E-01  0.51100000000E-03 0. -1.
</event>
<event>
 8    1  0.1993226E+004  0.1043930E+01  0.7957747E-01            NaN
         13   -1    0    0    0    0  0.00000000000E+00  0.00000000000E+00  0.74505805969E-08  0.10566000000E+00  0.10566000000E+00 0. -1.
     999900   -1    0    0    0    0 -0.00000000000E+00 -0.00000000000E+00 -0.74505805969E-08  0.93827000000E+00  0.93827000000E+00 0.  1.
     999902    2    1    2    0    0 -0.65423236594E-02 -0.62862565904E-02 -0.14972191862E-01  0.10264232713E+01  0.10262739626E+01 0.  0.
     999903    2    3    3    0    0 -0.98663948350E-01  0.70773149446E-01  0.42767229642E-01  0.13639047044E+00  0.45054534848E-01 0.  0.
         14    1    1    2    0    0  0.65423236594E-02  0.62862565904E-02  0.14972191862E-01  0.17506728705E-01  0.00000000000E+00 0.  1.
     999901    1    3    3    0    0  0.92121624690E-01 -0.77059406036E-01 -0.57739421504E-01  0.89003280085E+00  0.88000000000E+00 0. -1.
        -11    1    4    4    0    0 -0.45913803856E-01  0.14209534473E-01  0.11663925427E-03  0.48065195102E-01  0.51100000000E-03 0. -1.
         11    1    4    4    0    0 -0.52750144494E-01  0.56563614973E-01  0.42650590387E-01  0.88325275343E-01  0.51100000000E-03 0.  1.
</event>
<event>
 8    1  0.1993226E+004  0.1043930E+01  0.7957747E-01            NaN
         13   -1    0    0    0    0  0.00000000000E+00  0.00000000000E+00  0.74505805969E-08  0.10566000000E+00  0.10566000000E+00 0. -1.
     999900   -1    0    0    0    0 -0.00000000000E+00 -0.00000000000E+00 -0.74505805969E-08  0.93827000000E+00  0.93827000000E+00 0.  1.
     999902    2    1    2    0    0  0.12427590773E-01 -0.39772996261E-02 -0.52486320046E-02  0.10298654324E+01  0.10297693901E+01 0.  0.
     999903    2    3    3    0    0  0.37866643646E-01 -0.74582007698E-01  0.10300881460E+00  0.14006104659E+00  0.44832157123E-01 0.  0.
         14    1    1    2    0    0 -0.12427590773E-01  0.39772996261E-02  0.52486320046E-02  0.14064567631E-01  0.00000000000E+00 0. -1.
     999901    1    3    3    0    0 -0.25439052873E-01  0.70604708072E-01 -0.10825744660E+00  0.88980438578E+00  0.88000000000E+00 0.  1.
        -11    1    4    4    0    0  0.33673230529E-01 -0.21704142189E-01  0.31182354946E-01  0.50769642734E-01  0.51100000000E-03 0. -1.
         11    1    4    4    0    0  0.41934131170E-02 -0.52877865509E-01  0.71826459654E-01  0.89291403852E-01  0.51100000000E-03 0.  1.
</event>
<event>
 8    1  0.1993226E+004  0.1043930E+01  0.7957747E-01            NaN
         13   -1    0    0    0    0  0.00000000000E+00  0.00000000000E+00  0.74505805969E-08  0.10566000000E+00  0.10566000000E+00 0. -1.
     999900   -1    0    0    0    0 -0.00000000000E+00 -0.00000000000E+00 -0.74505805969E-08  0.93827000000E+00  0.93827000000E+00 0.  1.
     999902    2    1    2    0    0 -0.13296635914E-01  0.29688852423E-02  0.40188164100E-02  0.10297255749E+01  0.10296275997E+01 0.  0.
     999903    2    3    3    0    0 -0.12855087196E+00  0.22375025314E-01  0.29624486076E-01  0.14162885299E+00  0.46423629588E-01 0.  0.
         14    1    1    2    0    0  0.13296635914E-01 -0.29688852423E-02 -0.40188164100E-02  0.14204425069E-01  0.00000000000E+00 0.  1.
     999901    1    3    3    0    0  0.11525423605E+00 -0.19406140071E-01 -0.25605669666E-01  0.88809672194E+00  0.88000000000E+00 0.  1.
        -11    1    4    4    0    0 -0.11121351441E+00  0.16124568027E-01  0.72135601549E-02  0.11260880983E+00  0.51100000000E-03 0.  1.
         11    1    4    4    0    0 -0.17337357558E-01  0.62504572867E-02  0.22410925921E-01  0.29020043160E-01  0.51100000000E-03 0. -1.
</event>
<event>
 8    1  0.1993226E+004  0.1043930E+01  0.7957747E-01            NaN
         13   -1    0    0    0    0  0.00000000000E+00  0.00000000000E+00  0.74505805969E-08  0.10566000000E+00  0.10566000000E+00 0. -1.
     999900   -1    0    0    0    0 -0.00000000000E+00 -0.00000000000E+00 -0.74505805969E-08  0.93827000000E+00  0.93827000000E+00 0. -1.
     999902    2    1    2    0    0 -0.12473098033E-01  0.20877931539E-02 -0.10011985493E-01  0.10277999997E+01  0.10276734221E+01 0.  0.
     999903    2    3    3    0    0 -0.13103526510E+00 -0.23919580731E-01 -0.45928702898E-02  0.13945167968E+00  0.41027910804E-01 0.  0.
         14    1    1    2    0    0  0.12473098033E-01 -0.20877931539E-02  0.10011985493E-01  0.16130000257E-01  0.00000000000E+00 0. -1.
     999901    1    3    3    0    0  0.11856216707E+00  0.26007373885E-01 -0.54191152029E-02  0.88834832007E+00  0.88000000000E+00 0.  1.
        -11    1    4    4    0    0 -0.45641969148E-01  0.93369084148E-02 -0.99967016155E-02  0.47650418368E-01  0.51100000000E-03 0. -1.
         11    1    4    4    0    0 -0.85393295951E-01 -0.33256489146E-01  0.54038313257E-02  0.91801261308E-01  0.51100000000E-03 0.  1.
</event>
<event>
 8    1  0.1993226E+004  0.1043930E+01  0.7957747E-01            NaN
         13   -1    0    0    0    0  0.00000000000E+00  0.00000000000E+00  0.74505805969E-08  0.10566000000E+00  0.10566000000E+00 0.  1.
     999900   -1    0    0    0    0 -0.00000000000E+00 -0.00000000000E+00 -0.74505805969E-08  0.93827000000E+00  0.93827000000E+00 0. -1.
     999902    2    1    2    0    0 -0.41156039720E-02 -0.90678170226E-02  0.95518210781E-02  0.10301314208E+01  0.10300390009E+01 0.  0.
     999903    2    3    3    0    0 -0.69424010954E-03  0.18180461585E-01 -0.12996820516E+00  0.13871680789E+00  0.44940041021E-01 0.  0.
         14    1    1    2    0    0  0.41156039720E-02  0.90678170226E-02 -0.95518210781E-02  0.13798579185E-01  0.00000000000E+00 0. -1.
     999901    1    3    3    0    0 -0.34213638625E-02 -0.27248278608E-01  0.13952002623E+00  0.89141461293E+00  0.88000000000E+00 0.  1.
        -11    1    4    4    0    0 -0.15006485803E-01  0.23747954820E-01 -0.10993993793E+00  0.11347339356E+00  0.51100000000E-03 0. -1.
         11    1    4    4    0    0  0.14312245693E-01 -0.55674932348E-02 -0.20028267229E-01  0.25243414327E-01  0.51100000000E-03 0.  1.
</event>
<event>
 8    1  0.1993226E+004  0.1043930E+01  0.7957747E-01            NaN
         13   -1    0    0    0    0  0.00000000000E+00  0.00000000000E+00  0.74505805969E-08  0.10566000000E+00  0.10566000000E+00 0. -1.
     999900   -1    0    0    0    0 -0.00000000000E+00 -0.00000000000E+00 -0.74505805969E-08  0.93827000000E+00  0.93827000000E+00 0. -1.
     999902    2    1    2    0    0  0.22734324669E-01 -0.20865670714E-02  0.59693985984E-03  0.10210923202E+01  0.10208368953E+01 0.  0.
     999903    2    3    3    0    0 -0.53045494292E-01 -0.10787689375E+00 -0.27062722107E-01  0.13109275220E+00  0.44740027735E-01 0.  0.
         14    1    1    2    0    0 -0.22734324669E-01  0.20865670714E-02 -0.59693985984E-03  0.22837679775E-01  0.00000000000E+00 0. -1.
     999901    1    3    3    0    0  0.75779818961E-01  0.10579032668E+00  0.27659661966E-01  0.88999956802E+00  0.88000000000E+00 0.  1.
        -11    1    4    4    0    0 -0.46964201801E-01 -0.44834030108E-01 -0.13476917570E-01  0.66314515264E-01  0.51100000000E-03 0.  1.
         11    1    4    4    0    0 -0.60812924909E-02 -0.63042863645E-01 -0.13585804536E-01  0.64778236938E-01  0.51100000000E-03 0. -1.
</event>
<event>
 8    1  0.1993226E+004  0.1043930E+01  0.7957747E-01            NaN
         13   -1    0    0    0    0  0.00000000000E+00  0.00000000000E+00  0.74505805969E-08  0.10566000000E+00  0.10566000000E+00 0. -1.
     999900   -1    0    0    0    0 -0.00000000000E+00 -0.00000000000E+00 -0.74505805969E-08  0.93827000000E+00  0.93827000000E+00 0. -1.
     999902    2    1    2    0    0 -0.27820855258E-02  0.13112360129E-01  0.60545102034E-02  0.10292218022E+01  0.10291167024E+01 0.  0.
     999903    2    3    3    0    0 -0.12024294597E+00 -0.10849127400E-02  0.55688171871E-01  0.13991751422E+00  0.44902062411E-01 0.  0.
         14    1    1    2    0    0  0.27820855258E-02 -0.13112360129E-01 -0.60545102034E-02  0.14708197776E-01  0.00000000000E+00 0. -1.
     999901    1    3    3    0    0  0.11746086044E+00  0.14197272869E-01 -0.49633661668E-01  0.88930428800E+00  0.88000000000E+00 0. -1.
        -11    1    4    4    0    0 -0.11378703294E-01 -0.11660916327E-01  0.17865965818E-01  0.24184824040E-01  0.51100000000E-03 0.  1.
         11    1    4    4    0    0 -0.10886424267E+00  0.10576003587E-01  0.37822206053E-01  0.11573269018E+00  0.51100000000E-03 0. -1.
</event>
<event>
 8    1  0.1993226E+004  0.1043930E+01  0.7957747E-01            NaN
         13   -1    0    0    0    0  0.00000000000E+00  0.00000000000E+00  0.74505805969E-08  0.10566000000E+00  0.10566000000E+00 0. -1.
     999900   -1    0    0    0    0 -0.00000000000E+00 -0.00000000000E+00 -0.74505805969E-08  0.93827000000E+00  0.93827000000E+00 0.  1.
     999902    2    1    2    0    0 -0.73670592747E-02  0.10771980687E-02 -0.65648998200E-02  0.10340036801E+01  0.10339560332E+01 0.  0.
     999903    2    3    3    0    0 -0.82584771509E-01 -0.10827811153E+00  0.89290335836E-02  0.14391584734E+00  0.45690803826E-01 0.  0.
         14    1    1    2    0    0  0.73670592747E-02 -0.10771980687E-02  0.65648998200E-02  0.99263199466E-02  0.00000000000E+00 0. -1.
     999901    1    3    3    0    0  0.75217712234E-01  0.10935530959E+00 -0.15493933404E-01  0.89008783271E+00  0.88000000000E+00 0.  1.
        -11    1    4    4    0    0 -0.27424653671E-01 -0.72796440790E-01  0.55222503165E-03  0.77794598104E-01  0.51100000000E-03 0. -1.
         11    1    4    4    0    0 -0.55160117838E-01 -0.35481670736E-01  0.83768085520E-02  0.66121249237E-01  0.51100000000E-03 0.  1.
</event>
<event>
 8    1  0.1993226E+004  0.1043930E+01  0.7957747E-01            NaN
         13   -1    0    0    0    0  0.00000000000E+00  0.00000000000E+00  0.74505805969E-08  0.10566000000E+00  0.10566000000E+00 0. -1.
     999900   -1    0    0    0    0 -0.00000000000E+00 -0.00000000000E+00 -0.74505805969E-08  0.93827000000E+00  0.93827000000E+00 0. -1.
     999902    2    1    2    0    0 -0.68375610741E-02 -0.56165140911E-02 -0.10613542450E-01  0.10301117239E+01  0.10300190381E+01 0.  0.
     999903    2    3    3    0    0 -0.30980848803E-01  0.92815195208E-01  0.87608886003E-01  0.13886577286E+00  0.45098919174E-01 0.  0.
         14    1    1    2    0    0  0.68375610741E-02  0.56165140911E-02  0.10613542450E-01  0.13818276134E-01  0.00000000000E+00 0. -1.
     999901    1    3    3    0    0  0.24143287729E-01 -0.98431709299E-01 -0.98222428453E-01  0.89124595101E+00  0.88000000000E+00 0. -1.
        -11    1    4    4    0    0 -0.31096356410E-01  0.55564186144E-01  0.77421582203E-01  0.10024332734E+00  0.51100000000E-03 0.  1.
         11    1    4    4    0    0  0.11550760641E-03  0.37251009064E-01  0.10187303800E-01  0.38622445520E-01  0.51100000000E-03 0. -1.
</event>
<event>
 8    1  0.1993226E+004  0.1043930E+01  0.7957747E-01            NaN
         13   -1    0    0    0    0  0.00000000000E+00  0.00000000000E+00  0.74505805969E-08  0.10566000000E+00  0.10566000000E+00 0.  1.
     999900   -1    0    0    0    0 -0.00000000000E+00 -0.00000000000E+00 -0.74505805969E-08  0.93827000000E+00  0.93827000000E+00 0.  1.
     999902    2    1    2    0    0 -0.10457035076E-01  0.34471499415E-02  0.10939875879E-01  0.10284086177E+01  0.10282914818E+01 0.  0.
     999903    2    3    3    0    0  0.47800010952E-01  0.95415382577E-01  0.77104524875E-01  0.13923495634E+00  0.45302638230E-01 0.  0.
         14    1    1    2    0    0  0.10457035076E-01 -0.34471499415E-02 -0.10939875879E-01  0.15521382334E-01  0.00000000000E+00 0. -1.
     999901    1    3    3    0    0 -0.58257046028E-01 -0.91968232635E-01 -0.66164648995E-01  0.88917366133E+00  0.88000000000E+00 0. -1.
        -11    1    4    4    0    0  0.40207237927E-01  0.39316469379E-01  0.54386709510E-01  0.78234148800E-01  0.51100000000E-03 0. -1.
         11    1    4    4    0    0  0.75927730252E-02  0.56098913198E-01  0.22717815365E-01  0.61000807537E-01  0.51100000000E-03 0.  1.
</event>
<event>
 8    1  0.1993226E+004  0.1043930E+01  0.7957747E-01            NaN
         13   -1    0    0    0    0  0.00000000000E+00  0.00000000000E+00  0.74505805969E-08  0.10566000000E+00  0.10566000000E+00 0.  1.
     999900   -1    0    0    0    0 -0.00000000000E+00 -0.00000000000E+00 -0.74505805969E-08  0.93827000000E+00  0.93827000000E+00 0. -1.
     999902    2    1    2    0    0 -0.89300150221E-02  0.62248564692E-02  0.50463682332E-02  0.10319316735E+01  0.10318619185E+01 0.  0.
     999903    2    3    3    0    0  0.11445598105E-01 -0.13227572686E+00  0.13400437659E-01  0.14082709621E+00  0.44998107349E-01 0.  0.
         14    1    1    2    0    0  0.89300150221E-02 -0.62248564692E-02 -0.50463682332E-02  0.11998326496E-01  0.00000000000E+00 0. -1.
     999901    1    3    3    0    0 -0.20375613127E-01  0.13850058333E+00 -0.83540694255E-02  0.89110457729E+00  0.88000000000E+00 0.  1.
        -11    1    4    4    0    0 -0.15981781930E-01 -0.35604721667E-01 -0.24022240303E-02  0.39104288255E-01  0.51100000000E-03 0.  1.
         11    1    4    4    0    0  0.27427380035E-01 -0.96671005197E-01  0.15802661689E-01  0.10172280796E+00  0.51100000000E-03 0. -1.
</event>
<event>
 8    1  0.1993226E+004  0.1043930E+01  0.7957747E-01            NaN
         13   -1    0    0    0    0  0.00000000000E+00  0.00000000000E+00  0.74505805969E-08  0.10566000000E+00  0.10566000000E+00 0.  1.
     999900   -1    0    0    0    0 -0.00000000000E+00 -0.00000000000E+00 -0.74505805969E-08  0.93827000000E+00  0.93827000000E+00 0.  1.
     999902    2    1    2    0    0  0.73419258599E-03 -0.16044804424E-01 -0.47281172766E-02  0.10271869453E+01  0.10270504811E+01 0.  0.
     999903    2    3    3    0    0  0.69620840404E-01 -0.24033756156E-01  0.10693346604E+00  0.13742433494E+00  0.45011096650E-01 0.  0.
         14    1    1    2    0    0 -0.73419258599E-03  0.16044804424E-01  0.47281172766E-02  0.16743054701E-01  0.00000000000E+00 0. -1.
     999901    1    3    3    0    0 -0.68886647818E-01  0.79889517327E-02 -0.11166158332E+00  0.88976261036E+00  0.88000000000E+00 0.  1.
        -11    1    4    4    0    0  0.29545314110E-01  0.12194941324E-01  0.45604070581E-01  0.55692320425E-01  0.51100000000E-03 0. -1.
         11    1    4    4    0    0  0.40075526294E-01 -0.36228697480E-01  0.61329395459E-01  0.81732014518E-01  0.51100000000E-03 0.  1.
</event>
<event>
 8    1  0.1993226E+004  0.1043930E+01  0.7957747E-01            NaN
         13   -1    0    0    0    0  0.00000000000E+00  0.00000000000E+00  0.74505805969E-08  0.10566000000E+00  0.10566000000E+00 0.  1.
     999900   -1    0    0    0    0 -0.00000000000E+00 -0.00000000000E+00 -0.74505805969E-08  0.93827000000E+00  0.93827000000E+00 0.  1.
     999902    2    1    2    0    0  0.13553504708E-01  0.15245241439E-03  0.31068986245E-02  0.10300241181E+01  0.10299302454E+01 0.  0.
     999903    2    3    3    0    0 -0.76735210671E-01 -0.61463045200E-01  0.88560703572E-01  0.13915326640E+00  0.43065471684E-01 0.  0.
         14    1    1    2    0    0 -0.13553504708E-01 -0.15245241439E-03 -0.31068986245E-02  0.13905881873E-01  0.00000000000E+00 0.  1.
     999901    1    3    3    0    0  0.90288715379E-01  0.61615497615E-01 -0.85453804948E-01  0.89087085172E+00  0.88000000000E+00 0.  1.
        -11    1    4    4    0    0 -0.26669074302E-01 -0.35280810811E-01  0.63399451560E-01  0.77302824753E-01  0.51100000000E-03 0. -1.
         11    1    4    4    0    0 -0.50066136368E-01 -0.26182234389E-01  0.25161252012E-01  0.61850441650E-01  0.51100000000E-03 0.  1.
</event>
<event>
 8    1  0.1993226E+004  0.1043930E+01  0.7957747E-01            NaN
         13   -1    0    0    0    0  0.00000000000E+00  0.00000000000E+00  0.74505805969E-08  0.10566000000E+00  0.10566000000E+00 0.  1.
     999900   -1    0    0    0    0 -0.00000000000E+00 -0.00000000000E+00 -0.74505805969E-08  0.93827000000E+00  0.93827000000E+00 0. -1.
     999902    2    1    2    0    0 -0.35377489504E-02 -0.41605478547E-02 -0.10532068986E-01  0.10320661767E+01  0.10319979858E+01 0.  0.
     999903    2    3    3    0    0 -0.21250369188E-01  0.12817944000E+00 -0.34580827222E-02  0.14196637860E+00  0.57104704599E-01 0.  0.
         14    1    1    2    0    0  0.35377489504E-02  0.41605478547E-02  0.10532068986E-01  0.11863823296E-01  0.00000000000E+00 0.  1.
     999901    1    3    3    0    0  0.17712620238E-01 -0.13233998786E+00 -0.70739862637E-02  0.89009979810E+00  0.88000000000E+00 0. -1.
        -11    1    4    4    0    0  0.71167368395E-02  0.26057586384E-01  0.19749441238E-01  0.33465613719E-01  0.51100000000E-03 0.  1.
         11    1    4    4    0    0 -0.28367106028E-01  0.10212185362E+00 -0.23207523960E-01  0.10850076488E+00  0.51100000000E-03 0. -1.
</event>
<event>
 8    1  0.2069474E+004  0.1043930E+01  0.7957747E-01            NaN
         13   -1    0    0    0    0  0.00000000000E+00  0.00000000000E+00  0.74505805969E-08  0.10566000000E+00  0.10566000000E+00 0.  1.
     999900   -1    0    0    0    0 -0.00000000000E+00 -0.00000000000E+00 -0.74505805969E-08  0.93827000000E+00  0.93827000000E+00 0.  1.
     999902    2    1    2    0    0 -0.37096105049E-02  0.16558755953E-01  0.14709639350E-02  0.10268971687E+01  0.10267558997E+01 0.  0.
     999903    2    3    3    0    0 -0.52033409300E-01 -0.82704336710E-01  0.83444638686E-01  0.13621875618E+00  0.45222326513E-01 0.  0.
         14    1    1    2    0    0  0.37096105049E-02 -0.16558755953E-01 -0.14709639350E-02  0.17032831348E-01  0.00000000000E+00 0. -1.
     999901    1    3    3    0    0  0.48323798795E-01  0.99263092663E-01 -0.81973674751E-01  0.89067841247E+00  0.88000000000E+00 0.  1.
        -11    1    4    4    0    0 -0.59042954699E-01 -0.61398276954E-01  0.64327003447E-01  0.10674288457E+00  0.51100000000E-03 0.  1.
         11    1    4    4    0    0  0.70095453990E-02 -0.21306059755E-01  0.19117635239E-01  0.29475871610E-01  0.51100000000E-03 0. -1.
</event>
<event>
 8    1  0.1993226E+004  0.1043930E+01  0.7957747E-01            NaN
         13   -1    0    0    0    0  0.00000000000E+00  0.00000000000E+00  0.74505805969E-08  0.10566000000E+00  0.10566000000E+00 0. -1.
     999900   -1    0    0    0    0 -0.00000000000E+00 -0.00000000000E+00 -0.74505805969E-08  0.93827000000E+00  0.93827000000E+00 0.  1.
     999902    2    1    2    0    0  0.24936192500E-02  0.89042298925E-02  0.12638083722E-01  0.10282703510E+01  0.10281511028E+01 0.  0.
     999903    2    3    3    0    0  0.25487130896E-01 -0.40840233555E-01 -0.11984496935E+00  0.13666787647E+00  0.44696456934E-01 0.  0.
         14    1    1    2    0    0 -0.24936192500E-02 -0.89042298925E-02 -0.12638083722E-01  0.15659649009E-01  0.00000000000E+00 0.  1.
     999901    1    3    3    0    0 -0.22993511646E-01  0.49744463447E-01  0.13248305307E+00  0.89160247452E+00  0.88000000000E+00 0. -1.
        -11    1    4    4    0    0 -0.73612128993E-02 -0.16207268938E-01 -0.69271788474E-01  0.71524155509E-01  0.51100000000E-03 0. -1.
         11    1    4    4    0    0  0.32848343796E-01 -0.24632964617E-01 -0.50573180874E-01  0.65143720961E-01  0.51100000000E-03 0.  1.
</event>
<event>
 8    1  0.1993226E+004  0.1043930E+01  0.7957747E-01            NaN
         13   -1    0    0    0    0  0.00000000000E+00  0.00000000000E+00  0.74505805969E-08  0.10566000000E+00  0.10566000000E+00 0. -1.
     999900   -1    0    0    0    0 -0.00000000000E+00 -0.00000000000E+00 -0.74505805969E-08  0.93827000000E+00  0.93827000000E+00 0. -1.
     999902    2    1    2    0    0  0.20295680292E-02 -0.13176199012E-01 -0.77857134172E-04  0.10305981798E+01  0.10305119460E+01 0.  0.
     999903    2    3    3    0    0 -0.10904212438E+00 -0.84504554060E-02  0.75393898741E-01  0.14039862950E+00  0.45452613922E-01 0.  0.
         14    1    1    2    0    0 -0.20295680292E-02  0.13176199012E-01  0.77857134172E-04  0.13331820150E-01  0.00000000000E+00 0.  1.
     999901    1    3    3    0    0  0.11107169241E+00 -0.47257436061E-02 -0.75471755876E-01  0.89019955035E+00  0.88000000000E+00 0. -1.
        -11    1    4    4    0    0 -0.72922540694E-01 -0.25986680403E-01  0.41422171470E-01  0.87801263715E-01  0.51100000000E-03 0.  1.
         11    1    4    4    0    0 -0.36119583685E-01  0.17536224997E-01  0.33971727272E-01  0.52597365785E-01  0.51100000000E-03 0. -1.
</event>
<event>
 8    1  0.1993226E+004  0.1043930E+01  0.7957747E-01            NaN
         13   -1    0    0    0    0  0.00000000000E+00  0.00000000000E+00  0.74505805969E-08  0.10566000000E+00  0.10566000000E+00 0. -1.
     999900   -1    0    0    0    0 -0.00000000000E+00 -0.00000000000E+00 -0.74505805969E-08  0.93827000000E+00  0.93827000000E+00 0.  1.
     999902    2    1    2    0    0 -0.46741431604E-02 -0.86878707100E-02  0.89838989951E-02  0.10305869436E+01  0.10305005634E+01 0.  0.
     999903    2    3    3    0    0 -0.75839100990E-01  0.10640839490E+00 -0.20381198186E-01  0.13975928887E+00  0.45199002667E-01 0.  0.
         14    1    1    2    0    0  0.46741431604E-02  0.86878707100E-02 -0.89838989951E-02  0.13343056356E-01  0.00000000000E+00 0.  1.
     999901    1    3    3    0    0  0.71164957830E-01 -0.11509626561E+00  0.29365097181E-01  0.89082765478E+00  0.88000000000E+00 0. -1.
        -11    1    4    4    0    0 -0.19567667776E-02  0.36293672903E-01 -0.71437303736E-02  0.37045291653E-01  0.51100000000E-03 0. -1.
         11    1    4    4    0    0 -0.73882334213E-01  0.70114721994E-01 -0.13237467812E-01  0.10271399722E+00  0.51100000000E-03 0.  1.
</event>
<event>
 8    1  0.1993226E+004  0.1043930E+01  0.7957747E-01            NaN
         13   -1    0    0    0    0  0.00000000000E+00  0.00000000000E+00  0.74505805969E-08  0.10566000000E+00  0.10566000000E+00 0. -1.
     999900   -1    0    0    0    0 -0.00000000000E+00 -0.00000000000E+00 -0.74505805969E-08  0.93827000000E+00  0.93827000000E+00 0. -1.
     999902    2    1    2    0    0  0.62315122559E-02  0.12413751761E-01 -0.14729194035E-02  0.10299620914E+01  0.10298673737E+01 0.  0.
     999903    2    3    3    0    0  0.22989029869E-01  0.12905449308E+00  0.30160137310E-01  0.14154410018E+00  0.44062917904E-01 0.  0.
         14    1    1    2    0    0 -0.62315122559E-02 -0.12413751761E-01  0.14729194035E-02  0.13967908554E-01  0.00000000000E+00 0. -1.
     999901    1    3    3    0    0 -0.16757517613E-01 -0.11664074132E+00 -0.31633056713E-01  0.88841799127E+00  0.88000000000E+00 0. -1.
        -11    1    4    4    0    0  0.34310071507E-01  0.10065958989E+00  0.14938597049E-01  0.10739160511E+00  0.51100000000E-03 0. -1.
         11    1    4    4    0    0 -0.11321041638E-01  0.28394903187E-01  0.15221540261E-01  0.34152495073E-01  0.51100000000E-03 0.  1.
</event>
<event>
 8    1  0.1993226E+004  0.1043930E+01  0.7957747E-01            NaN
         13   -1    0    0    0    0  0.00000000000E+00  0.00000000000E+00  0.74505805969E-08  0.10566000000E+00  0.10566000000E+00 0. -1.
     999900   -1    0    0    0    0 -0.00000000000E+00 -0.00000000000E+00 -0.74505805969E-08  0.93827000000E+00  0.93827000000E+00 0.  1.
     999902    2    1    2    0    0 -0.16008473293E-02  0.33101253898E-02  0.13390642316E-01  0.10300437138E+01  0.10299501073E+01 0.  0.
     999903    2    3    3    0    0  0.16930853104E-02  0.12588974269E+00  0.41195258352E-01  0.14110630925E+00  0.48609128236E-01 0.  0.
         14    1    1    2    0    0  0.16008473293E-02 -0.33101253898E-02 -0.13390642316E-01  0.13886286181E-01  0.00000000000E+00 0.  1.
     999901    1    3    3    0    0 -0.32939326397E-02 -0.12257961730E+00 -0.27804616037E-01  0.88893740457E+00  0.88000000000E+00 0.  1.
        -11    1    4    4    0    0  0.38966318704E-02  0.99337131783E-01  0.52186612002E-01  0.11227979820E+00  0.51100000000E-03 0.  1.
         11    1    4    4    0    0 -0.22035465599E-02  0.26552610903E-01 -0.10991353649E-01  0.28826511049E-01  0.51100000000E-03 0. -1.
</event>
<event>
 8    1  0.1993226E+004  0.1043930E+01  0.7957747E-01            NaN
         13   -1    0    0    0    0  0.00000000000E+00  0.00000000000E+00  0.74505805969E-08  0.10566000000E+00  0.10566000000E+00 0. -1.
     999900   -1    0    0    0    0 -0.00000000000E+00 -0.00000000000E+00 -0.74505805969E-08  0.93827000000E+00  0.93827000000E+00 0. -1.
     999902    2    1    2    0    0  0.12581864927E-01 -0.25308290910E-02 -0.54969803985E-02  0.10299684380E+01  0.10298738068E+01 0.  0.
     999903    2    3    3    0    0  0.10900634863E-01 -0.12735192085E+00 -0.37216341045E-01  0.14059267412E+00  0.45209605076E-01 0.  0.
         14    1    1    2    0    0 -0.12581864927E-01  0.25308290910E-02  0.54969803985E-02  0.13961562034E-01  0.00000000000E+00 0.  1.
     999901    1    3    3    0    0  0.16812300640E-02  0.12482109176E+00  0.31719360647E-01  0.88937576385E+00  0.88000000000E+00 0. -1.
        -11    1    4    4    0    0 -0.17023039418E-01 -0.33352742162E-01 -0.12281183024E-01  0.39411646226E-01  0.51100000000E-03 0.  1.
         11    1    4    4    0    0  0.27923674281E-01 -0.93999178685E-01 -0.24935158021E-01  0.10118102789E+00  0.51100000000E-03 0. -1.
</event>
<event>
 8    1  0.1993226E+004  0.1043930E+01  0.7957747E-01            NaN
         13   -1    0    0    0    0  0.00000000000E+00  0.00000000000E+00  0.74505805969E-08  0.10566000000E+00  0.10566000000E+00 0. -1.
     999900   -1    0    0    0    0 -0.00000000000E+00 -0.00000000000E+00 -0.74505805969E-08  0.93827000000E+00  0.93827000000E+00 0.  1.
     999902    2    1    2    0    0  0.48488884651E-02 -0.43305604173E-02  0.11076633251E-01  0.10310864305E+01  0.10310064354E+01 0.  0.
     999903    2    3    3    0    0 -0.12277642072E+00 -0.40854094796E-01 -0.27017271581E-01  0.14031522886E+00  0.47067227896E-01 0.  0.
         14    1    1    2    0    0 -0.48488884651E-02  0.43305604173E-02 -0.11076633251E-01  0.12843569483E-01  0.00000000000E+00 0.  1.
     999901    1    3    3    0    0  0.12762530918E+00  0.36523534379E-01  0.38093904832E-01  0.89077120165E+00  0.88000000000E+00 0. -1.
        -11    1    4    4    0    0 -0.36044481263E-01 -0.14190310963E-01 -0.30807286598E-01  0.49496662345E-01  0.51100000000E-03 0. -1.
         11    1    4    4    0    0 -0.86731939455E-01 -0.26663783833E-01  0.37900150173E-02  0.90818566520E-01  0.51100000000E-03 0.  1.
</event>
<event>
 8    1  0.1993226E+004  0.1043930E+01  0.7957747E-01            NaN
         13   -1    0    0    0    0  0.00000000000E+00  0.00000000000E+00  0.74505805969E-08  0.10566000000E+00  0.10566000000E+00 0. -1.
     999900   -1    0    0    0    0 -0.00000000000E+00 -0.00000000000E+00 -0.74505805969E-08  0.93827000000E+00  0.93827000000E+00 0.  1.
     999902    2    1    2    0    0 -0.40225825668E-02 -0.11861886586E-01 -0.55577706329E-02  0.10302269223E+01  0.10301357858E+01 0.  0.
     999903    2    3    3    0    0 -0.11477135539E+00  0.57632286787E-01 -0.33865652455E-01  0.14011677913E+00  0.44630537519E-01 0.  0.
         14    1    1    2    0    0  0.40225825668E-02  0.11861886586E-01  0.55577706329E-02  0.13703077694E-01  0.00000000000E+00 0. -1.
     999901    1    3    3    0    0  0.11074877282E+00 -0.69494173373E-01  0.28307881822E-01  0.89011014318E+00  0.88000000000E+00 0. -1.
        -11    1    4    4    0    0 -0.69225953948E-01  0.37610415390E-01 -0.42656767785E-01  0.89591500739E-01  0.51100000000E-03 0.  1.
         11    1    4    4    0    0 -0.45545401440E-01  0.20021871397E-01  0.87911153305E-02  0.50525278389E-01  0.51100000000E-03 0. -1.
</event>
<event>
 8    1  0.1993226E+004  0.1043930E+01  0.7957747E-01            NaN
         13   -1    0    0    0    0  0.00000000000E+00  0.00000000000E+00  0.74505805969E-08  0.10566000000E+00  0.10566000000E+00 0. -1.
     999900   -1    0    0    0    0 -0.00000000000E+00 -0.00000000000E+00 -0.74505805969E-08  0.93827000000E+00  0.93827000000E+00 0. -1.
     999902    2    1    2    0    0  0.23939162842E-02 -0.39862187934E-02  0.12664276428E-01  0.10304390892E+01  0.10303507713E+01 0.  0.
     999903    2    3    3    0    0 -0.50271003557E-01  0.71901230128E-01  0.10089094217E+00  0.14121670805E+00  0.45455645705E-01 0.  0.
         14    1    1    2    0    0 -0.23939162842E-02  0.39862187934E-02 -0.12664276428E-01  0.13490910751E-01  0.00000000000E+00 0.  1.
     999901    1    3    3    0    0  0.52664919841E-01 -0.75887448921E-01 -0.88226665744E-01  0.88922238120E+00  0.88000000000E+00 0. -1.
        -11    1    4    4    0    0 -0.28504997230E-01  0.64682799078E-01  0.53784098322E-01  0.88822236614E-01  0.51100000000E-03 0.  1.
         11    1    4    4    0    0 -0.21766006327E-01  0.72184310497E-02  0.47106843849E-01  0.52394471432E-01  0.51100000000E-03 0. -1.
</event>
<event>
 8    1  0.1993226E+004  0.1043930E+01  0.7957747E-01            NaN
         13   -1    0    0    0    0  0.00000000000E+00  0.00000000000E+00  0.74505805969E-08  0.10566000000E+00  0.10566000000E+00 0. -1.
     999900   -1    0    0    0    0 -0.00000000000E+00 -0.00000000000E+00 -0.74505805969E-08  0.93827000000E+00  0.93827000000E+00 0. -1.
     999902    2    1    2    0    0 -0.13073573021E-01  0.43207810516E-02  0.11407798369E-02  0.10301137473E+01  0.10300210889E+01 0.  0.
     999903    2    3    3    0    0 -0.64733674528E-01 -0.87993831590E-01 -0.73937789046E-01  0.14060402542E+00  0.48675787599E-01 0.  0.
         14    1    1    2    0    0  0.13073573021E-01 -0.43207810516E-02 -0.11407798369E-02  0.13816252714E-01  0.00000000000E+00 0.  1.
     999901    1    3    3    0    0  0.51660101507E-01  0.92314612642E-01  0.75078568883E-01  0.88950972187E+00  0.88000000000E+00 0.  1.
        -11    1    4    4    0    0 -0.56768334704E-01 -0.89407619473E-01 -0.53577381771E-01  0.11868935590E+00  0.51100000000E-03 0. -1.
         11    1    4    4    0    0 -0.79653398239E-02  0.14137878831E-02 -0.20360407275E-01  0.21914669519E-01  0.51100000000E-03 0.  1.
</event>
<event>
 8    1  0.1993226E+004  0.1043930E+01  0.7957747E-01            NaN
         13   -1    0    0    0    0  0.00000000000E+00  0.00000000000E+00  0.74505805969E-08  0.10566000000E+00  0.10566000000E+00 0.  1.
     999900   -1    0    0    0    0 -0.00000000000E+00 -0.00000000000E+00 -0.74505805969E-08  0.93827000000E+00  0.93827000000E+00 0. -1.
     999902    2    1    2    0    0  0.13412290910E-01 -0.18743961351E-02 -0.16001185233E-02  0.10302931643E+01  0.10302029126E+01 0.  0.
     999903    2    3    3    0    0 -0.19611871283E-02 -0.13006258819E+00  0.28231229015E-01  0.14037268151E+00  0.44579864521E-01 0.  0.
         14    1    1    2    0    0 -0.13412290910E-01  0.18743961351E-02  0.16001185233E-02  0.13636835689E-01  0.00000000000E+00 0.  1.
     999901    1    3    3    0    0  0.15373478038E-01  0.12818819206E+00 -0.29831347538E-01  0.88992048280E+00  0.88000000000E+00 0. -1.
        -11    1    4    4    0    0 -0.13173767881E-01 -0.94292958159E-02  0.12966384901E-02  0.16260448091E-01  0.51100000000E-03 0.  1.
         11    1    4    4    0    0  0.11212580753E-01 -0.12063329238E+00  0.26934590525E-01  0.12411223342E+00  0.51100000000E-03 0. -1.
</event>
<event>
 8    1  0.1993226E+004  0.1043930E+01  0.7957747E-01            NaN
         13   -1    0    0    0    0  0.00000000000E+00  0.00000000000E+00  0.74505805969E-08  0.10566000000E+00  0.10566000000E+00 0. -1.
     999900   -1    0    0    0    0 -0.00000000000E+00 -0.00000000000E+00 -0.74505805969E-08  0.93827000000E+00  0.93827000000E+00 0. -1.
     999902    2    1    2    0    0 -0.57024689134E-03  0.11631237873E-01 -0.48788708769E-02  0.10313040641E+01  0.10312267735E+01 0.  0.
     999903    2    3    3    0    0 -0.70342004929E-01 -0.10585233168E+00  0.36942817082E-01  0.13977754128E+00  0.44947475271E-01 0.  0.
         14    1    1    2    0    0  0.57024689134E-03 -0.11631237873E-01  0.48788708769E-02  0.12625935886E-01  0.00000000000E+00 0. -1.
     999901    1    3    3    0    0  0.69771758037E-01  0.11748356955E+00 -0.41821687959E-01  0.89152652283E+00  0.88000000000E+00 0.  1.
        -11    1    4    4    0    0 -0.27350623047E-01 -0.65291973052E-01  0.13958354645E-02  0.70804715971E-01  0.51100000000E-03 0. -1.
         11    1    4    4    0    0 -0.42991381882E-01 -0.40560358625E-01  0.35546981617E-01  0.68972825308E-01  0.51100000000E-03 0.  1.
</event>
<event>
 8    1  0.1993226E+004  0.1043930E+01  0.7957747E-01            NaN
         13   -1    0    0    0    0  0.00000000000E+00  0.00000000000E+00  0.74505805969E-08  0.10566000000E+00  0.10566000000E+00 0. -1.
     999900   -1    0    0    0    0 -0.00000000000E+00 -0.00000000000E+00 -0.74505805969E-08  0.93827000000E+00  0.93827000000E+00 0. -1.
     999902    2    1    2    0    0 -0.12627601679E-01 -0.79548539097E-02 -0.35594357449E-02  0.10285870665E+01  0.10284726286E+01 0.  0.
     999903    2    3    3    0    0 -0.11729874297E+00  0.27359979526E-01 -0.54094579736E-01  0.14024198376E+00  0.47265493445E-01 0.  0.
         14    1    1    2    0    0  0.12627601679E-01  0.79548539097E-02  0.35594357449E-02  0.15342933478E-01  0.00000000000E+00 0. -1.
     999901    1    3    3    0    0  0.10467114129E+00 -0.35314833436E-01  0.50535143991E-01  0.88834508276E+00  0.88000000000E+00 0. -1.
        -11    1    4    4    0    0 -0.79479239905E-01  0.12999538364E-01 -0.58506153015E-01  0.99544807173E-01  0.51100000000E-03 0.  1.
         11    1    4    4    0    0 -0.37819503069E-01  0.14360441162E-01  0.44115732788E-02  0.40697176592E-01  0.51100000000E-03 0. -1.
</event>
<event>
 8    1  0.1993226E+004  0.1043930E+01  0.7957747E-01            NaN
         13   -1    0    0    0    0  0.00000000000E+00  0.00000000000E+00  0.74505805969E-08  0.10566000000E+00  0.10566000000E+00 0. -1.
     999900   -1    0    0    0    0 -0.00000000000E+00 -0.00000000000E+00 -0.74505805969E-08  0.93827000000E+00  0.93827000000E+00 0. -1.
     999902    2    1    2    0    0 -0.14654344917E-01  0.18570591329E-01 -0.40092841577E-02  0.10199364374E+01  0.10196541793E+01 0.  0.
     999903    2    3    3    0    0 -0.94342910283E-01  0.74381519063E-01 -0.33957820471E-01  0.13406847774E+00  0.48867453933E-01 0.  0.
         14    1    1    2    0    0  0.14654344917E-01 -0.18570591329E-01  0.40092841577E-02  0.23993562610E-01  0.00000000000E+00 0. -1.
     999901    1    3    3    0    0  0.79688565366E-01 -0.55810927735E-01  0.29948536314E-01  0.88586795965E+00  0.88000000000E+00 0.  1.
        -11    1    4    4    0    0 -0.32406379263E-02 -0.30333387722E-02  0.64717278431E-02  0.78643029285E-02  0.51100000000E-03 0. -1.
         11    1    4    4    0    0 -0.91102272357E-01  0.77414857836E-01 -0.40429548315E-01  0.12620417481E+00  0.51100000000E-03 0.  1.
</event>
<event>
 8    1  0.1993226E+004  0.1043930E+01  0.7957747E-01            NaN
         13   -1    0    0    0    0  0.00000000000E+00  0.00000000000E+00  0.74505805969E-08  0.10566000000E+00  0.10566000000E+00 0. -1.
     999900   -1    0    0    0    0 -0.00000000000E+00 -0.00000000000E+00 -0.74505805969E-08  0.93827000000E+00  0.93827000000E+00 0. -1.
     999902    2    1    2    0    0 -0.45262288898E-02 -0.11814040187E-01  0.59343056088E-02  0.10299559427E+01  0.10298611410E+01 0.  0.
     999903    2    3    3    0    0 -0.12097752420E+00 -0.55970582778E-01  0.13326569022E-01  0.14115599337E+00  0.44487633372E-01 0.  0.
         14    1    1    2    0    0  0.45262288898E-02  0.11814040187E-01 -0.59343056088E-02  0.13974057270E-01  0.00000000000E+00 0.  1.
     999901    1    3    3    0    0  0.11645129531E+00  0.44156542591E-01 -0.73922634133E-02  0.88879994937E+00  0.88000000000E+00 0.  1.
        -11    1    4    4    0    0 -0.12904413385E-01  0.57764784547E-02 -0.56764237313E-02  0.15243834673E-01  0.51100000000E-03 0.  1.
         11    1    4    4    0    0 -0.10807311081E+00 -0.61747061233E-01  0.19002992753E-01  0.12591215869E+00  0.51100000000E-03 0. -1.
</event>
<event>
 8    1  0.1993226E+004  0.1043930E+01  0.7957747E-01            NaN
         13   -1    0    0    0    0  0.00000000000E+00  0.00000000000E+00  0.74505805969E-08  0.10566000000E+00  0.10566000000E+00 0.  1.
     999900   -1    0    0    0    0 -0.00000000000E+00 -0.00000000000E+00 -0.74505805969E-08  0.93827000000E+00  0.93827000000E+00 0.  1.
     999902    2    1    2    0    0 -0.33062417590E-02 -0.10492904987E-01 -0.46420612387E-02  0.10319892705E+01  0.10319201875E+01 0.  0.
     999903    2    3    3    0    0  0.93016165430E-02  0.17631788184E-01 -0.13312741193E+00  0.14212498765E+00  0.45598292548E-01 0.  0.
         14    1    1    2    0    0  0.33062417590E-02  0.10492904987E-01  0.46420612387E-02  0.11940729549E-01  0.00000000000E+00 0.  1.
     999901    1    3    3    0    0 -0.12607858302E-01 -0.28124693171E-01  0.12848535069E+00  0.88986428280E+00  0.88000000000E+00 0. -1.
        -11    1    4    4    0    0  0.18848135248E-01  0.21338466877E-01 -0.44004118657E-01  0.52413795424E-01  0.51100000000E-03 0.  1.
         11    1    4    4    0    0 -0.95465187048E-02 -0.37066786923E-02 -0.89123293273E-01  0.89711192229E-01  0.51100000000E-03 0. -1.
</event>
<event>
 8    1  0.1993226E+004  0.1043930E+01  0.7957747E-01            NaN
         13   -1    0    0    0    0  0.00000000000E+00  0.00000000000E+00  0.74505805969E-08  0.10566000000E+00  0.10566000000E+00 0.  1.
     999900   -1    0    0    0    0 -0.00000000000E+00 -0.00000000000E+00 -0.74505805969E-08  0.93827000000E+00  0.93827000000E+00 0.  1.
     999902    2    1    2    0    0 -0.13531765233E-02 -0.13162379092E-01 -0.22379003445E-02  0.10305103313E+01  0.10304229498E+01 0.  0.
     999903    2    3    3    0    0 -0.47789465420E-01 -0.10450996880E+00 -0.69871972816E-01  0.14198622986E+00  0.45517362642E-01 0.  0.
         14    1    1    2    0    0  0.13531765233E-02  0.13162379092E-01  0.22379003445E-02  0.13419668700E-01  0.00000000000E+00 0.  1.
     999901    1    3    3    0    0  0.46436288897E-01  0.91347589710E-01  0.67634072472E-01  0.88852410144E+00  0.88000000000E+00 0. -1.
        -11    1    4    4    0    0 -0.32578826621E-01 -0.36226532836E-01 -0.48711504356E-01  0.68897121877E-01  0.51100000000E-03 0.  1.
         11    1    4    4    0    0 -0.15210638799E-01 -0.68283435966E-01 -0.21160468460E-01  0.73089107988E-01  0.51100000000E-03 0. -1.
</event>
<event>
 8    1  0.1993226E+004  0.1043930E+01  0.7957747E-01            NaN
         13   -1    0    0    0    0  0.00000000000E+00  0.00000000000E+00  0.74505805969E-08  0.10566000000E+00  0.10566000000E+00 0. -1.
     999900   -1    0    0    0    0 -0.00000000000E+00 -0.00000000000E+00 -0.74505805969E-08  0.93827000000E+00  0.93827000000E+00 0.  1.
     999902    2    1    2    0    0  0.97686914270E-02  0.84778506386E-02  0.83778282973E-02  0.10285193125E+01  0.10284038539E+01 0.  0.
     999903    2    3    3    0    0  0.10981383921E+00 -0.60619321495E-01  0.41225632857E-01  0.13955225510E+00  0.45182935719E-01 0.  0.
         14    1    1    2    0    0 -0.97686914270E-02 -0.84778506386E-02 -0.83778282973E-02  0.15410687546E-01  0.00000000000E+00 0.  1.
     999901    1    3    3    0    0 -0.10004514778E+00  0.69097172133E-01 -0.32847804559E-01  0.88896705735E+00  0.88000000000E+00 0.  1.
        -11    1    4    4    0    0  0.53196423559E-01 -0.51789364703E-01  0.11940273653E-01  0.75198597272E-01  0.51100000000E-03 0. -1.
         11    1    4    4    0    0  0.56617415648E-01 -0.88299567919E-02  0.29285359204E-01  0.64353657832E-01  0.51100000000E-03 0.  1.
</event>
<event>
 8    1  0.1993226E+004  0.1043930E+01  0.7957747E-01            NaN
         13   -1    0    0    0    0  0.00000000000E+00  0.00000000000E+00  0.74505805969E-08  0.10566000000E+00  0.10566000000E+00 0. -1.
     999900   -1    0    0    0    0 -0.00000000000E+00 -0.00000000000E+00 -0.74505805969E-08  0.93827000000E+00  0.93827000000E+00 0. -1.
     999902    2    1    2    0    0  0.58276477071E-03 -0.14649961379E-01  0.23524115212E-02  0.10290809319E+01  0.10289737944E+01 0.  0.
     999903    2    3    3    0    0 -0.44174753701E-01  0.79718112417E-01  0.93691532249E-01  0.13820978310E+00  0.44916084162E-01 0.  0.
         14    1    1    2    0    0 -0.58276477071E-03  0.14649961379E-01 -0.23524115212E-02  0.14849068091E-01  0.00000000000E+00 0. -1.
     999901    1    3    3    0    0  0.44757518472E-01 -0.94368073796E-01 -0.91339120728E-01  0.89087114881E+00  0.88000000000E+00 0. -1.
        -11    1    4    4    0    0 -0.17865374791E-01  0.44763636477E-01  0.78073755651E-01  0.91753622324E-01  0.51100000000E-03 0.  1.
         11    1    4    4    0    0 -0.26309378911E-01  0.34954475939E-01  0.15617776598E-01  0.46456160773E-01  0.51100000000E-03 0. -1.
</event>
<event>
 7    1  0.1993226E+004  0.1043930E+01  0.7957747E-01            NaN
         13   -1    0    0    0    0  0.00000000000E+00  0.00000000000E+00  0.74505805969E-08  0.10566000000E+00  0.10566000000E+00 0. -1.
     999900   -1    0    0    0    0 -0.00000000000E+00 -0.00000000000E+00 -0.74505805969E-08  0.93827000000E+00  0.93827000000E+00 0.  1.
     999903    2    1    2    0    0  0.84503741812E-01 -0.80377806261E-01  0.15967113352E-01  0.12565253468E+00  0.43956076302E-01 0.  0.
         14    1    1    2    0    0 -0.23861859354E-02 -0.19054591663E-01 -0.21545305312E-01  0.28861246123E-01  0.00000000000E+00 0.  1.
     999901    1    1    2    0    0 -0.82117555877E-01  0.99432397924E-01  0.55781919599E-02  0.88941621919E+00  0.88000000000E+00 0. -1.
        -11    1    3    3    0    0  0.52640633314E-01 -0.19951190691E-01  0.60316460973E-02  0.56619150129E-01  0.51100000000E-03 0. -1.
         11    1    3    3    0    0  0.31863108498E-01 -0.60426615570E-01  0.99354672549E-02  0.69033384554E-01  0.51100000000E-03 0.  1.
</event>
<event>
 8    1  0.1993226E+004  0.1043930E+01  0.7957747E-01            NaN
         13   -1    0    0    0    0  0.00000000000E+00  0.00000000000E+00  0.74505805969E-08  0.10566000000E+00  0.10566000000E+00 0. -1.
     999900   -1    0    0    0    0 -0.00000000000E+00 -0.00000000000E+00 -0.74505805969E-08  0.93827000000E+00  0.93827000000E+00 0.  1.
     999902    2    1    2    0    0  0.11054388212E-01  0.89087010214E-02 -0.98495575567E-03  0.10296985352E+01  0.10296001840E+01 0.  0.
     999903    2    3    3    0    0  0.46859050788E-01  0.78183251401E-01  0.97137108891E-01  0.14081784761E+00  0.45668992122E-01 0.  0.
         14    1    1    2    0    0 -0.11054388212E-01 -0.89087010214E-02  0.98495575567E-03  0.14231464804E-01  0.00000000000E+00 0. -1.
     999901    1    3    3    0    0 -0.35804662577E-01 -0.69274550379E-01 -0.98122064647E-01  0.88888068759E+00  0.88000000000E+00 0.  1.
        -11    1    4    4    0    0  0.41825547545E-02  0.46464744644E-01  0.31270783292E-01  0.56165730368E-01  0.51100000000E-03 0. -1.
         11    1    4    4    0    0  0.42676496034E-01  0.31718506757E-01  0.65866325599E-01  0.84652117242E-01  0.51100000000E-03 0.  1.
</event>
<event>
 8    1  0.1993226E+004  0.1043930E+01  0.7957747E-01            NaN
         13   -1    0    0    0    0  0.00000000000E+00  0.00000000000E+00  0.74505805969E-08  0.10566000000E+00  0.10566000000E+00 0. -1.
     999900   -1    0    0    0    0 -0.00000000000E+00 -0.00000000000E+00 -0.74505805969E-08  0.93827000000E+00  0.93827000000E+00 0.  1.
     999902    2    1    2    0    0  0.16705453960E-02  0.10605361753E-01 -0.91428341746E-02  0.10298283747E+01  0.10297318221E+01 0.  0.
     999903    2    3    3    0    0 -0.31054684837E-01  0.62809007902E-01  0.10870272198E+00  0.13983751154E+00  0.53187244198E-01 0.  0.
         14    1    1    2    0    0 -0.16705453960E-02 -0.10605361753E-01  0.91428341746E-02  0.14101625317E-01  0.00000000000E+00 0. -1.
     999901    1    3    3    0    0  0.32725230233E-01 -0.52203646149E-01 -0.11784555615E+00  0.88999086314E+00  0.88000000000E+00 0.  1.
        -11    1    4    4    0    0 -0.34045760542E-01  0.17646183220E-01  0.28637937462E-01  0.47863286308E-01  0.51100000000E-03 0.  1.
         11    1    4    4    0    0  0.29910757055E-02  0.45162824682E-01  0.80064784517E-01  0.91974225236E-01  0.51100000000E-03 0. -1.
</event>
<event>
 8    1  0.1993226E+004  0.1043930E+01  0.7957747E-01            NaN
         13   -1    0    0    0    0  0.00000000000E+00  0.00000000000E+00  0.74505805969E-08  0.10566000000E+00  0.10566000000E+00 0.  1.
     999900   -1    0    0    0    0 -0.00000000000E+00 -0.00000000000E+00 -0.74505805969E-08  0.93827000000E+00  0.93827000000E+00 0.  1.
     999902    2    1    2    0    0 -0.21610127900E-02  0.11476776030E-01  0.69520801901E-02  0.10303389079E+01  0.10302492647E+01 0.  0.
     999903    2    3    3    0    0  0.85032591933E-01  0.10165498054E+00 -0.17249738634E-01  0.14111421120E+00  0.45292277045E-01 0.  0.
         14    1    1    2    0    0  0.21610127900E-02 -0.11476776030E-01 -0.69520801901E-02  0.13591092057E-01  0.00000000000E+00 0. -1.
     999901    1    3    3    0    0 -0.87193604723E-01 -0.90178204505E-01  0.24201818824E-01  0.88922469675E+00  0.88000000000E+00 0.  1.
        -11    1    4    4    0    0  0.43920835863E-01  0.84510158501E-01 -0.76866566149E-02  0.95552878155E-01  0.51100000000E-03 0. -1.
         11    1    4    4    0    0  0.41111756070E-01  0.17144822034E-01 -0.95630820187E-02  0.45561333040E-01  0.51100000000E-03 0.  1.
</event>
<event>
 8    1  0.1993226E+004  0.1043930E+01  0.7957747E-01            NaN
         13   -1    0    0    0    0  0.00000000000E+00  0.00000000000E+00  0.74505805969E-08  0.10566000000E+00  0.10566000000E+00 0.  1.
     999900   -1    0    0    0    0 -0.00000000000E+00 -0.00000000000E+00 -0.74505805969E-08  0.93827000000E+00  0.93827000000E+00 0.  1.
     999902    2    1    2    0    0  0.58131103580E-02  0.15695876141E-01  0.86257292183E-02  0.10251003430E+01  0.10249273912E+01 0.  0.
     999903    2    3    3    0    0 -0.10568725204E+00  0.72160772659E-01 -0.14462447942E-01  0.13596948685E+00  0.43606955873E-01 0.  0.
         14    1    1    2    0    0 -0.58131103580E-02 -0.15695876141E-01 -0.86257292183E-02  0.18829657044E-01  0.00000000000E+00 0.  1.
     999901    1    3    3    0    0  0.11150036239E+00 -0.56464896518E-01  0.23088177160E-01  0.88913085610E+00  0.88000000000E+00 0. -1.
        -11    1    4    4    0    0 -0.45152556905E-01  0.56626944419E-01 -0.34516918881E-02  0.72508892746E-01  0.51100000000E-03 0. -1.
         11    1    4    4    0    0 -0.60534695131E-01  0.15533828240E-01 -0.11010756054E-01  0.63460594106E-01  0.51100000000E-03 0.  1.
</event>
<event>
 8    1  0.1993226E+004  0.1043930E+01  0.7957747E-01            NaN
         13   -1    0    0    0    0  0.00000000000E+00  0.00000000000E+00  0.74505805969E-08  0.10566000000E+00  0.10566000000E+00 0. -1.
     999900   -1    0    0    0    0 -0.00000000000E+00 -0.00000000000E+00 -0.74505805969E-08  0.93827000000E+00  0.93827000000E+00 0. -1.
     999902    2    1    2    0    0  0.33465550139E-03 -0.12204014555E-01 -0.26592516328E-02  0.10314351377E+01  0.10313594532E+01 0.  0.
     999903    2    3    3    0    0  0.76901119486E-01  0.24226926933E-01  0.10644285809E+00  0.14065294922E+00  0.44186467613E-01 0.  0.
         14    1    1    2    0    0 -0.33465550139E-03  0.12204014555E-01  0.26592516328E-02  0.12494862336E-01  0.00000000000E+00 0. -1.
     999901    1    3    3    0    0 -0.76566463984E-01 -0.36430941488E-01 -0.10910210972E+00  0.89078218844E+00  0.88000000000E+00 0. -1.
        -11    1    4    4    0    0  0.84293181633E-02  0.13346399330E-01  0.46127454896E-01  0.48756363646E-01  0.51100000000E-03 0.  1.
         11    1    4    4    0    0  0.68471801322E-01  0.10880527603E-01  0.60315403189E-01  0.91896585573E-01  0.51100000000E-03 0. -1.
</event>
<event>
 8    1  0.1993226E+004  0.1043930E+01  0.7957747E-01            NaN
         13   -1    0    0    0    0  0.00000000000E+00  0.00000000000E+00  0.74505805969E-08  0.10566000000E+00  0.10566000000E+00 0.  1.
     999900   -1    0    0    0    0 -0.00000000000E+00 -0.00000000000E+00 -0.74505805969E-08  0.93827000000E+00  0.93827000000E+00 0.  1.
     999902    2    1    2    0    0 -0.84008633019E-02  0.12145673550E-01 -0.13442488605E-02  0.10291010117E+01  0.10289941658E+01 0.  0.
     999903    2    3    3    0    0 -0.91603214102E-01 -0.13177531576E-01 -0.94965657715E-01  0.13987164637E+00  0.44506237100E-01 0.  0.
         14    1    1    2    0    0  0.84008633019E-02 -0.12145673550E-01  0.13442488605E-02  0.14828988341E-01  0.00000000000E+00 0. -1.
     999901    1    3    3    0    0  0.83202350800E-01  0.25323205126E-01  0.93621408855E-01  0.88922936529E+00  0.88000000000E+00 0. -1.
        -11    1    4    4    0    0 -0.47967906707E-01 -0.27356423293E-01 -0.63923456826E-01  0.84473448035E-01  0.51100000000E-03 0.  1.
         11    1    4    4    0    0 -0.43635307394E-01  0.14178891718E-01 -0.31042200889E-01  0.55398198335E-01  0.51100000000E-03 0. -1.
</event>
<event>
 8    1  0.1993226E+004  0.1043930E+01  0.7957747E-01            NaN
         13   -1    0    0    0    0  0.00000000000E+00  0.00000000000E+00  0.74505805969E-08  0.10566000000E+00  0.10566000000E+00 0.  1.
     999900   -1    0    0    0    0 -0.00000000000E+00 -0.00000000000E+00 -0.74505805969E-08  0.93827000000E+00  0.93827000000E+00 0.  1.
     999902    2    1    2    0    0  0.10923745010E-01  0.73673004219E-02 -0.59958615403E-02  0.10294539620E+01  0.10293521770E+01 0.  0.
     999903    2    3    3    0    0 -0.11203433107E+00 -0.65125212184E-01 -0.93084858252E-02  0.13794690856E+00  0.46365041491E-01 0.  0.
         14    1    1    2    0    0 -0.10923745010E-01 -0.73673004219E-02  0.59958615403E-02  0.14476037999E-01  0.00000000000E+00 0. -1.
     999901    1    3    3    0    0  0.12295807608E+00  0.72492512606E-01  0.33126242849E-02  0.89150705344E+00  0.88000000000E+00 0.  1.
        -11    1    4    4    0    0 -0.75285619996E-01 -0.31228994091E-01  0.14139677022E-01  0.82724641054E-01  0.51100000000E-03 0.  1.
         11    1    4    4    0    0 -0.36748711073E-01 -0.33896218093E-01 -0.23448162847E-01  0.55222267505E-01  0.51100000000E-03 0. -1.
</event>
<event>
 8    1  0.1993226E+004  0.1043930E+01  0.7957747E-01            NaN
         13   -1    0    0    0    0  0.00000000000E+00  0.00000000000E+00  0.74505805969E-08  0.10566000000E+00  0.10566000000E+00 0.  1.
     999900   -1    0    0    0    0 -0.00000000000E+00 -0.00000000000E+00 -0.74505805969E-08  0.93827000000E+00  0.93827000000E+00 0.  1.
     999902    2    1    2    0    0 -0.10839386627E-01 -0.74907659468E-02 -0.29137857133E-02  0.10304357781E+01  0.10303474166E+01 0.  0.
     999903    2    3    3    0    0 -0.31573227187E-01 -0.12934116777E+00 -0.21219730018E-01  0.14160929327E+00  0.43323303709E-01 0.  0.
         14    1    1    2    0    0  0.10839386627E-01  0.74907659468E-02  0.29137857133E-02  0.13494221879E-01  0.00000000000E+00 0.  1.
     999901    1    3    3    0    0  0.20733840559E-01  0.12185040182E+00  0.18305944305E-01  0.88882648485E+00  0.88000000000E+00 0. -1.
        -11    1    4    4    0    0 -0.35928033574E-01 -0.59615942914E-01 -0.43757817606E-02  0.69744482456E-01  0.51100000000E-03 0.  1.
         11    1    4    4    0    0  0.43548063877E-02 -0.69725224857E-01 -0.16843948258E-01  0.71864810818E-01  0.51100000000E-03 0. -1.
</event>
<event>
 8    1  0.1993226E+004  0.1043930E+01  0.7957747E-01            NaN
         13   -1    0    0    0    0  0.00000000000E+00  0.00000000000E+00  0.74505805969E-08  0.10566000000E+00  0.10566000000E+00 0. -1.
     999900   -1    0    0    0    0 -0.00000000000E+00 -0.00000000000E+00 -0.74505805969E-08  0.93827000000E+00  0.93827000000E+00 0. -1.
     999902    2    1    2    0    0 -0.12176047611E-01 -0.11783738731E-01 -0.17664682453E-02  0.10268937726E+01  0.10267524469E+01 0.  0.
     999903    2    3    3    0    0  0.66054127504E-01 -0.75609842964E-01 -0.82339245895E-01  0.13746378414E+00  0.45128089053E-01 0.  0.
         14    1    1    2    0    0  0.12176047611E-01  0.11783738731E-01  0.17664682453E-02  0.17036227398E-01  0.00000000000E+00 0. -1.
     999901    1    3    3    0    0 -0.78230175115E-01  0.63826104233E-01  0.80572777650E-01  0.88942998846E+00  0.88000000000E+00 0. -1.
        -11    1    4    4    0    0  0.18099359851E-01 -0.54052385206E-01 -0.49295221319E-01  0.75362637556E-01  0.51100000000E-03 0. -1.
         11    1    4    4    0    0  0.47954767653E-01 -0.21557457758E-01 -0.33044024576E-01  0.62101146582E-01  0.51100000000E-03 0.  1.
</event>
<event>
 8    1  0.1993226E+004  0.1043930E+01  0.7957747E-01            NaN
         13   -1    0    0    0    0  0.00000000000E+00  0.00000000000E+00  0.74505805969E-08  0.10566000000E+00  0.10566000000E+00 0.  1.
     999900   -1    0    0    0    0 -0.00000000000E+00 -0.00000000000E+00 -0.74505805969E-08  0.93827000000E+00  0.93827000000E+00 0. -1.
     999902    2    1    2    0    0  0.67104358733E-02 -0.11802533006E-01  0.27736420446E-02  0.10300727699E+01  0.10299795573E+01 0.  0.
     999903    2    3    3    0    0  0.10346217149E+00 -0.13858285752E-01 -0.82648157553E-01  0.14065610250E+00  0.45353590910E-01 0.  0.
         14    1    1    2    0    0 -0.67104358733E-02  0.11802533006E-01 -0.27736420446E-02  0.13857230068E-01  0.00000000000E+00 0. -1.
     999901    1    3    3    0    0 -0.96751735621E-01  0.20557527460E-02  0.85421799597E-01  0.88941666744E+00  0.88000000000E+00 0.  1.
        -11    1    4    4    0    0  0.27373461639E-01 -0.73236314418E-02 -0.50263703572E-01  0.57703058821E-01  0.51100000000E-03 0.  1.
         11    1    4    4    0    0  0.76088709855E-01 -0.65346543102E-02 -0.32384453981E-01  0.82953043676E-01  0.51100000000E-03 0. -1.
</event>
<event>
 8    1  0.1993226E+004  0.1043930E+01  0.7957747E-01            NaN
         13   -1    0    0    0    0  0.00000000000E+00  0.00000000000E+00  0.74505805969E-08  0.10566000000E+00  0.10566000000E+00 0.  1.
     999900   -1    0    0    0    0 -0.00000000000E+00 -0.00000000000E+00 -0.74505805969E-08  0.93827000000E+00  0.93827000000E+00 0.  1.
     999902    2    1    2    0    0  0.12724036146E-01  0.36354997125E-02 -0.61127020412E-03  0.10306826755E+01  0.10305975384E+01 0.  0.
     999903    2    3    3    0    0 -0.16320165133E-01 -0.10407641723E+00 -0.82557032201E-01  0.13986253063E+00  0.40590830181E-01 0.  0.
         14    1    1    2    0    0 -0.12724036146E-01 -0.36354997125E-02  0.61127020412E-03  0.13247324457E-01  0.00000000000E+00 0.  1.
     999901    1    3    3    0    0  0.29044201279E-01  0.10771191694E+00  0.81945761996E-01  0.89082014492E+00  0.88000000000E+00 0. -1.
        -11    1    4    4    0    0 -0.92309832621E-02 -0.34385040819E-01 -0.52953824063E-01  0.63811524727E-01  0.51100000000E-03 0. -1.
         11    1    4    4    0    0 -0.70891818712E-02 -0.69691376409E-01 -0.29603208137E-01  0.76051005900E-01  0.51100000000E-03 0.  1.
</event>
<event>
 8    1  0.1993226E+004  0.1043930E+01  0.7957747E-01            NaN
         13   -1    0    0    0    0  0.00000000000E+00  0.00000000000E+00  0.74505805969E-08  0.10566000000E+00  0.10566000000E+00 0. -1.
     999900   -1    0    0    0    0 -0.00000000000E+00 -0.00000000000E+00 -0.74505805969E-08  0.93827000000E+00  0.93827000000E+00 0. -1.
     999902    2    1    2    0    0 -0.40776627425E-04 -0.99118251983E-02  0.99753584010E-02  0.10298675067E+01  0.10297714930E+01 0.  0.
     999903    2    3    3    0    0  0.11315201014E-02 -0.34717738392E-01 -0.12709928973E+00  0.13890950169E+00  0.43988845310E-01 0.  0.
         14    1    1    2    0    0  0.40776627425E-04  0.99118251983E-02 -0.99753584010E-02  0.14062493261E-01  0.00000000000E+00 0. -1.
     999901    1    3    3    0    0 -0.11722967288E-02  0.24805913194E-01  0.13707464813E+00  0.89095800505E+00  0.88000000000E+00 0.  1.
        -11    1    4    4    0    0 -0.13946100829E-01 -0.34937128114E-01 -0.65946924366E-01  0.75923346894E-01  0.51100000000E-03 0.  1.
         11    1    4    4    0    0  0.15077620931E-01  0.21938972186E-03 -0.61152365364E-01  0.62986154791E-01  0.51100000000E-03 0. -1.
</event>
<event>
 8    1  0.1993226E+004  0.1043930E+01  0.7957747E-01            NaN
         13   -1    0    0    0    0  0.00000000000E+00  0.00000000000E+00  0.74505805969E-08  0.10566000000E+00  0.10566000000E+00 0. -1.
     999900   -1    0    0    0    0 -0.00000000000E+00 -0.00000000000E+00 -0.74505805969E-08  0.93827000000E+00  0.93827000000E+00 0. -1.
     999902    2    1    2    0    0  0.35026755040E-03 -0.11563616270E-01 -0.59641761100E-02  0.10309141902E+01  0.10308320213E+01 0.  0.
     999903    2    3    3    0    0  0.21370940063E-01 -0.69282057489E-01 -0.11380890623E+00  0.14220514165E+00  0.44867745689E-01 0.  0.
         14    1    1    2    0    0 -0.35026755040E-03  0.11563616270E-01  0.59641761100E-02  0.13015809820E-01  0.00000000000E+00 0. -1.
     999901    1    3    3    0    0 -0.21020672513E-01  0.57718441219E-01  0.10784473012E+00  0.88870904853E+00  0.88000000000E+00 0.  1.
        -11    1    4    4    0    0 -0.15396535136E-02 -0.49072100489E-01 -0.93223458309E-01  0.10536278223E+00  0.51100000000E-03 0. -1.
         11    1    4    4    0    0  0.22910593577E-01 -0.20209957000E-01 -0.20585447926E-01  0.36842359415E-01  0.51100000000E-03 0.  1.
</event>
<event>
 8    1  0.1993226E+004  0.1043930E+01  0.7957747E-01            NaN
         13   -1    0    0    0    0  0.00000000000E+00  0.00000000000E+00  0.74505805969E-08  0.10566000000E+00  0.10566000000E+00 0.  1.
     999900   -1    0    0    0    0 -0.00000000000E+00 -0.00000000000E+00 -0.74505805969E-08  0.93827000000E+00  0.93827000000E+00 0. -1.
     999902    2    1    2    0    0 -0.35630717833E-02  0.93008514828E-02 -0.93729071313E-02  0.10302532786E+01  0.10301624947E+01 0.  0.
     999903    2    3    3    0    0 -0.41164190680E-01  0.12587151002E+00 -0.20739165368E-01  0.14169728469E+00  0.45933428770E-01 0.  0.
         14    1    1    2    0    0  0.35630717833E-02 -0.93008514828E-02  0.93729071313E-02  0.13676721352E-01  0.00000000000E+00 0.  1.
     999901    1    3    3    0    0  0.37601118896E-01 -0.11657065854E+00  0.11366258236E-01  0.88855599396E+00  0.88000000000E+00 0. -1.
        -11    1    4    4    0    0 -0.13264562323E-01  0.81157205560E-01 -0.31212667070E-01  0.87959833644E-01  0.51100000000E-03 0.  1.
         11    1    4    4    0    0 -0.27899628357E-01  0.44714304462E-01  0.10473501703E-01  0.53737451045E-01  0.51100000000E-03 0. -1.
</event>
<event>
 8    1  0.1993226E+004  0.1043930E+01  0.7957747E-01            NaN
         13   -1    0    0    0    0  0.00000000000E+00  0.00000000000E+00  0.74505805969E-08  0.10566000000E+00  0.10566000000E+00 0. -1.
     999900   -1    0    0    0    0 -0.00000000000E+00 -0.00000000000E+00 -0.74505805969E-08  0.93827000000E+00  0.93827000000E+00 0.  1.
     999902    2    1    2    0    0  0.86486780217E-02  0.41940591698E-02  0.96702497607E-02  0.10302953568E+01  0.10302051343E+01 0.  0.
     999903    2    3    3    0    0 -0.43065778955E-01 -0.11550266673E+00 -0.34453893144E-01  0.13959415484E+00  0.55712924654E-01 0.  0.
         14    1    1    2    0    0 -0.86486780217E-02 -0.41940591698E-02 -0.96702497607E-02  0.13634643166E-01  0.00000000000E+00 0.  1.
     999901    1    3    3    0    0  0.51714456977E-01  0.11969672590E+00  0.44124142905E-01  0.89070120200E+00  0.88000000000E+00 0. -1.
        -11    1    4    4    0    0 -0.28447975143E-01 -0.16600763986E-01 -0.20105140536E-01  0.38592103488E-01  0.51100000000E-03 0.  1.
         11    1    4    4    0    0 -0.14617803813E-01 -0.98901902742E-01 -0.14348752608E-01  0.10100205135E+00  0.51100000000E-03 0. -1.
</event>
<event>
 8    1  0.1993226E+004  0.1043930E+01  0.7957747E-01            NaN
         13   -1    0    0    0    0  0.00000000000E+00  0.00000000000E+00  0.74505805969E-08  0.10566000000E+00  0.10566000000E+00 0. -1.
     999900   -1    0    0    0    0 -0.00000000000E+00 -0.00000000000E+00 -0.74505805969E-08  0.93827000000E+00  0.93827000000E+00 0.  1.
     999902    2    1    2    0    0  0.78789966443E-02 -0.41096989837E-02 -0.10180633892E-01  0.10304165430E+01  0.10303279277E+01 0.  0.
     999903    2    3    3    0    0 -0.34287962606E-01  0.19291480929E-01 -0.12812336185E+00  0.14123930827E+00  0.44554693702E-01 0.  0.
         14    1    1    2    0    0 -0.78789966443E-02  0.41096989837E-02  0.10180633892E-01  0.13513457008E-01  0.00000000000E+00 0. -1.
     999901    1    3    3    0    0  0.42166959250E-01 -0.23401179913E-01  0.11794272796E+00  0.88917723472E+00  0.88000000000E+00 0. -1.
        -11    1    4    4    0    0  0.21199139234E-02 -0.10216200931E-01 -0.41003075340E-01  0.42312859805E-01  0.51100000000E-03 0.  1.
         11    1    4    4    0    0 -0.36407876529E-01  0.29507681860E-01 -0.87120286514E-01  0.98926448463E-01  0.51100000000E-03 0. -1.
</event>
<event>
 8    1  0.1993226E+004  0.1043930E+01  0.7957747E-01            NaN
         13   -1    0    0    0    0  0.00000000000E+00  0.00000000000E+00  0.74505805969E-08  0.10566000000E+00  0.10566000000E+00 0. -1.
     999900   -1    0    0    0    0 -0.00000000000E+00 -0.00000000000E+00 -0.74505805969E-08  0.93827000000E+00  0.93827000000E+00 0.  1.
     999902    2    1    2    0    0  0.12429314394E-01 -0.35012396295E-02  0.35149404701E-02  0.10305471251E+01  0.10304602252E+01 0.  0.
     999903    2    3    3    0    0 -0.70015962930E-01  0.90809057123E-01  0.64121985039E-01  0.13961229597E+00  0.47238165718E-01 0.  0.
         14    1    1    2    0    0 -0.12429314394E-01  0.35012396295E-02 -0.35149404701E-02  0.13382874944E-01  0.00000000000E+00 0.  1.
     999901    1    3    3    0    0  0.82445277324E-01 -0.94310296752E-01 -0.60607044569E-01  0.89093482909E+00  0.88000000000E+00 0.  1.
        -11    1    4    4    0    0 -0.49870444965E-01  0.42362965144E-01  0.13727126853E-01  0.66860879664E-01  0.51100000000E-03 0. -1.
         11    1    4    4    0    0 -0.20145517965E-01  0.48446091978E-01  0.50394858186E-01  0.72751416307E-01  0.51100000000E-03 0.  1.
</event>
<event>
 8    1  0.1993226E+004  0.1043930E+01  0.7957747E-01            NaN
         13   -1    0    0    0    0  0.00000000000E+00  0.00000000000E+00  0.74505805969E-08  0.10566000000E+00  0.10566000000E+00 0.  1.
     999900   -1    0    0    0    0 -0.00000000000E+00 -0.00000000000E+00 -0.74505805969E-08  0.93827000000E+00  0.93827000000E+00 0. -1.
     999902    2    1    2    0    0 -0.25098190710E-02  0.27640039423E-02  0.13129628345E-01  0.10302798700E+01  0.10301894410E+01 0.  0.
     999903    2    3    3    0    0 -0.49121780065E-01  0.72982696502E-01 -0.98334387611E-01  0.13925373873E+00  0.44525595976E-01 0.  0.
         14    1    1    2    0    0  0.25098190710E-02 -0.27640039423E-02 -0.13129628345E-01  0.13650130037E-01  0.00000000000E+00 0. -1.
     999901    1    3    3    0    0  0.46611960994E-01 -0.70218692560E-01  0.11146401596E+00  0.89102613124E+00  0.88000000000E+00 0. -1.
        -11    1    4    4    0    0 -0.33679611996E-02  0.44486259400E-01 -0.47308858561E-01  0.65028914011E-01  0.51100000000E-03 0.  1.
         11    1    4    4    0    0 -0.45753818865E-01  0.28496437102E-01 -0.51025529050E-01  0.74224824716E-01  0.51100000000E-03 0. -1.
</event>
<event>
 8    1  0.1993226E+004  0.1043930E+01  0.7957747E-01            NaN
         13   -1    0    0    0    0  0.00000000000E+00  0.00000000000E+00  0.74505805969E-08  0.10566000000E+00  0.10566000000E+00 0.  1.
     999900   -1    0    0    0    0 -0.00000000000E+00 -0.00000000000E+00 -0.74505805969E-08  0.93827000000E+00  0.93827000000E+00 0. -1.
     999902    2    1    2    0    0  0.95580228974E-02  0.10252365290E-02 -0.98571062097E-02  0.10301615776E+01  0.10300695640E+01 0.  0.
     999903    2    3    3    0    0  0.11990774514E+00 -0.24554008634E-01 -0.42570429381E-01  0.14229811938E+00  0.58785598909E-01 0.  0.
         14    1    1    2    0    0 -0.95580228974E-02 -0.10252365290E-02  0.98571062097E-02  0.13768422367E-01  0.00000000000E+00 0.  1.
     999901    1    3    3    0    0 -0.11034972224E+00  0.25579245163E-01  0.32713323171E-01  0.88786345825E+00  0.88000000000E+00 0. -1.
        -11    1    4    4    0    0  0.63236013584E-01  0.16818938584E-01 -0.16927054779E-01  0.67590357401E-01  0.51100000000E-03 0.  1.
         11    1    4    4    0    0  0.56671731551E-01 -0.41372947218E-01 -0.25643374601E-01  0.74707761983E-01  0.51100000000E-03 0. -1.
</event>
<event>
 7    1  0.1993226E+004  0.1043930E+01  0.7957747E-01            NaN
         13   -1    0    0    0    0  0.00000000000E+00  0.00000000000E+00  0.74505805969E-08  0.10566000000E+00  0.10566000000E+00 0. -1.
     999900   -1    0    0    0    0 -0.00000000000E+00 -0.00000000000E+00 -0.74505805969E-08  0.93827000000E+00  0.93827000000E+00 0.  1.
     999903    2    1    2    0    0  0.48051883999E-01  0.69040017783E-01  0.81986125525E-01  0.12693649794E+00  0.48121119255E-01 0.  0.
         14    1    1    2    0    0 -0.14536484572E-01  0.61979511643E-02 -0.27192085850E-01  0.31450493084E-01  0.00000000000E+00 0.  1.
     999901    1    1    2    0    0 -0.33515399427E-01 -0.75237968947E-01 -0.54794039675E-01  0.88554300898E+00  0.88000000000E+00 0. -1.
        -11    1    3    3    0    0  0.87692424525E-02 -0.48506492247E-03  0.30921717853E-01  0.32148851568E-01  0.51100000000E-03 0. -1.
         11    1    3    3    0    0  0.39282641546E-01  0.69525082706E-01  0.51064407672E-01  0.94787646368E-01  0.51100000000E-03 0.  1.
</event>
<event>
 8    1  0.1993226E+004  0.1043930E+01  0.7957747E-01            NaN
         13   -1    0    0    0    0  0.00000000000E+00  0.00000000000E+00  0.74505805969E-08  0.10566000000E+00  0.10566000000E+00 0.  1.
     999900   -1    0    0    0    0 -0.00000000000E+00 -0.00000000000E+00 -0.74505805969E-08  0.93827000000E+00  0.93827000000E+00 0. -1.
     999902    2    1    2    0    0  0.67590601853E-02  0.66735128122E-02  0.10118942090E-01  0.10300514678E+01  0.10299579664E+01 0.  0.
     999903    2    3    3    0    0  0.93553364064E-01 -0.46629824178E-01  0.83329034639E-01  0.14115652765E+00  0.45330617177E-01 0.  0.
         14    1    1    2    0    0 -0.67590601853E-02 -0.66735128122E-02 -0.10118942090E-01  0.13878532230E-01  0.00000000000E+00 0. -1.
     999901    1    3    3    0    0 -0.86794303879E-01  0.53303336990E-01 -0.73210092549E-01  0.88889494012E+00  0.88000000000E+00 0. -1.
        -11    1    4    4    0    0  0.14361281495E-01 -0.26286838902E-01  0.35416593655E-01  0.46387935206E-01  0.51100000000E-03 0.  1.
         11    1    4    4    0    0  0.79192082569E-01 -0.20342985276E-01  0.47912440984E-01  0.94768592443E-01  0.51100000000E-03 0. -1.
</event>
<event>
 8    1  0.1993226E+004  0.1043930E+01  0.7957747E-01            NaN
         13   -1    0    0    0    0  0.00000000000E+00  0.00000000000E+00  0.74505805969E-08  0.10566000000E+00  0.10566000000E+00 0.  1.
     999900   -1    0    0    0    0 -0.00000000000E+00 -0.00000000000E+00 -0.74505805969E-08  0.93827000000E+00  0.93827000000E+00 0.  1.
     999902    2    1    2    0    0  0.55739753132E-02  0.95894772955E-02  0.52504598926E-02  0.10316583007E+01  0.10315853114E+01 0.  0.
     999903    2    3    3    0    0 -0.11098271682E+00  0.43311781314E-01 -0.60026893052E-01  0.14093736284E+00  0.45464695309E-01 0.  0.
         14    1    1    2    0    0 -0.55739753132E-02 -0.95894772955E-02 -0.52504598926E-02  0.12271699339E-01  0.00000000000E+00 0.  1.
     999901    1    3    3    0    0  0.11655669214E+00 -0.33722304018E-01  0.65277352945E-01  0.89072093782E+00  0.88000000000E+00 0. -1.
        -11    1    4    4    0    0 -0.24900296644E-01  0.25730709597E-01 -0.24546242327E-02  0.35894017474E-01  0.51100000000E-03 0. -1.
         11    1    4    4    0    0 -0.86082420181E-01  0.17581071717E-01 -0.57572268820E-01  0.10504334536E+00  0.51100000000E-03 0.  1.
</event>
<event>
 8    1  0.1993226E+004  0.1043930E+01  0.7957747E-01            NaN
         13   -1    0    0    0    0  0.00000000000E+00  0.00000000000E+00  0.74505805969E-08  0.10566000000E+00  0.10566000000E+00 0.  1.
     999900   -1    0    0    0    0 -0.00000000000E+00 -0.00000000000E+00 -0.74505805969E-08  0.93827000000E+00  0.93827000000E+00 0. -1.
     999902    2    1    2    0    0 -0.16976982005E-01 -0.81043047923E-03 -0.83812817773E-02  0.10249795224E+01  0.10248043232E+01 0.  0.
     999903    2    3    3    0    0 -0.12177184909E+00  0.15114925949E-01  0.31767953313E-01  0.13770981022E+00  0.53832562219E-01 0.  0.
         14    1    1    2    0    0  0.16976982005E-01  0.81043047923E-03  0.83812817773E-02  0.18950477561E-01  0.00000000000E+00 0.  1.
     999901    1    3    3    0    0  0.10479486709E+00 -0.15925356428E-01 -0.40149235090E-01  0.88726971222E+00  0.88000000000E+00 0. -1.
        -11    1    4    4    0    0 -0.55529922713E-01  0.33206120195E-01  0.22043100303E-01  0.68354795932E-01  0.51100000000E-03 0. -1.
         11    1    4    4    0    0 -0.66241926379E-01 -0.18091194246E-01  0.97248530098E-02  0.69355014287E-01  0.51100000000E-03 0.  1.
</event>
<event>
 8    1  0.1993226E+004  0.1043930E+01  0.7957747E-01            NaN
         13   -1    0    0    0    0  0.00000000000E+00  0.00000000000E+00  0.74505805969E-08  0.10566000000E+00  0.10566000000E+00 0. -1.
     999900   -1    0    0    0    0 -0.00000000000E+00 -0.00000000000E+00 -0.74505805969E-08  0.93827000000E+00  0.93827000000E+00 0. -1.
     999902    2    1    2    0    0 -0.10961326533E-01  0.10538260709E-01  0.44013361446E-02  0.10281003639E+01  0.10279784925E+01 0.  0.
     999903    2    3    3    0    0 -0.25733232377E-01  0.41441222897E-01 -0.12160449775E+00  0.13846522948E+00  0.44781600013E-01 0.  0.
         14    1    1    2    0    0  0.10961326533E-01 -0.10538260709E-01 -0.44013361446E-02  0.15829636066E-01  0.00000000000E+00 0. -1.
     999901    1    3    3    0    0  0.14771905843E-01 -0.30902962188E-01  0.12600583389E+00  0.88963513445E+00  0.88000000000E+00 0.  1.
        -11    1    4    4    0    0  0.68080459499E-02  0.28296286808E-01 -0.72331676155E-01  0.77968979941E-01  0.51100000000E-03 0. -1.
         11    1    4    4    0    0 -0.32541278326E-01  0.13144936089E-01 -0.49272821593E-01  0.60496249542E-01  0.51100000000E-03 0.  1.
</event>
<event>
 8    1  0.1993226E+004  0.1043930E+01  0.7957747E-01            NaN
         13   -1    0    0    0    0  0.00000000000E+00  0.00000000000E+00  0.74505805969E-08  0.10566000000E+00  0.10566000000E+00 0.  1.
     999900   -1    0    0    0    0 -0.00000000000E+00 -0.00000000000E+00 -0.74505805969E-08  0.93827000000E+00  0.93827000000E+00 0. -1.
     999902    2    1    2    0    0 -0.94353555170E-02 -0.27494690356E-02 -0.98315536790E-02  0.10300287425E+01  0.10299349326E+01 0.  0.
     999903    2    3    3    0    0 -0.58872606084E-01  0.76022422566E-01  0.90460626513E-01  0.13946286950E+00  0.44959699078E-01 0.  0.
         14    1    1    2    0    0  0.94353555170E-02  0.27494690356E-02  0.98315536790E-02  0.13901257549E-01  0.00000000000E+00 0.  1.
     999901    1    3    3    0    0  0.49437250567E-01 -0.78771891601E-01 -0.10029218019E+00  0.89056587295E+00  0.88000000000E+00 0. -1.
        -11    1    4    4    0    0 -0.34308130841E-01  0.27883176180E-01  0.67612184173E-01  0.80784824846E-01  0.51100000000E-03 0.  1.
         11    1    4    4    0    0 -0.24564475244E-01  0.48139246385E-01  0.22848442340E-01  0.58678044658E-01  0.51100000000E-03 0. -1.
</event>
<event>
 8    1  0.1993226E+004  0.1043930E+01  0.7957747E-01            NaN
         13   -1    0    0    0    0  0.00000000000E+00  0.00000000000E+00  0.74505805969E-08  0.10566000000E+00  0.10566000000E+00 0. -1.
     999900   -1    0    0    0    0 -0.00000000000E+00 -0.00000000000E+00 -0.74505805969E-08  0.93827000000E+00  0.93827000000E+00 0.  1.
     999902    2    1    2    0    0  0.23149780263E-02  0.50800179548E-03 -0.14090535736E-01  0.10296415296E+01  0.10295423833E+01 0.  0.
     999903    2    3    3    0    0  0.65059161062E-01 -0.10225927684E+00  0.49962195789E-01  0.13913566298E+00  0.46613920330E-01 0.  0.
         14    1    1    2    0    0 -0.23149780263E-02 -0.50800179548E-03  0.14090535736E-01  0.14288470402E-01  0.00000000000E+00 0. -1.
     999901    1    3    3    0    0 -0.62744183036E-01  0.10276727863E+00 -0.64052731525E-01  0.89050586662E+00  0.88000000000E+00 0.  1.
        -11    1    4    4    0    0  0.42719048292E-01 -0.98050677731E-01  0.38508264317E-01  0.11367497540E+00  0.51100000000E-03 0.  1.
         11    1    4    4    0    0  0.22340112770E-01 -0.42085991039E-02  0.11453931472E-01  0.25460687582E-01  0.51100000000E-03 0. -1.
</event>
<event>
 8    1  0.1993226E+004  0.1043930E+01  0.7957747E-01            NaN
         13   -1    0    0    0    0  0.00000000000E+00  0.00000000000E+00  0.74505805969E-08  0.10566000000E+00  0.10566000000E+00 0. -1.
     999900   -1    0    0    0    0 -0.00000000000E+00 -0.00000000000E+00 -0.74505805969E-08  0.93827000000E+00  0.93827000000E+00 0.  1.
     999902    2    1    2    0    0 -0.81464972778E-02  0.12093033494E-01 -0.13125147142E-02  0.10292900010E+01  0.10291858804E+01 0.  0.
     999903    2    3    3    0    0 -0.78101216749E-01 -0.76220332045E-01  0.76625118827E-01  0.13869065893E+00  0.38135953685E-01 0.  0.
         14    1    1    2    0    0  0.81464972778E-02 -0.12093033494E-01  0.13125147142E-02  0.14639999039E-01  0.00000000000E+00 0. -1.
     999901    1    3    3    0    0  0.69954719471E-01  0.88313365540E-01 -0.77937633541E-01  0.89059934203E+00  0.88000000000E+00 0.  1.
        -11    1    4    4    0    0 -0.32714471774E-01 -0.11949055430E-01  0.11906961848E-01  0.36811050658E-01  0.51100000000E-03 0.  1.
         11    1    4    4    0    0 -0.45386744975E-01 -0.64271276615E-01  0.64718156979E-01  0.10187960827E+00  0.51100000000E-03 0. -1.
</event>
<event>
 8    1  0.1993226E+004  0.1043930E+01  0.7957747E-01            NaN
         13   -1    0    0    0    0  0.00000000000E+00  0.00000000000E+00  0.74505805969E-08  0.10566000000E+00  0.10566000000E+00 0.  1.
     999900   -1    0    0    0    0 -0.00000000000E+00 -0.00000000000E+00 -0.74505805969E-08  0.93827000000E+00  0.93827000000E+00 0. -1.
     999902    2    1    2    0    0 -0.57797523470E-02 -0.72355587337E-02 -0.10915777926E-01  0.10296152155E+01  0.10295157012E+01 0.  0.
     999903    2    3    3    0    0  0.10783933466E+00 -0.44054666435E-01 -0.63256726103E-01  0.14000602126E+00  0.45057040041E-01 0.  0.
         14    1    1    2    0    0  0.57797523470E-02  0.72355587337E-02  0.10915777926E-01  0.14314784494E-01  0.00000000000E+00 0.  1.
     999901    1    3    3    0    0 -0.11361908701E+00  0.36819107701E-01  0.52340948177E-01  0.88960919424E+00  0.88000000000E+00 0.  1.
        -11    1    4    4    0    0  0.48512431429E-01 -0.24717219196E-01 -0.50676456206E-02  0.54683992915E-01  0.51100000000E-03 0. -1.
         11    1    4    4    0    0  0.59326903234E-01 -0.19337447239E-01 -0.58189080482E-01  0.85322028349E-01  0.51100000000E-03 0.  1.
</event>
<event>
 8    1  0.1993226E+004  0.1043930E+01  0.7957747E-01            NaN
         13   -1    0    0    0    0  0.00000000000E+00  0.00000000000E+00  0.74505805969E-08  0.10566000000E+00  0.10566000000E+00 0. -1.
     999900   -1    0    0    0    0 -0.00000000000E+00 -0.00000000000E+00 -0.74505805969E-08  0.93827000000E+00  0.93827000000E+00 0.  1.
     999902    2    1    2    0    0  0.65598307913E-02 -0.79834519961E-02 -0.90093005611E-02  0.10302210838E+01  0.10301298691E+01 0.  0.
     999903    2    3    3    0    0  0.94615847379E-01  0.90848989689E-01 -0.22629979738E-01  0.14021701840E+00  0.44079459661E-01 0.  0.
         14    1    1    2    0    0 -0.65598307913E-02  0.79834519961E-02  0.90093005611E-02  0.13708916164E-01  0.00000000000E+00 0. -1.
     999901    1    3    3    0    0 -0.88056016587E-01 -0.98832441686E-01  0.13620679176E-01  0.89000406543E+00  0.88000000000E+00 0. -1.
        -11    1    4    4    0    0  0.23933200301E-01  0.44241250944E-02  0.57571347421E-02  0.25015528795E-01  0.51100000000E-03 0. -1.
         11    1    4    4    0    0  0.70682647078E-01  0.86424864595E-01 -0.28387114480E-01  0.11520148961E+00  0.51100000000E-03 0.  1.
</event>
<event>
 8    1  0.1993226E+004  0.1043930E+01  0.7957747E-01            NaN
         13   -1    0    0    0    0  0.00000000000E+00  0.00000000000E+00  0.74505805969E-08  0.10566000000E+00  0.10566000000E+00 0. -1.
     999900   -1    0    0    0    0 -0.00000000000E+00 -0.00000000000E+00 -0.74505805969E-08  0.93827000000E+00  0.93827000000E+00 0. -1.
     999902    2    1    2    0    0  0.11523799614E-01  0.75322791275E-02 -0.25460995789E-02  0.10299294354E+01  0.10298342712E+01 0.  0.
     999903    2    3    3    0    0 -0.73784726778E-01  0.10473267076E+00  0.33722791877E-01  0.13973794290E+00  0.44456133020E-01 0.  0.
         14    1    1    2    0    0 -0.11523799614E-01 -0.75322791275E-02  0.25460995789E-02  0.14000564613E-01  0.00000000000E+00 0. -1.
     999901    1    3    3    0    0  0.85308526393E-01 -0.97200391635E-01 -0.36268891456E-01  0.89019149249E+00  0.88000000000E+00 0. -1.
        -11    1    4    4    0    0 -0.43631457394E-01  0.28033636749E-01  0.35927323050E-02  0.51988053532E-01  0.51100000000E-03 0.  1.
         11    1    4    4    0    0 -0.30153269385E-01  0.76699034014E-01  0.30130059572E-01  0.87749889368E-01  0.51100000000E-03 0. -1.
</event>
<event>
 8    1  0.1993226E+004  0.1043930E+01  0.7957747E-01            NaN
         13   -1    0    0    0    0  0.00000000000E+00  0.00000000000E+00  0.74505805969E-08  0.10566000000E+00  0.10566000000E+00 0. -1.
     999900   -1    0    0    0    0 -0.00000000000E+00 -0.00000000000E+00 -0.74505805969E-08  0.93827000000E+00  0.93827000000E+00 0.  1.
     999902    2    1    2    0    0  0.11046911628E-01  0.64093948106E-02 -0.36481194250E-02  0.10306475539E+01  0.10305619618E+01 0.  0.
     999903    2    3    3    0    0 -0.76622519566E-01 -0.75030029472E-01  0.76438834419E-01  0.13894568157E+00  0.44300013448E-01 0.  0.
         14    1    1    2    0    0 -0.11046911628E-01 -0.64093948106E-02  0.36481194250E-02  0.13282446074E-01  0.00000000000E+00 0. -1.
     999901    1    3    3    0    0  0.87669431195E-01  0.81439424282E-01 -0.80086953844E-01  0.89170187236E+00  0.88000000000E+00 0.  1.
        -11    1    4    4    0    0 -0.10714048731E-02 -0.25770704292E-01  0.18523923720E-01  0.31759628133E-01  0.51100000000E-03 0. -1.
         11    1    4    4    0    0 -0.75551114693E-01 -0.49259325179E-01  0.57914910699E-01  0.10718605343E+00  0.51100000000E-03 0.  1.
</event>
<event>
 8    1  0.1993226E+004  0.1043930E+01  0.7957747E-01            NaN
         13   -1    0    0    0    0  0.00000000000E+00  0.00000000000E+00  0.74505805969E-08  0.10566000000E+00  0.10566000000E+00 0.  1.
     999900   -1    0    0    0    0 -0.00000000000E+00 -0.00000000000E+00 -0.74505805969E-08  0.93827000000E+00  0.93827000000E+00 0. -1.
     999902    2    1    2    0    0  0.13312919865E-01  0.28986892681E-02 -0.22845481535E-02  0.10301149577E+01  0.10300223156E+01 0.  0.
     999903    2    3    3    0    0 -0.35369275432E-01  0.11958914851E+00  0.44263988227E-01  0.13986028305E+00  0.45266411757E-01 0.  0.
         14    1    1    2    0    0 -0.13312919865E-01 -0.28986892681E-02  0.22845481535E-02  0.13815042348E-01  0.00000000000E+00 0.  1.
     999901    1    3    3    0    0  0.48682195297E-01 -0.11669045925E+00 -0.46548536381E-01  0.89025467461E+00  0.88000000000E+00 0. -1.
        -11    1    4    4    0    0 -0.22535760773E-01  0.15087111372E-01  0.55953700919E-02  0.27695680721E-01  0.51100000000E-03 0.  1.
         11    1    4    4    0    0 -0.12833514659E-01  0.10450203714E+00  0.38668618135E-01  0.11216460233E+00  0.51100000000E-03 0. -1.
</event>
<event>
 8    1  0.1993226E+004  0.1043930E+01  0.7957747E-01            NaN
         13   -1    0    0    0    0  0.00000000000E+00  0.00000000000E+00  0.74505805969E-08  0.10566000000E+00  0.10566000000E+00 0.  1.
     999900   -1    0    0    0    0 -0.00000000000E+00 -0.00000000000E+00 -0.74505805969E-08  0.93827000000E+00  0.93827000000E+00 0. -1.
     999902    2    1    2    0    0  0.69852695191E-03  0.68430929467E-02  0.11897437067E-01  0.10301871884E+01  0.10300955190E+01 0.  0.
     999903    2    3    3    0    0  0.45256597923E-02 -0.99613319625E-01 -0.85128482812E-01  0.13846882266E+00  0.44536066516E-01 0.  0.
         14    1    1    2    0    0 -0.69852695191E-03 -0.68430929467E-02 -0.11897437067E-01  0.13742811566E-01  0.00000000000E+00 0. -1.
     999901    1    3    3    0    0 -0.38271328404E-02  0.10645641257E+00  0.97025919879E-01  0.89171836577E+00  0.88000000000E+00 0.  1.
        -11    1    4    4    0    0  0.74013824474E-02 -0.31377624923E-01 -0.55144175029E-01  0.63878611198E-01  0.51100000000E-03 0.  1.
         11    1    4    4    0    0 -0.28757226551E-02 -0.68235694703E-01 -0.29984307784E-01  0.74590211466E-01  0.51100000000E-03 0. -1.
</event>
<event>
 8    1  0.1993226E+004  0.1043930E+01  0.7957747E-01            NaN
         13   -1    0    0    0    0  0.00000000000E+00  0.00000000000E+00  0.74505805969E-08  0.10566000000E+00  0.10566000000E+00 0. -1.
     999900   -1    0    0    0    0 -0.00000000000E+00 -0.00000000000E+00 -0.74505805969E-08  0.93827000000E+00  0.93827000000E+00 0. -1.
     999902    2    1    2    0    0 -0.17319455538E-02  0.32044117875E-02  0.12771960479E-01  0.10306487777E+01  0.10305632015E+01 0.  0.
     999903    2    3    3    0    0  0.10543695226E+00 -0.59922121143E-01  0.55290182855E-01  0.14088592672E+00  0.45653351731E-01 0.  0.
         14    1    1    2    0    0  0.17319455538E-02 -0.32044117875E-02 -0.12771960479E-01  0.13281222262E-01  0.00000000000E+00 0.  1.
     999901    1    3    3    0    0 -0.10716889781E+00  0.63126532931E-01 -0.42518222376E-01  0.88976285102E+00  0.88000000000E+00 0. -1.
        -11    1    4    4    0    0  0.73974235513E-01 -0.28404220000E-01  0.54802913695E-01  0.96346290556E-01  0.51100000000E-03 0. -1.
         11    1    4    4    0    0  0.31462716743E-01 -0.31517901144E-01  0.48726916034E-03  0.44539636164E-01  0.51100000000E-03 0.  1.
</event>
<event>
 8    1  0.1993226E+004  0.1043930E+01  0.7957747E-01            NaN
         13   -1    0    0    0    0  0.00000000000E+00  0.00000000000E+00  0.74505805969E-08  0.10566000000E+00  0.10566000000E+00 0. -1.
     999900   -1    0    0    0    0 -0.00000000000E+00 -0.00000000000E+00 -0.74505805969E-08  0.93827000000E+00  0.93827000000E+00 0.  1.
     999902    2    1    2    0    0  0.87802426755E-02  0.34022733787E-03  0.10292705350E-01  0.10303967742E+01  0.10303078977E+01 0.  0.
     999903    2    3    3    0    0 -0.30679610427E-02 -0.73919032688E-03  0.13427305065E+00  0.14162646021E+00  0.44931540319E-01 0.  0.
         14    1    1    2    0    0 -0.87802426755E-02 -0.34022733787E-03 -0.10292705350E-01  0.13533225761E-01  0.00000000000E+00 0.  1.
     999901    1    3    3    0    0  0.11848203718E-01  0.10794176647E-02 -0.12398034530E+00  0.88877031403E+00  0.88000000000E+00 0.  1.
        -11    1    4    4    0    0  0.13773505764E-01  0.31561210898E-02  0.13261791320E-01  0.19385736803E-01  0.51100000000E-03 0.  1.
         11    1    4    4    0    0 -0.16841466807E-01 -0.38953114167E-02  0.12101125933E+00  0.12224072341E+00  0.51100000000E-03 0. -1.
</event>
<event>
 8    1  0.1993226E+004  0.1043930E+01  0.7957747E-01            NaN
         13   -1    0    0    0    0  0.00000000000E+00  0.00000000000E+00  0.74505805969E-08  0.10566000000E+00  0.10566000000E+00 0. -1.
     999900   -1    0    0    0    0 -0.00000000000E+00 -0.00000000000E+00 -0.74505805969E-08  0.93827000000E+00  0.93827000000E+00 0.  1.
     999902    2    1    2    0    0 -0.91820459732E-02 -0.70012556316E-02 -0.10861664725E-01  0.10280774510E+01  0.10279552237E+01 0.  0.
     999903    2    3    3    0    0 -0.10685217399E+00 -0.61956987319E-01  0.46248868348E-01  0.13913358364E+00  0.44307346014E-01 0.  0.
         14    1    1    2    0    0  0.91820459732E-02  0.70012556316E-02  0.10861664725E-01  0.15852548984E-01  0.00000000000E+00 0. -1.
     999901    1    3    3    0    0  0.97670128014E-01  0.54955731687E-01 -0.57110533073E-01  0.88894386737E+00  0.88000000000E+00 0.  1.
        -11    1    4    4    0    0 -0.14744633406E-01  0.39928951476E-02  0.15458976728E-01  0.21739100911E-01  0.51100000000E-03 0. -1.
         11    1    4    4    0    0 -0.92107540581E-01 -0.65949882466E-01  0.30789891619E-01  0.11739448273E+00  0.51100000000E-03 0.  1.
</event>
<event>
 8    1  0.1993226E+004  0.1043930E+01  0.7957747E-01            NaN
         13   -1    0    0    0    0  0.00000000000E+00  0.00000000000E+00  0.74505805969E-08  0.10566000000E+00  0.10566000000E+00 0. -1.
     999900   -1    0    0    0    0 -0.00000000000E+00 -0.00000000000E+00 -0.74505805969E-08  0.93827000000E+00  0.93827000000E+00 0. -1.
     999902    2    1    2    0    0 -0.68787685461E-02  0.19560870424E-02  0.11557054412E-01  0.10303392222E+01  0.10302495832E+01 0.  0.
     999903    2    3    3    0    0 -0.13134916795E+00  0.24830206254E-01 -0.51883959244E-02  0.14112804611E+00  0.44956232986E-01 0.  0.
         14    1    1    2    0    0  0.68787685461E-02 -0.19560870424E-02 -0.11557054412E-01  0.13590777752E-01  0.00000000000E+00 0.  1.
     999901    1    3    3    0    0  0.12447039940E+00 -0.22874119212E-01  0.16745450336E-01  0.88921117614E+00  0.88000000000E+00 0.  1.
        -11    1    4    4    0    0 -0.54663365960E-01 -0.11852869620E-01 -0.44862439571E-02  0.56115609256E-01  0.51100000000E-03 0.  1.
         11    1    4    4    0    0 -0.76685801987E-01  0.36683075874E-01 -0.70215196723E-03  0.85012436857E-01  0.51100000000E-03 0. -1.
</event>
<event>
 8    1  0.1993226E+004  0.1043930E+01  0.7957747E-01            NaN
         13   -1    0    0    0    0  0.00000000000E+00  0.00000000000E+00  0.74505805969E-08  0.10566000000E+00  0.10566000000E+00 0. -1.
     999900   -1    0    0    0    0 -0.00000000000E+00 -0.00000000000E+00 -0.74505805969E-08  0.93827000000E+00  0.93827000000E+00 0.  1.
     999902    2    1    2    0    0 -0.46611038817E-02  0.45998421065E-02  0.11618470774E-01  0.10305930851E+01  0.10305067849E+01 0.  0.
     999903    2    3    3    0    0 -0.12876192561E+00  0.29839717263E-01 -0.17275643353E-01  0.14105784963E+00  0.46139211912E-01 0.  0.
         14    1    1    2    0    0  0.46611038817E-02 -0.45998421065E-02 -0.11618470774E-01  0.13336914933E-01  0.00000000000E+00 0. -1.
     999901    1    3    3    0    0  0.12410082173E+00 -0.25239875156E-01  0.28894114127E-01  0.88953523544E+00  0.88000000000E+00 0. -1.
        -11    1    4    4    0    0 -0.10535033575E+00  0.12929056982E-01  0.22960735812E-02  0.10616678780E+00  0.51100000000E-03 0. -1.
         11    1    4    4    0    0 -0.23411589863E-01  0.16910660281E-01 -0.19571716934E-01  0.34891061832E-01  0.51100000000E-03 0.  1.
</event>
<event>
 8    1  0.1993226E+004  0.1043930E+01  0.7957747E-01            NaN
         13   -1    0    0    0    0  0.00000000000E+00  0.00000000000E+00  0.74505805969E-08  0.10566000000E+00  0.10566000000E+00 0.  1.
     999900   -1    0    0    0    0 -0.00000000000E+00 -0.00000000000E+00 -0.74505805969E-08  0.93827000000E+00  0.93827000000E+00 0. -1.
     999902    2    1    2    0    0  0.37059333000E-02 -0.79904744547E-02 -0.94068835948E-02  0.10310431430E+01  0.10309626044E+01 0.  0.
     999903    2    3    3    0    0  0.97702683753E-01  0.72655480860E-01 -0.55663283911E-01  0.14116741363E+00  0.44779506287E-01 0.  0.
         14    1    1    2    0    0 -0.37059333000E-02  0.79904744547E-02  0.94068835948E-02  0.12886856971E-01  0.00000000000E+00 0.  1.
     999901    1    3    3    0    0 -0.93996750453E-01 -0.80645955315E-01  0.46256400316E-01  0.88987572940E+00  0.88000000000E+00 0.  1.
        -11    1    4    4    0    0  0.47290743184E-01  0.17542311758E-01 -0.41103134024E-01  0.65068239874E-01  0.51100000000E-03 0. -1.
         11    1    4    4    0    0  0.50411940570E-01  0.55113169102E-01 -0.14560149887E-01  0.76099173755E-01  0.51100000000E-03 0.  1.
</event>
<event>
 8    1  0.1993226E+004  0.1043930E+01  0.7957747E-01            NaN
         13   -1    0    0    0    0  0.00000000000E+00  0.00000000000E+00  0.74505805969E-08  0.10566000000E+00  0.10566000000E+00 0.  1.
     999900   -1    0    0    0    0 -0.00000000000E+00 -0.00000000000E+00 -0.74505805969E-08  0.93827000000E+00  0.93827000000E+00 0.  1.
     999902    2    1    2    0    0 -0.67596345270E-02 -0.57351886705E-03  0.14979657603E-01  0.10274857997E+01  0.10273542022E+01 0.  0.
     999903    2    3    3    0    0  0.49573760030E-01  0.11584774584E+00  0.32286735175E-01  0.13786402770E+00  0.45670548108E-01 0.  0.
         14    1    1    2    0    0  0.67596345270E-02  0.57351886705E-03 -0.14979657603E-01  0.16444200338E-01  0.00000000000E+00 0. -1.
     999901    1    3    3    0    0 -0.56333394557E-01 -0.11642126471E+00 -0.17307077572E-01  0.88962177196E+00  0.88000000000E+00 0. -1.
        -11    1    4    4    0    0 -0.31254087972E-02  0.85663524246E-02  0.14333634634E-01  0.16996022383E-01  0.51100000000E-03 0. -1.
         11    1    4    4    0    0  0.52699168827E-01  0.10728139342E+00  0.17953100541E-01  0.12086800532E+00  0.51100000000E-03 0.  1.
</event>
<event>
 8    1  0.1993226E+004  0.1043930E+01  0.7957747E-01            NaN
         13   -1    0    0    0    0  0.00000000000E+00  0.00000000000E+00  0.74505805969E-08  0.10566000000E+00  0.10566000000E+00 0. -1.
     999900   -1    0    0    0    0 -0.00000000000E+00 -0.00000000000E+00 -0.74505805969E-08  0.93827000000E+00  0.93827000000E+00 0. -1.
     999902    2    1    2    0    0 -0.42650716373E-02 -0.18106887332E-02  0.19670155191E-01  0.10237214762E+01  0.10235219960E+01 0.  0.
     999903    2    3    3    0    0 -0.84268980254E-01  0.80004117768E-01  0.53599016103E-01  0.13566435214E+00  0.45055987630E-01 0.  0.
         14    1    1    2    0    0  0.42650716373E-02  0.18106887332E-02 -0.19670155191E-01  0.20208523820E-01  0.00000000000E+00 0.  1.
     999901    1    3    3    0    0  0.80003908616E-01 -0.81814806501E-01 -0.33928860913E-01  0.88805712404E+00  0.88000000000E+00 0.  1.
        -11    1    4    4    0    0 -0.39531016543E-01  0.65500295548E-01  0.24393446473E-01  0.80301253649E-01  0.51100000000E-03 0. -1.
         11    1    4    4    0    0 -0.44737963711E-01  0.14503822220E-01  0.29205569630E-01  0.55363098490E-01  0.51100000000E-03 0.  1.
</event>
<event>
 8    1  0.1993226E+004  0.1043930E+01  0.7957747E-01            NaN
         13   -1    0    0    0    0  0.00000000000E+00  0.00000000000E+00  0.74505805969E-08  0.10566000000E+00  0.10566000000E+00 0.  1.
     999900   -1    0    0    0    0 -0.00000000000E+00 -0.00000000000E+00 -0.74505805969E-08  0.93827000000E+00  0.93827000000E+00 0. -1.
     999902    2    1    2    0    0  0.54559371887E-02  0.43656226628E-02 -0.12168849588E-01  0.10298976512E+01  0.10298020515E+01 0.  0.
     999903    2    3    3    0    0  0.41831601729E-01 -0.16660704415E-01 -0.12651632054E+00  0.14150548584E+00  0.44608981011E-01 0.  0.
         14    1    1    2    0    0 -0.54559371887E-02 -0.43656226628E-02  0.12168849588E-01  0.14032348774E-01  0.00000000000E+00 0.  1.
     999901    1    3    3    0    0 -0.36375664541E-01  0.21026327078E-01  0.11434747095E+00  0.88839216538E+00  0.88000000000E+00 0.  1.
        -11    1    4    4    0    0  0.22190466748E-01  0.14292281948E-01 -0.46048722775E-01  0.53079488769E-01  0.51100000000E-03 0. -1.
         11    1    4    4    0    0  0.19641134982E-01 -0.30952986362E-01 -0.80467597761E-01  0.88425997074E-01  0.51100000000E-03 0.  1.
</event>
<event>
 8    1  0.1993226E+004  0.1043930E+01  0.7957747E-01            NaN
         13   -1    0    0    0    0  0.00000000000E+00  0.00000000000E+00  0.74505805969E-08  0.10566000000E+00  0.10566000000E+00 0. -1.
     999900   -1    0    0    0    0 -0.00000000000E+00 -0.00000000000E+00 -0.74505805969E-08  0.93827000000E+00  0.93827000000E+00 0.  1.
     999902    2    1    2    0    0  0.80518572151E-02 -0.10955750753E-01  0.24442906208E-02  0.10301156800E+01  0.10300230477E+01 0.  0.
     999903    2    3    3    0    0  0.45121492163E-01 -0.12564106899E+00  0.23557210085E-02  0.14190011618E+00  0.48046501193E-01 0.  0.
         14    1    1    2    0    0 -0.80518572151E-02  0.10955750753E-01 -0.24442906208E-02  0.13814319955E-01  0.00000000000E+00 0. -1.
     999901    1    3    3    0    0 -0.37069634948E-01  0.11468531824E+00  0.88569612291E-04  0.88821556387E+00  0.88000000000E+00 0.  1.
        -11    1    4    4    0    0  0.81498500669E-04 -0.49967021838E-01  0.16675324101E-01  0.52678624396E-01  0.51100000000E-03 0. -1.
         11    1    4    4    0    0  0.45039993662E-01 -0.75674047154E-01 -0.14319603093E-01  0.89221491780E-01  0.51100000000E-03 0.  1.
</event>
<event>
 8    1  0.1993226E+004  0.1043930E+01  0.7957747E-01            NaN
         13   -1    0    0    0    0  0.00000000000E+00  0.00000000000E+00  0.74505805969E-08  0.10566000000E+00  0.10566000000E+00 0.  1.
     999900   -1    0    0    0    0 -0.00000000000E+00 -0.00000000000E+00 -0.74505805969E-08  0.93827000000E+00  0.93827000000E+00 0.  1.
     999902    2    1    2    0    0  0.23921274996E-02 -0.87898892738E-02 -0.10390266720E-01  0.10301118210E+01  0.10300191366E+01 0.  0.
     999903    2    3    3    0    0  0.60078640564E-01 -0.10328729904E+00  0.57249768294E-01  0.14059921934E+00  0.47041421254E-01 0.  0.
         14    1    1    2    0    0 -0.23921274996E-02  0.87898892738E-02  0.10390266720E-01  0.13818178966E-01  0.00000000000E+00 0.  1.
     999901    1    3    3    0    0 -0.57686513064E-01  0.94497409765E-01 -0.67640035014E-01  0.88951260170E+00  0.88000000000E+00 0.  1.
        -11    1    4    4    0    0  0.27246676093E-01 -0.25868525464E-01 -0.21598714850E-02  0.37636260888E-01  0.51100000000E-03 0.  1.
         11    1    4    4    0    0  0.32831964471E-01 -0.77418773574E-01  0.59409639779E-01  0.10296295845E+00  0.51100000000E-03 0. -1.
</event>
<event>
 8    1  0.1993226E+004  0.1043930E+01  0.7957747E-01            NaN
         13   -1    0    0    0    0  0.00000000000E+00  0.00000000000E+00  0.74505805969E-08  0.10566000000E+00  0.10566000000E+00 0.  1.
     999900   -1    0    0    0    0 -0.00000000000E+00 -0.00000000000E+00 -0.74505805969E-08  0.93827000000E+00  0.93827000000E+00 0.  1.
     999902    2    1    2    0    0 -0.13822212802E-01  0.42900200307E-02  0.52274770882E-02  0.10285422011E+01  0.10284270879E+01 0.  0.
     999903    2    3    3    0    0 -0.90884198114E-01 -0.67162619345E-01  0.69229147338E-01  0.13998143049E+00  0.45070734816E-01 0.  0.
         14    1    1    2    0    0  0.13822212802E-01 -0.42900200307E-02 -0.52274770882E-02  0.15387798910E-01  0.00000000000E+00 0. -1.
     999901    1    3    3    0    0  0.77061985312E-01  0.71452639376E-01 -0.64001670249E-01  0.88856077060E+00  0.88000000000E+00 0.  1.
        -11    1    4    4    0    0 -0.39199802377E-01 -0.55106879576E-01  0.47438992221E-01  0.82608182325E-01  0.51100000000E-03 0. -1.
         11    1    4    4    0    0 -0.51684395736E-01 -0.12055739769E-01  0.21790155116E-01  0.57373248165E-01  0.51100000000E-03 0.  1.
</event>
<event>
 8    1  0.1993226E+004  0.1043930E+01  0.7957747E-01            NaN
         13   -1    0    0    0    0  0.00000000000E+00  0.00000000000E+00  0.74505805969E-08  0.10566000000E+00  0.10566000000E+00 0. -1.
     999900   -1    0    0    0    0 -0.00000000000E+00 -0.00000000000E+00 -0.74505805969E-08  0.93827000000E+00  0.93827000000E+00 0.  1.
     999902    2    1    2    0    0 -0.45768160092E-02  0.12803235915E-01  0.45239528433E-02  0.10296004416E+01  0.10295007203E+01 0.  0.
     999903    2    3    3    0    0  0.39064853307E-01 -0.46143052965E-01 -0.11606386259E+00  0.13835374090E+00  0.44896473371E-01 0.  0.
         14    1    1    2    0    0  0.45768160092E-02 -0.12803235915E-01 -0.45239528433E-02  0.14329558403E-01  0.00000000000E+00 0.  1.
     999901    1    3    3    0    0 -0.43641669317E-01  0.58946288880E-01  0.12058781543E+00  0.89124670070E+00  0.88000000000E+00 0. -1.
        -11    1    4    4    0    0  0.75977604127E-02 -0.42202630980E-01 -0.75893107342E-01  0.87171170050E-01  0.51100000000E-03 0.  1.
         11    1    4    4    0    0  0.31467092895E-01 -0.39404219845E-02 -0.40170755247E-01  0.51182570850E-01  0.51100000000E-03 0. -1.
</event>
<event>
 8    1  0.1993226E+004  0.1043930E+01  0.7957747E-01            NaN
         13   -1    0    0    0    0  0.00000000000E+00  0.00000000000E+00  0.74505805969E-08  0.10566000000E+00  0.10566000000E+00 0. -1.
     999900   -1    0    0    0    0 -0.00000000000E+00 -0.00000000000E+00 -0.74505805969E-08  0.93827000000E+00  0.93827000000E+00 0.  1.
     999902    2    1    2    0    0 -0.85150159363E-02 -0.11585580305E-02  0.10469611348E-01  0.10303852403E+01  0.10302962113E+01 0.  0.
     999903    2    3    3    0    0  0.56012067138E-01  0.66133348199E-01 -0.98029984268E-01  0.13883372338E+00  0.46410704845E-01 0.  0.
         14    1    1    2    0    0  0.85150159363E-02  0.11585580305E-02 -0.10469611348E-01  0.13544759683E-01  0.00000000000E+00 0.  1.
     999901    1    3    3    0    0 -0.64527083074E-01 -0.67291906230E-01  0.10849959562E+00  0.89155151693E+00  0.88000000000E+00 0.  1.
        -11    1    4    4    0    0  0.35153082306E-01  0.64223754489E-01 -0.90859636297E-01  0.11668832189E+00  0.51100000000E-03 0.  1.
         11    1    4    4    0    0  0.20858984832E-01  0.19095937101E-02 -0.71703479707E-02  0.22145401495E-01  0.51100000000E-03 0. -1.
</event>
<event>
 8    1  0.1993226E+004  0.1043930E+01  0.7957747E-01            NaN
         13   -1    0    0    0    0  0.00000000000E+00  0.00000000000E+00  0.74505805969E-08  0.10566000000E+00  0.10566000000E+00 0.  1.
     999900   -1    0    0    0    0 -0.00000000000E+00 -0.00000000000E+00 -0.74505805969E-08  0.93827000000E+00  0.93827000000E+00 0. -1.
     999902    2    1    2    0    0  0.10730040410E-01 -0.53754096448E-02  0.66258379275E-02  0.10302212246E+01  0.10301300117E+01 0.  0.
     999903    2    3    3    0    0  0.78530883081E-02 -0.13348638655E+00 -0.21035223911E-02  0.14089737972E+00  0.44354936772E-01 0.  0.
         14    1    1    2    0    0 -0.10730040410E-01  0.53754096448E-02 -0.66258379275E-02  0.13708775448E-01  0.00000000000E+00 0. -1.
     999901    1    3    3    0    0  0.28769521022E-02  0.12811097690E+00  0.87293603186E-02  0.88932384483E+00  0.88000000000E+00 0. -1.
        -11    1    4    4    0    0 -0.44355670999E-02 -0.10117500400E+00  0.14909443122E-01  0.10236507366E+00  0.51100000000E-03 0. -1.
         11    1    4    4    0    0  0.12288655408E-01 -0.32311382545E-01 -0.17012965513E-01  0.38532306059E-01  0.51100000000E-03 0.  1.
</event>
<event>
 8    1  0.1993226E+004  0.1043930E+01  0.7957747E-01            NaN
         13   -1    0    0    0    0  0.00000000000E+00  0.00000000000E+00  0.74505805969E-08  0.10566000000E+00  0.10566000000E+00 0. -1.
     999900   -1    0    0    0    0 -0.00000000000E+00 -0.00000000000E+00 -0.74505805969E-08  0.93827000000E+00  0.93827000000E+00 0.  1.
     999902    2    1    2    0    0  0.11863185242E-01 -0.11041071989E-02  0.79035990993E-02  0.10296324095E+01  0.10295331357E+01 0.  0.
     999903    2    3    3    0    0 -0.85025046202E-01  0.16671164319E-01 -0.98035217041E-01  0.13782171068E+00  0.43321287542E-01 0.  0.
         14    1    1    2    0    0 -0.11863185242E-01  0.11041071989E-02 -0.79035990993E-02  0.14297590549E-01  0.00000000000E+00 0. -1.
     999901    1    3    3    0    0  0.96888231444E-01 -0.17775271518E-01  0.10593881614E+00  0.89181069877E+00  0.88000000000E+00 0. -1.
        -11    1    4    4    0    0 -0.72410695489E-01 -0.37275577755E-02 -0.78702388309E-01  0.10701182437E+00  0.51100000000E-03 0.  1.
         11    1    4    4    0    0 -0.12614350713E-01  0.20398722095E-01 -0.19332828732E-01  0.30809886315E-01  0.51100000000E-03 0. -1.
</event>
<event>
 8    1  0.1993226E+004  0.1043930E+01  0.7957747E-01            NaN
         13   -1    0    0    0    0  0.00000000000E+00  0.00000000000E+00  0.74505805969E-08  0.10566000000E+00  0.10566000000E+00 0.  1.
     999900   -1    0    0    0    0 -0.00000000000E+00 -0.00000000000E+00 -0.74505805969E-08  0.93827000000E+00  0.93827000000E+00 0. -1.
     999902    2    1    2    0    0  0.71803627258E-02 -0.11674045287E-01  0.71722325246E-02  0.10284612618E+01  0.10283449252E+01 0.  0.
     999903    2    3    3    0    0  0.55414643612E-01  0.17195624043E-01  0.11881568570E+00  0.13962817044E+00  0.44859632155E-01 0.  0.
         14    1    1    2    0    0 -0.71803627258E-02  0.11674045287E-01 -0.71722325246E-02  0.15468738204E-01  0.00000000000E+00 0.  1.
     999901    1    3    3    0    0 -0.48234280886E-01 -0.28869669330E-01 -0.11164345318E+00  0.88883309136E+00  0.88000000000E+00 0. -1.
        -11    1    4    4    0    0  0.70655158615E-02  0.22538496002E-01  0.28271863153E-01  0.36843787584E-01  0.51100000000E-03 0.  1.
         11    1    4    4    0    0  0.48349127750E-01 -0.53428719591E-02  0.90543822551E-01  0.10278438285E+00  0.51100000000E-03 0. -1.
</event>
<event>
 8    1  0.1993226E+004  0.1043930E+01  0.7957747E-01            NaN
         13   -1    0    0    0    0  0.00000000000E+00  0.00000000000E+00  0.74505805969E-08  0.10566000000E+00  0.10566000000E+00 0. -1.
     999900   -1    0    0    0    0 -0.00000000000E+00 -0.00000000000E+00 -0.74505805969E-08  0.93827000000E+00  0.93827000000E+00 0. -1.
     999902    2    1    2    0    0 -0.69130241440E-02  0.88598611000E-02 -0.86343172805E-02  0.10297582508E+01  0.10296607289E+01 0.  0.
     999903    2    3    3    0    0 -0.58850282625E-01 -0.81017398627E-01 -0.86508831713E-01  0.14024161762E+00  0.46440916271E-01 0.  0.
         14    1    1    2    0    0  0.69130241440E-02 -0.88598611000E-02  0.86343172805E-02  0.14171749237E-01  0.00000000000E+00 0. -1.
     999901    1    3    3    0    0  0.51937258481E-01  0.89877259727E-01  0.77874514432E-01  0.88951663314E+00  0.88000000000E+00 0.  1.
        -11    1    4    4    0    0 -0.42416914883E-01 -0.40524526529E-01 -0.74676838325E-01  0.94964852560E-01  0.51100000000E-03 0. -1.
         11    1    4    4    0    0 -0.16433367742E-01 -0.40492872098E-01 -0.11831993388E-01  0.45276765063E-01  0.51100000000E-03 0.  1.
</event>
<event>
 8    1  0.1993226E+004  0.1043930E+01  0.7957747E-01            NaN
         13   -1    0    0    0    0  0.00000000000E+00  0.00000000000E+00  0.74505805969E-08  0.10566000000E+00  0.10566000000E+00 0. -1.
     999900   -1    0    0    0    0 -0.00000000000E+00 -0.00000000000E+00 -0.74505805969E-08  0.93827000000E+00  0.93827000000E+00 0. -1.
     999902    2    1    2    0    0  0.73803114452E-02  0.11654161231E-02 -0.12255272444E-01  0.10295766417E+01  0.10294765865E+01 0.  0.
     999903    2    3    3    0    0 -0.31038013078E-01  0.12513227467E+00 -0.30454936203E-01  0.13987164709E+00  0.44890200496E-01 0.  0.
         14    1    1    2    0    0 -0.73803114452E-02 -0.11654161231E-02  0.12255272444E-01  0.14353358299E-01  0.00000000000E+00 0. -1.
     999901    1    3    3    0    0  0.38418324524E-01 -0.12396685855E+00  0.18199663758E-01  0.88970499461E+00  0.88000000000E+00 0.  1.
        -11    1    4    4    0    0 -0.30240113364E-01  0.95476947503E-01 -0.41807356206E-02  0.10023997023E+00  0.51100000000E-03 0.  1.
         11    1    4    4    0    0 -0.79789971449E-03  0.29655327166E-01 -0.26274200582E-01  0.39631676857E-01  0.51100000000E-03 0. -1.
</event>
<event>
 8    1  0.1993226E+004  0.1043930E+01  0.7957747E-01            NaN
         13   -1    0    0    0    0  0.00000000000E+00  0.00000000000E+00  0.74505805969E-08  0.10566000000E+00  0.10566000000E+00 0. -1.
     999900   -1    0    0    0    0 -0.00000000000E+00 -0.00000000000E+00 -0.74505805969E-08  0.93827000000E+00  0.93827000000E+00 0.  1.
     999902    2    1    2    0    0  0.89759541042E-02  0.97212133930E-02 -0.10799977770E-01  0.10268505017E+01  0.10267084511E+01 0.  0.
     999903    2    3    3    0    0  0.57330003781E-01  0.11579154882E+00 -0.22066333545E-01  0.13909154741E+00  0.46530886227E-01 0.  0.
         14    1    1    2    0    0 -0.89759541042E-02 -0.97212133930E-02  0.10799977770E-01  0.17079498287E-01  0.00000000000E+00 0. -1.
     999901    1    3    3    0    0 -0.48354049676E-01 -0.10607033542E+00  0.11266355775E-01  0.88775895431E+00  0.88000000000E+00 0. -1.
        -11    1    4    4    0    0 -0.48136630679E-02  0.33274077899E-01 -0.10045419551E-01  0.35092836693E-01  0.51100000000E-03 0. -1.
         11    1    4    4    0    0  0.62143666849E-01  0.82517470918E-01 -0.12020913993E-01  0.10399871071E+00  0.51100000000E-03 0.  1.
</event>
<event>
 8    1  0.1993226E+004  0.1043930E+01  0.7957747E-01            NaN
         13   -1    0    0    0    0  0.00000000000E+00  0.00000000000E+00  0.74505805969E-08  0.10566000000E+00  0.10566000000E+00 0. -1.
     999900   -1    0    0    0    0 -0.00000000000E+00 -0.00000000000E+00 -0.74505805969E-08  0.93827000000E+00  0.93827000000E+00 0. -1.
     999902    2    1    2    0    0 -0.13574381370E-01  0.45005135043E-02 -0.43810388799E-03  0.10296222963E+01  0.10295228810E+01 0.  0.
     999903    2    3    3    0    0  0.11468781933E+00 -0.60885880041E-01 -0.11607969777E-01  0.13785363876E+00  0.44816229938E-01 0.  0.
         14    1    1    2    0    0  0.13574381370E-01 -0.45005135043E-02  0.43810388799E-03  0.14307703743E-01  0.00000000000E+00 0.  1.
     999901    1    3    3    0    0 -0.12826220070E+00  0.65386393546E-01  0.11169865889E-01  0.89176865750E+00  0.88000000000E+00 0.  1.
        -11    1    4    4    0    0  0.36060741326E-01 -0.26294242960E-01  0.16326120304E-01  0.47524389559E-01  0.51100000000E-03 0. -1.
         11    1    4    4    0    0  0.78627078005E-01 -0.34591637081E-01 -0.27934090081E-01  0.90329249201E-01  0.51100000000E-03 0.  1.
</event>
<event>
 8    1  0.2200407E+004  0.1043930E+01  0.7957747E-01            NaN
         13   -1    0    0    0    0  0.00000000000E+00  0.00000000000E+00  0.74505805969E-08  0.10566000000E+00  0.10566000000E+00 0. -1.
     999900   -1    0    0    0    0 -0.00000000000E+00 -0.00000000000E+00 -0.74505805969E-08  0.93827000000E+00  0.93827000000E+00 0. -1.
     999902    2    1    2    0    0 -0.12626510616E-01 -0.36829809319E-02 -0.27037465808E-02  0.10305022912E+01  0.10304148042E+01 0.  0.
     999903    2    3    3    0    0  0.48908948711E-01  0.11852823301E+00 -0.35779002144E-01  0.13931422679E+00  0.41076629684E-01 0.  0.
         14    1    1    2    0    0  0.12626510616E-01  0.36829809319E-02  0.27037465808E-02  0.13427708831E-01  0.00000000000E+00 0.  1.
     999901    1    3    3    0    0 -0.61535459328E-01 -0.12221121394E+00  0.33075255563E-01  0.89118806438E+00  0.88000000000E+00 0. -1.
        -11    1    4    4    0    0  0.53438030981E-02  0.63547859175E-01 -0.98746521991E-02  0.64534149985E-01  0.51100000000E-03 0. -1.
         11    1    4    4    0    0  0.43565145613E-01  0.54980373835E-01 -0.25904349945E-01  0.74780076801E-01  0.51100000000E-03 0.  1.
</event>
<event>
 8    1  0.1993226E+004  0.1043930E+01  0.7957747E-01            NaN
         13   -1    0    0    0    0  0.00000000000E+00  0.00000000000E+00  0.74505805969E-08  0.10566000000E+00  0.10566000000E+00 0.  1.
     999900   -1    0    0    0    0 -0.00000000000E+00 -0.00000000000E+00 -0.74505805969E-08  0.93827000000E+00  0.93827000000E+00 0. -1.
     999902    2    1    2    0    0  0.38363974386E-02  0.40614628163E-02  0.12316762328E-01  0.10304053536E+01  0.10303165905E+01 0.  0.
     999903    2    3    3    0    0  0.16839850890E-01 -0.55781718751E-01 -0.11759623107E+00  0.13876210543E+00  0.45065148602E-01 0.  0.
         14    1    1    2    0    0 -0.38363974386E-02 -0.40614628163E-02 -0.12316762328E-01  0.13524646382E-01  0.00000000000E+00 0. -1.
     999901    1    3    3    0    0 -0.13003453451E-01  0.59843181567E-01  0.12991299339E+00  0.89164324819E+00  0.88000000000E+00 0.  1.
        -11    1    4    4    0    0  0.26552863743E-01 -0.13154013002E-01 -0.41444150468E-01  0.50950577622E-01  0.51100000000E-03 0. -1.
         11    1    4    4    0    0 -0.97130128533E-02 -0.42627705750E-01 -0.76152080598E-01  0.87811527812E-01  0.51100000000E-03 0.  1.
</event>
<event>
 8    1  0.1993226E+004  0.1043930E+01  0.7957747E-01            NaN
         13   -1    0    0    0    0  0.00000000000E+00  0.00000000000E+00  0.74505805969E-08  0.10566000000E+00  0.10566000000E+00 0. -1.
     999900   -1    0    0    0    0 -0.00000000000E+00 -0.00000000000E+00 -0.74505805969E-08  0.93827000000E+00  0.93827000000E+00 0. -1.
     999902    2    1    2    0    0 -0.92098598525E-02 -0.86329292660E-02  0.64665477344E-02  0.10297467273E+01  0.10296490456E+01 0.  0.
     999903    2    3    3    0    0 -0.10267931758E+00 -0.83830961379E-01  0.18761430418E-01  0.14152240440E+00  0.45890383877E-01 0.  0.
         14    1    1    2    0    0  0.92098598525E-02  0.86329292660E-02 -0.64665477344E-02  0.14183272747E-01  0.00000000000E+00 0.  1.
     999901    1    3    3    0    0  0.93469457728E-01  0.75198032113E-01 -0.12294882683E-01  0.88822432285E+00  0.88000000000E+00 0.  1.
        -11    1    4    4    0    0 -0.58713783981E-01 -0.21551262478E-01  0.18714506585E-01  0.65285980282E-01  0.51100000000E-03 0.  1.
         11    1    4    4    0    0 -0.43965533600E-01 -0.62279698901E-01  0.46923833147E-04  0.76236424121E-01  0.51100000000E-03 0. -1.
</event>
<event>
 8    1  0.1993226E+004  0.1043930E+01  0.7957747E-01            NaN
         13   -1    0    0    0    0  0.00000000000E+00  0.00000000000E+00  0.74505805969E-08  0.10566000000E+00  0.10566000000E+00 0. -1.
     999900   -1    0    0    0    0 -0.00000000000E+00 -0.00000000000E+00 -0.74505805969E-08  0.93827000000E+00  0.93827000000E+00 0. -1.
     999902    2    1    2    0    0 -0.11954316089E-01  0.27089572714E-02  0.12787014367E-01  0.10262169579E+01  0.10260640784E+01 0.  0.
     999903    2    3    3    0    0 -0.70493143144E-01  0.10831625989E+00  0.17322465316E-01  0.13796008802E+00  0.45069088021E-01 0.  0.
         14    1    1    2    0    0  0.11954316089E-01 -0.27089572714E-02 -0.12787014367E-01  0.17713042062E-01  0.00000000000E+00 0.  1.
     999901    1    3    3    0    0  0.58538827054E-01 -0.10560730262E+00 -0.45354509498E-02  0.88825686992E+00  0.88000000000E+00 0.  1.
        -11    1    4    4    0    0 -0.92779385244E-02 -0.26681515015E-02 -0.16262833161E-02  0.98033205661E-02  0.51100000000E-03 0.  1.
         11    1    4    4    0    0 -0.61215204619E-01  0.11098441139E+00  0.18948748632E-01  0.12815676746E+00  0.51100000000E-03 0. -1.
</event>
<event>
 8    1  0.1993226E+004  0.1043930E+01  0.7957747E-01            NaN
         13   -1    0    0    0    0  0.00000000000E+00  0.00000000000E+00  0.74505805969E-08  0.10566000000E+00  0.10566000000E+00 0. -1.
     999900   -1    0    0    0    0 -0.00000000000E+00 -0.00000000000E+00 -0.74505805969E-08  0.93827000000E+00  0.93827000000E+00 0.  1.
     999902    2    1    2    0    0  0.14493415717E-01  0.25997712003E-02 -0.43207616066E-03  0.10291989240E+01  0.10290934946E+01 0.  0.
     999903    2    3    3    0    0 -0.51964566115E-01 -0.10319305848E+00 -0.60903790177E-01  0.13831979959E+00  0.45540881103E-01 0.  0.
         14    1    1    2    0    0 -0.14493415717E-01 -0.25997712003E-02  0.43207616066E-03  0.14731075970E-01  0.00000000000E+00 0. -1.
     999901    1    3    3    0    0  0.66457981832E-01  0.10579282968E+00  0.60471714016E-01  0.89087912444E+00  0.88000000000E+00 0. -1.
        -11    1    4    4    0    0 -0.54827241137E-01 -0.61649755199E-01 -0.42132875562E-01  0.92639942848E-01  0.51100000000E-03 0.  1.
         11    1    4    4    0    0  0.28626750219E-02 -0.41543303281E-01 -0.18770914614E-01  0.45679856745E-01  0.51100000000E-03 0. -1.
</event>
<event>
 8    1  0.1993226E+004  0.1043930E+01  0.7957747E-01            NaN
         13   -1    0    0    0    0  0.00000000000E+00  0.00000000000E+00  0.74505805969E-08  0.10566000000E+00  0.10566000000E+00 0.  1.
     999900   -1    0    0    0    0 -0.00000000000E+00 -0.00000000000E+00 -0.74505805969E-08  0.93827000000E+00  0.93827000000E+00 0. -1.
     999902    2    1    2    0    0 -0.45389368658E-02  0.12675807388E-01 -0.37706717687E-02  0.10299480114E+01  0.10298531012E+01 0.  0.
     999903    2    3    3    0    0  0.65967757272E-01 -0.11213952143E+00 -0.16335823564E-01  0.13825975683E+00  0.43839296979E-01 0.  0.
         14    1    1    2    0    0  0.45389368658E-02 -0.12675807388E-01  0.37706717687E-02  0.13981988643E-01  0.00000000000E+00 0. -1.
     999901    1    3    3    0    0 -0.70506694138E-01  0.12481532882E+00  0.12565151795E-01  0.89168825453E+00  0.88000000000E+00 0.  1.
        -11    1    4    4    0    0  0.70167841253E-01 -0.91968538527E-01 -0.77719588215E-02  0.11594137523E+00  0.51100000000E-03 0. -1.
         11    1    4    4    0    0 -0.42000839812E-02 -0.20170982906E-01 -0.85638647427E-02  0.22318381599E-01  0.51100000000E-03 0.  1.
</event>
<event>
 8    1  0.1993226E+004  0.1043930E+01  0.7957747E-01            NaN
         13   -1    0    0    0    0  0.00000000000E+00  0.00000000000E+00  0.74505805969E-08  0.10566000000E+00  0.10566000000E+00 0.  1.
     999900   -1    0    0    0    0 -0.00000000000E+00 -0.00000000000E+00 -0.74505805969E-08  0.93827000000E+00  0.93827000000E+00 0.  1.
     999902    2    1    2    0    0 -0.87904312977E-02 -0.11558657318E-01  0.22746612427E-02  0.10292314176E+01  0.10291264561E+01 0.  0.
     999903    2    3    3    0    0 -0.67961566099E-01 -0.88937788353E-01  0.71987246398E-01  0.14111622368E+00  0.46935277532E-01 0.  0.
         14    1    1    2    0    0  0.87904312977E-02  0.11558657318E-01 -0.22746612427E-02  0.14698582420E-01  0.00000000000E+00 0. -1.
     999901    1    3    3    0    0  0.59171134801E-01  0.77379131035E-01 -0.69712585156E-01  0.88811519390E+00  0.88000000000E+00 0.  1.
        -11    1    4    4    0    0 -0.38218633148E-02 -0.18880042290E-01 -0.37510926204E-02  0.19631465888E-01  0.51100000000E-03 0.  1.
         11    1    4    4    0    0 -0.64139702784E-01 -0.70057746063E-01  0.75738339019E-01  0.12148475779E+00  0.51100000000E-03 0. -1.
</event>
<event>
 8    1  0.1993226E+004  0.1043930E+01  0.7957747E-01            NaN
         13   -1    0    0    0    0  0.00000000000E+00  0.00000000000E+00  0.74505805969E-08  0.10566000000E+00  0.10566000000E+00 0.  1.
     999900   -1    0    0    0    0 -0.00000000000E+00 -0.00000000000E+00 -0.74505805969E-08  0.93827000000E+00  0.93827000000E+00 0.  1.
     999902    2    1    2    0    0 -0.83240685308E-02 -0.10180438815E-01 -0.61289950129E-02  0.10294215186E+01  0.10293192736E+01 0.  0.
     999903    2    3    3    0    0 -0.11410708861E+00 -0.56622622912E-01 -0.40907593068E-01  0.14118929975E+00  0.45104745842E-01 0.  0.
         14    1    1    2    0    0  0.83240685308E-02  0.10180438815E-01  0.61289950129E-02  0.14508481355E-01  0.00000000000E+00 0. -1.
     999901    1    3    3    0    0  0.10578302008E+00  0.46442184097E-01  0.34778598055E-01  0.88823221889E+00  0.88000000000E+00 0. -1.
        -11    1    4    4    0    0 -0.35405019085E-01 -0.20011144617E-01 -0.35887973908E-01  0.54241765066E-01  0.51100000000E-03 0.  1.
         11    1    4    4    0    0 -0.78702069522E-01 -0.36611478295E-01 -0.50196191598E-02  0.86947534684E-01  0.51100000000E-03 0. -1.
</event>
<event>
 8    1  0.1993226E+004  0.1043930E+01  0.7957747E-01            NaN
         13   -1    0    0    0    0  0.00000000000E+00  0.00000000000E+00  0.74505805969E-08  0.10566000000E+00  0.10566000000E+00 0. -1.
     999900   -1    0    0    0    0 -0.00000000000E+00 -0.00000000000E+00 -0.74505805969E-08  0.93827000000E+00  0.93827000000E+00 0.  1.
     999902    2    1    2    0    0 -0.32244525388E-02  0.94216052573E-02 -0.85029250038E-02  0.10308355938E+01  0.10307524232E+01 0.  0.
     999903    2    3    3    0    0  0.85537460475E-01  0.46074246133E-01 -0.92525878615E-01  0.14163260798E+00  0.45379115543E-01 0.  0.
         14    1    1    2    0    0  0.32244525388E-02 -0.94216052573E-02  0.85029250038E-02  0.13094406188E-01  0.00000000000E+00 0.  1.
     999901    1    3    3    0    0 -0.88761913014E-01 -0.36652640876E-01  0.84022953611E-01  0.88920298584E+00  0.88000000000E+00 0. -1.
        -11    1    4    4    0    0  0.54204238332E-01  0.36028254841E-02 -0.50344380394E-01  0.74066845234E-01  0.51100000000E-03 0.  1.
         11    1    4    4    0    0  0.31333222143E-01  0.42471420649E-01 -0.42181498221E-01  0.67565762743E-01  0.51100000000E-03 0. -1.
</event>
<event>
 8    1  0.1993226E+004  0.1043930E+01  0.7957747E-01            NaN
         13   -1    0    0    0    0  0.00000000000E+00  0.00000000000E+00  0.74505805969E-08  0.10566000000E+00  0.10566000000E+00 0.  1.
     999900   -1    0    0    0    0 -0.00000000000E+00 -0.00000000000E+00 -0.74505805969E-08  0.93827000000E+00  0.93827000000E+00 0. -1.
     999902    2    1    2    0    0 -0.10721710457E-01 -0.58906311924E-03 -0.11230775831E-01  0.10283919050E+01  0.10282745148E+01 0.  0.
     999903    2    3    3    0    0 -0.12877983796E+00  0.26014677049E-01 -0.17299830996E-01  0.14008885204E+00  0.45437784145E-01 0.  0.
         14    1    1    2    0    0  0.10721710457E-01  0.58906311924E-03  0.11230775831E-01  0.15538095001E-01  0.00000000000E+00 0.  1.
     999901    1    3    3    0    0  0.11805812750E+00 -0.26603740168E-01  0.60690551650E-02  0.88830305296E+00  0.88000000000E+00 0.  1.
        -11    1    4    4    0    0 -0.10617179002E+00  0.55700415816E-02 -0.28626537452E-02  0.10635755858E+00  0.51100000000E-03 0. -1.
         11    1    4    4    0    0 -0.22608047941E-01  0.20444635467E-01 -0.14437177251E-01  0.33731293468E-01  0.51100000000E-03 0.  1.
</event>
<event>
 8    1  0.1993226E+004  0.1043930E+01  0.7957747E-01            NaN
         13   -1    0    0    0    0  0.00000000000E+00  0.00000000000E+00  0.74505805969E-08  0.10566000000E+00  0.10566000000E+00 0. -1.
     999900   -1    0    0    0    0 -0.00000000000E+00 -0.00000000000E+00 -0.74505805969E-08  0.93827000000E+00  0.93827000000E+00 0.  1.
     999902    2    1    2    0    0 -0.57903503102E-02  0.10884448537E-01  0.32295575389E-04  0.10316011550E+01  0.10315274803E+01 0.  0.
     999903    2    3    3    0    0  0.58635740165E-01 -0.11802648009E+00  0.23117650818E-01  0.13958003287E+00  0.39746191896E-01 0.  0.
         14    1    1    2    0    0  0.57903503102E-02 -0.10884448537E-01 -0.32295575389E-04  0.12328845026E-01  0.00000000000E+00 0. -1.
     999901    1    3    3    0    0 -0.64426090475E-01  0.12891092862E+00 -0.23085355243E-01  0.89202112210E+00  0.88000000000E+00 0.  1.
        -11    1    4    4    0    0  0.21734641190E-01 -0.13802128187E-01  0.12143974307E-01  0.28471575354E-01  0.51100000000E-03 0.  1.
         11    1    4    4    0    0  0.36901098975E-01 -0.10422435190E+00  0.10973676511E-01  0.11110845752E+00  0.51100000000E-03 0. -1.
</event>
<event>
 8    1  0.2825062E+004  0.1043930E+01  0.7957747E-01            NaN
         13   -1    0    0    0    0  0.00000000000E+00  0.00000000000E+00  0.74505805969E-08  0.10566000000E+00  0.10566000000E+00 0.  1.
     999900   -1    0    0    0    0 -0.00000000000E+00 -0.00000000000E+00 -0.74505805969E-08  0.93827000000E+00  0.93827000000E+00 0. -1.
     999902    2    1    2    0    0  0.54240426268E-02 -0.97937911399E-02 -0.82894909237E-02  0.10299996646E+01  0.10299054592E+01 0.  0.
     999903    2    3    3    0    0 -0.81674984443E-02 -0.82210806573E-01  0.10340923239E+00  0.13988418961E+00  0.45263588116E-01 0.  0.
         14    1    1    2    0    0 -0.54240426268E-02  0.97937911399E-02  0.82894909237E-02  0.13930335354E-01  0.00000000000E+00 0.  1.
     999901    1    3    3    0    0  0.13591541071E-01  0.72417015433E-01 -0.11169872332E+00  0.89011547504E+00  0.88000000000E+00 0. -1.
        -11    1    4    4    0    0  0.39358321931E-02 -0.19882123930E-01  0.59036802023E-01  0.62421108138E-01  0.51100000000E-03 0.  1.
         11    1    4    4    0    0 -0.12103330637E-01 -0.62328682643E-01  0.44372430371E-01  0.77463081469E-01  0.51100000000E-03 0. -1.
</event>
<event>
 8    1  0.1993226E+004  0.1043930E+01  0.7957747E-01            NaN
         13   -1    0    0    0    0  0.00000000000E+00  0.00000000000E+00  0.74505805969E-08  0.10566000000E+00  0.10566000000E+00 0. -1.
     999900   -1    0    0    0    0 -0.00000000000E+00 -0.00000000000E+00 -0.74505805969E-08  0.93827000000E+00  0.93827000000E+00 0. -1.
     999902    2    1    2    0    0  0.10618126752E-01 -0.49957426215E-03 -0.58491266682E-02  0.10317971325E+01  0.10317257951E+01 0.  0.
     999903    2    3    3    0    0 -0.11017563483E-02 -0.13058457103E+00 -0.27754239091E-01  0.14188742026E+00  0.48043711183E-01 0.  0.
         14    1    1    2    0    0 -0.10618126752E-01  0.49957426215E-03  0.58491266682E-02  0.12132867466E-01  0.00000000000E+00 0.  1.
     999901    1    3    3    0    0  0.11719883100E-01  0.13008499676E+00  0.21905112423E-01  0.88990971227E+00  0.88000000000E+00 0.  1.
        -11    1    4    4    0    0  0.18032226233E-01 -0.10495191259E+00 -0.15421283160E-01  0.10760177617E+00  0.51100000000E-03 0.  1.
         11    1    4    4    0    0 -0.19133982582E-01 -0.25632658433E-01 -0.12332955931E-01  0.34285644091E-01  0.51100000000E-03 0. -1.
</event>
<event>
 8    1  0.1993226E+004  0.1043930E+01  0.7957747E-01            NaN
         13   -1    0    0    0    0  0.00000000000E+00  0.00000000000E+00  0.74505805969E-08  0.10566000000E+00  0.10566000000E+00 0.  1.
     999900   -1    0    0    0    0 -0.00000000000E+00 -0.00000000000E+00 -0.74505805969E-08  0.93827000000E+00  0.93827000000E+00 0.  1.
     999902    2    1    2    0    0  0.45030483669E-02  0.27534643696E-02 -0.19573154228E-01  0.10236576697E+01  0.10234569152E+01 0.  0.
     999903    2    3    3    0    0  0.10656584851E+00  0.28279939489E-01  0.60878943264E-01  0.13374702466E+00  0.45010952302E-01 0.  0.
         14    1    1    2    0    0 -0.45030483669E-02 -0.27534643696E-02  0.19573154228E-01  0.20272330331E-01  0.00000000000E+00 0.  1.
     999901    1    3    3    0    0 -0.10206280014E+00 -0.25526475119E-01 -0.80452097492E-01  0.88991064501E+00  0.88000000000E+00 0.  1.
        -11    1    4    4    0    0  0.47060123879E-01  0.15872878637E-01  0.52691854664E-01  0.72410608371E-01  0.51100000000E-03 0.  1.
         11    1    4    4    0    0  0.59505724630E-01  0.12407060851E-01  0.81870886004E-02  0.61336416292E-01  0.51100000000E-03 0. -1.
</event>
<event>
 8    1  0.1993226E+004  0.1043930E+01  0.7957747E-01            NaN
         13   -1    0    0    0    0  0.00000000000E+00  0.00000000000E+00  0.74505805969E-08  0.10566000000E+00  0.10566000000E+00 0. -1.
     999900   -1    0    0    0    0 -0.00000000000E+00 -0.00000000000E+00 -0.74505805969E-08  0.93827000000E+00  0.93827000000E+00 0. -1.
     999902    2    1    2    0    0 -0.10552541423E-01  0.70207399736E-02 -0.52823190160E-02  0.10301986558E+01  0.10301071403E+01 0.  0.
     999903    2    3    3    0    0  0.87815650574E-01 -0.82058826282E-01  0.51268649644E-01  0.13845346661E+00  0.45778253839E-01 0.  0.
         14    1    1    2    0    0  0.10552541423E-01 -0.70207399736E-02  0.52823190160E-02  0.13731344233E-01  0.00000000000E+00 0. -1.
     999901    1    3    3    0    0 -0.98368191997E-01  0.89079566255E-01 -0.56550968660E-01  0.89174518915E+00  0.88000000000E+00 0. -1.
        -11    1    4    4    0    0 -0.19655862262E-02 -0.12879184749E-01  0.14021227017E-01  0.19146614768E-01  0.51100000000E-03 0.  1.
         11    1    4    4    0    0  0.89781236800E-01 -0.69179641533E-01  0.37247422627E-01  0.11930685185E+00  0.51100000000E-03 0. -1.
</event>
<event>
 8    1  0.1993226E+004  0.1043930E+01  0.7957747E-01            NaN
         13   -1    0    0    0    0  0.00000000000E+00  0.00000000000E+00  0.74505805969E-08  0.10566000000E+00  0.10566000000E+00 0.  1.
     999900   -1    0    0    0    0 -0.00000000000E+00 -0.00000000000E+00 -0.74505805969E-08  0.93827000000E+00  0.93827000000E+00 0.  1.
     999902    2    1    2    0    0  0.12244777461E-01  0.42938654684E-02  0.43881466558E-02  0.10302322744E+01  0.10301412095E+01 0.  0.
     999903    2    3    3    0    0  0.27598897385E-01 -0.47442287992E-01  0.12161897588E+00  0.14081929613E+00  0.45015875466E-01 0.  0.
         14    1    1    2    0    0 -0.12244777461E-01 -0.42938654684E-02 -0.43881466558E-02  0.13697725607E-01  0.00000000000E+00 0.  1.
     999901    1    3    3    0    0 -0.15354119924E-01  0.51736153461E-01 -0.11723082922E+00  0.88941297826E+00  0.88000000000E+00 0.  1.
        -11    1    4    4    0    0 -0.15320248984E-02 -0.25877393336E-01  0.86677388847E-01  0.90472191553E-01  0.51100000000E-03 0.  1.
         11    1    4    4    0    0  0.29130922284E-01 -0.21564894656E-01  0.34941587029E-01  0.50347104581E-01  0.51100000000E-03 0. -1.
</event>
<event>
 8    1  0.1993226E+004  0.1043930E+01  0.7957747E-01            NaN
         13   -1    0    0    0    0  0.00000000000E+00  0.00000000000E+00  0.74505805969E-08  0.10566000000E+00  0.10566000000E+00 0. -1.
     999900   -1    0    0    0    0 -0.00000000000E+00 -0.00000000000E+00 -0.74505805969E-08  0.93827000000E+00  0.93827000000E+00 0.  1.
     999902    2    1    2    0    0  0.25669732893E-02 -0.11795640967E-01  0.22526295134E-02  0.10316499008E+01  0.10315768110E+01 0.  0.
     999903    2    3    3    0    0  0.54996727699E-02  0.48446910456E-01  0.12442007626E+00  0.14116539737E+00  0.45496862588E-01 0.  0.
         14    1    1    2    0    0 -0.25669732893E-02  0.11795640967E-01 -0.22526295134E-02  0.12280099243E-01  0.00000000000E+00 0.  1.
     999901    1    3    3    0    0 -0.29326994806E-02 -0.60242551424E-01 -0.12216744674E+00  0.89048450339E+00  0.88000000000E+00 0.  1.
        -11    1    4    4    0    0  0.17460393097E-01  0.20002035270E-01  0.94577955615E-01  0.98235419026E-01  0.51100000000E-03 0.  1.
         11    1    4    4    0    0 -0.11960720327E-01  0.28444875186E-01  0.29842120643E-01  0.42929978344E-01  0.51100000000E-03 0. -1.
</event>
<event>
 8    1  0.1993226E+004  0.1043930E+01  0.7957747E-01            NaN
         13   -1    0    0    0    0  0.00000000000E+00  0.00000000000E+00  0.74505805969E-08  0.10566000000E+00  0.10566000000E+00 0.  1.
     999900   -1    0    0    0    0 -0.00000000000E+00 -0.00000000000E+00 -0.74505805969E-08  0.93827000000E+00  0.93827000000E+00 0. -1.
     999902    2    1    2    0    0 -0.75834772924E-02 -0.90815157121E-02  0.56533198156E-02  0.10308172932E+01  0.10307338885E+01 0.  0.
     999903    2    3    3    0    0 -0.58480127901E-01 -0.79397972962E-01 -0.90753511904E-01  0.14130666906E+00  0.44804144094E-01 0.  0.
         14    1    1    2    0    0  0.75834772924E-02  0.90815157121E-02 -0.56533198156E-02  0.13112706830E-01  0.00000000000E+00 0. -1.
     999901    1    3    3    0    0  0.50896650609E-01  0.70316457249E-01  0.96406831720E-01  0.88951062411E+00  0.88000000000E+00 0.  1.
        -11    1    4    4    0    0 -0.56891658998E-02 -0.32792580246E-01 -0.49624307392E-01  0.59754103900E-01  0.51100000000E-03 0. -1.
         11    1    4    4    0    0 -0.52790962001E-01 -0.46605392716E-01 -0.41129204512E-01  0.81552565159E-01  0.51100000000E-03 0.  1.
</event>
<event>
 8    1  0.1993226E+004  0.1043930E+01  0.7957747E-01            NaN
         13   -1    0    0    0    0  0.00000000000E+00  0.00000000000E+00  0.74505805969E-08  0.10566000000E+00  0.10566000000E+00 0.  1.
     999900   -1    0    0    0    0 -0.00000000000E+00 -0.00000000000E+00 -0.74505805969E-08  0.93827000000E+00  0.93827000000E+00 0. -1.
     999902    2    1    2    0    0  0.13196810878E-01 -0.46610717379E-02  0.91786915575E-03  0.10299041706E+01  0.10298086602E+01 0.  0.
     999903    2    3    3    0    0 -0.84545675720E-01  0.88859948684E-01 -0.46690884412E-01  0.13829530546E+00  0.43606089734E-01 0.  0.
         14    1    1    2    0    0 -0.13196810878E-01  0.46610717379E-02 -0.91786915575E-03  0.14025829419E-01  0.00000000000E+00 0.  1.
     999901    1    3    3    0    0  0.97742486598E-01 -0.93521020422E-01  0.47608753568E-01  0.89160886512E+00  0.88000000000E+00 0.  1.
        -11    1    4    4    0    0 -0.32192352821E-01  0.47806850528E-01 -0.42535888979E-01  0.71633829367E-01  0.51100000000E-03 0.  1.
         11    1    4    4    0    0 -0.52353322899E-01  0.41053098156E-01 -0.41549954325E-02  0.66661476092E-01  0.51100000000E-03 0. -1.
</event>
<event>
 8    1  0.1993226E+004  0.1043930E+01  0.7957747E-01            NaN
         13   -1    0    0    0    0  0.00000000000E+00  0.00000000000E+00  0.74505805969E-08  0.10566000000E+00  0.10566000000E+00 0.  1.
     999900   -1    0    0    0    0 -0.00000000000E+00 -0.00000000000E+00 -0.74505805969E-08  0.93827000000E+00  0.93827000000E+00 0. -1.
     999902    2    1    2    0    0  0.96807915090E-02 -0.58162506543E-02  0.12193700627E-03  0.10326356933E+01  0.10325739265E+01 0.  0.
     999903    2    3    3    0    0  0.36447988306E-01  0.12610120680E+00 -0.31219205191E-01  0.14184898165E+00  0.43778129404E-01 0.  0.
         14    1    1    2    0    0 -0.96807915090E-02  0.58162506543E-02 -0.12193700627E-03  0.11294306732E-01  0.00000000000E+00 0. -1.
     999901    1    3    3    0    0 -0.26767196797E-01 -0.13191745745E+00  0.31341142197E-01  0.89078671162E+00  0.88000000000E+00 0. -1.
        -11    1    4    4    0    0  0.15643390005E-01  0.84718057314E-01 -0.39530324760E-01  0.94788040292E-01  0.51100000000E-03 0.  1.
         11    1    4    4    0    0  0.20804598301E-01  0.41383149485E-01  0.83111195689E-02  0.47060941356E-01  0.51100000000E-03 0. -1.
</event>
<event>
 8    1  0.1993226E+004  0.1043930E+01  0.7957747E-01            NaN
         13   -1    0    0    0    0  0.00000000000E+00  0.00000000000E+00  0.74505805969E-08  0.10566000000E+00  0.10566000000E+00 0.  1.
     999900   -1    0    0    0    0 -0.00000000000E+00 -0.00000000000E+00 -0.74505805969E-08  0.93827000000E+00  0.93827000000E+00 0. -1.
     999902    2    1    2    0    0  0.19366787135E-02  0.31514812181E-03 -0.18222480923E-01  0.10256021836E+01  0.10254384088E+01 0.  0.
     999903    2    3    3    0    0  0.12203354422E+00 -0.31950674000E-01  0.22728249843E-01  0.13591611384E+00  0.45206030312E-01 0.  0.
         14    1    1    2    0    0 -0.19366787135E-02 -0.31514812181E-03  0.18222480923E-01  0.18327816394E-01  0.00000000000E+00 0.  1.
     999901    1    3    3    0    0 -0.12009686551E+00  0.32265822122E-01 -0.40950730767E-01  0.88968606976E+00  0.88000000000E+00 0. -1.
        -11    1    4    4    0    0  0.10969760803E+00 -0.15249100724E-01  0.28495432002E-01  0.11436061843E+00  0.51100000000E-03 0.  1.
         11    1    4    4    0    0  0.12335936188E-01 -0.16701573275E-01 -0.57671821581E-02  0.21555495414E-01  0.51100000000E-03 0. -1.
</event>
<event>
 8    1  0.1993226E+004  0.1043930E+01  0.7957747E-01            NaN
         13   -1    0    0    0    0  0.00000000000E+00  0.00000000000E+00  0.74505805969E-08  0.10566000000E+00  0.10566000000E+00 0. -1.
     999900   -1    0    0    0    0 -0.00000000000E+00 -0.00000000000E+00 -0.74505805969E-08  0.93827000000E+00  0.93827000000E+00 0. -1.
     999902    2    1    2    0    0  0.12424030034E-01 -0.38933520397E-02 -0.78933934592E-02  0.10287043515E+01  0.10285916694E+01 0.  0.
     999903    2    3    3    0    0  0.26986083436E-01  0.12073941163E+00  0.42474064005E-01  0.13837729924E+00  0.45143954331E-01 0.  0.
         14    1    1    2    0    0 -0.12424030034E-01  0.38933520397E-02  0.78933934592E-02  0.15225648515E-01  0.00000000000E+00 0. -1.
     999901    1    3    3    0    0 -0.14562053401E-01 -0.12463276367E+00 -0.50367457464E-01  0.89032705224E+00  0.88000000000E+00 0. -1.
        -11    1    4    4    0    0 -0.55178867606E-03  0.49656557874E-01  0.37035286369E-01  0.61951204735E-01  0.51100000000E-03 0.  1.
         11    1    4    4    0    0  0.27537872112E-01  0.71082853758E-01  0.54387776357E-02  0.76426094509E-01  0.51100000000E-03 0. -1.
</event>
<event>
 8    1  0.1993226E+004  0.1043930E+01  0.7957747E-01            NaN
         13   -1    0    0    0    0  0.00000000000E+00  0.00000000000E+00  0.74505805969E-08  0.10566000000E+00  0.10566000000E+00 0. -1.
     999900   -1    0    0    0    0 -0.00000000000E+00 -0.00000000000E+00 -0.74505805969E-08  0.93827000000E+00  0.93827000000E+00 0. -1.
     999902    2    1    2    0    0 -0.63114204784E-02  0.91704551920E-02 -0.91077737437E-02  0.10295465783E+01  0.10294461006E+01 0.  0.
     999903    2    3    3    0    0  0.17507541410E-01  0.92043254823E-01  0.94171137971E-01  0.13932088925E+00  0.41995621074E-01 0.  0.
         14    1    1    2    0    0  0.63114204784E-02 -0.91704551920E-02  0.91077737437E-02  0.14383421688E-01  0.00000000000E+00 0. -1.
     999901    1    3    3    0    0 -0.23818961889E-01 -0.82872799631E-01 -0.10327891172E+00  0.89022568906E+00  0.88000000000E+00 0. -1.
        -11    1    4    4    0    0  0.29339833368E-01  0.78236560561E-01  0.83989922150E-01  0.11847511711E+00  0.51100000000E-03 0. -1.
         11    1    4    4    0    0 -0.11832291958E-01  0.13806694262E-01  0.10181215822E-01  0.20845772138E-01  0.51100000000E-03 0.  1.
</event>
<event>
 8    1  0.1993226E+004  0.1043930E+01  0.7957747E-01            NaN
         13   -1    0    0    0    0  0.00000000000E+00  0.00000000000E+00  0.74505805969E-08  0.10566000000E+00  0.10566000000E+00 0.  1.
     999900   -1    0    0    0    0 -0.00000000000E+00 -0.00000000000E+00 -0.74505805969E-08  0.93827000000E+00  0.93827000000E+00 0.  1.
     999902    2    1    2    0    0 -0.45361221211E-02 -0.89563333210E-02  0.10043522531E-01  0.10297291319E+01  0.10296312060E+01 0.  0.
     999903    2    3    3    0    0 -0.11376421847E+00 -0.69506700444E-01  0.92869584752E-02  0.14091098604E+00  0.44678625514E-01 0.  0.
         14    1    1    2    0    0  0.45361221211E-02  0.89563333210E-02 -0.10043522531E-01  0.14200868117E-01  0.00000000000E+00 0. -1.
     999901    1    3    3    0    0  0.10922809635E+00  0.60550367123E-01  0.75656405550E-03  0.88881814584E+00  0.88000000000E+00 0.  1.
        -11    1    4    4    0    0 -0.22227662678E-01 -0.20577194583E-02  0.15268676346E-01  0.27049894563E-01  0.51100000000E-03 0. -1.
         11    1    4    4    0    0 -0.91536555794E-01 -0.67448980985E-01 -0.59817178711E-02  0.11386109148E+00  0.51100000000E-03 0.  1.
</event>
<event>
 8    1  0.1993226E+004  0.1043930E+01  0.7957747E-01            NaN
         13   -1    0    0    0    0  0.00000000000E+00  0.00000000000E+00  0.74505805969E-08  0.10566000000E+00  0.10566000000E+00 0. -1.
     999900   -1    0    0    0    0 -0.00000000000E+00 -0.00000000000E+00 -0.74505805969E-08  0.93827000000E+00  0.93827000000E+00 0.  1.
     999902    2    1    2    0    0 -0.49831762397E-02 -0.11605003820E-01 -0.46506234482E-02  0.10304713055E+01  0.10303834117E+01 0.  0.
     999903    2    3    3    0    0 -0.10794267628E+00 -0.34749909475E-01  0.69357538663E-01  0.14108187822E+00  0.47269975906E-01 0.  0.
         14    1    1    2    0    0  0.49831762397E-02  0.11605003820E-01  0.46506234482E-02  0.13458694497E-01  0.00000000000E+00 0.  1.
     999901    1    3    3    0    0  0.10295950004E+00  0.23144905655E-01 -0.74008162111E-01  0.88938942728E+00  0.88000000000E+00 0.  1.
        -11    1    4    4    0    0 -0.30038568372E-01 -0.30701060140E-01  0.36749649478E-01  0.56530244483E-01  0.51100000000E-03 0. -1.
         11    1    4    4    0    0 -0.77904107904E-01 -0.40488493353E-02  0.32607889185E-01  0.84551633736E-01  0.51100000000E-03 0.  1.
</event>
<event>
 8    1  0.1993226E+004  0.1043930E+01  0.7957747E-01            NaN
         13   -1    0    0    0    0  0.00000000000E+00  0.00000000000E+00  0.74505805969E-08  0.10566000000E+00  0.10566000000E+00 0. -1.
     999900   -1    0    0    0    0 -0.00000000000E+00 -0.00000000000E+00 -0.74505805969E-08  0.93827000000E+00  0.93827000000E+00 0. -1.
     999902    2    1    2    0    0 -0.43497948243E-02  0.26966661133E-02  0.12765461731E-01  0.10301768281E+01  0.10300850195E+01 0.  0.
     999903    2    3    3    0    0  0.96715159883E-01  0.22876629836E-02 -0.88404663298E-01  0.13863339871E+00  0.45219234753E-01 0.  0.
         14    1    1    2    0    0  0.43497948243E-02 -0.26966661133E-02 -0.12765461731E-01  0.13753171865E-01  0.00000000000E+00 0.  1.
     999901    1    3    3    0    0 -0.10106495471E+00  0.40900312970E-03  0.10117012503E+00  0.89154342943E+00  0.88000000000E+00 0.  1.
        -11    1    4    4    0    0  0.43738334820E-01 -0.20148052802E-01 -0.30493556916E-01  0.57000913141E-01  0.51100000000E-03 0.  1.
         11    1    4    4    0    0  0.52976825063E-01  0.22435715786E-01 -0.57911106382E-01  0.81632485568E-01  0.51100000000E-03 0. -1.
</event>
<event>
 8    1  0.1993226E+004  0.1043930E+01  0.7957747E-01            NaN
         13   -1    0    0    0    0  0.00000000000E+00  0.00000000000E+00  0.74505805969E-08  0.10566000000E+00  0.10566000000E+00 0.  1.
     999900   -1    0    0    0    0 -0.00000000000E+00 -0.00000000000E+00 -0.74505805969E-08  0.93827000000E+00  0.93827000000E+00 0.  1.
     999902    2    1    2    0    0  0.11658728201E-01  0.70825401239E-02  0.18123647816E-02  0.10301687143E+01  0.10300767966E+01 0.  0.
     999903    2    3    3    0    0 -0.79888653617E-01 -0.63981178553E-01  0.82569998074E-01  0.13890401144E+00  0.44729538647E-01 0.  0.
         14    1    1    2    0    0 -0.11658728201E-01 -0.70825401239E-02 -0.18123647816E-02  0.13761285695E-01  0.00000000000E+00 0. -1.
     999901    1    3    3    0    0  0.91547381819E-01  0.71063718677E-01 -0.80757633293E-01  0.89126470286E+00  0.88000000000E+00 0.  1.
        -11    1    4    4    0    0 -0.42514015497E-01 -0.11807054924E-01  0.17390631799E-01  0.47429350143E-01  0.51100000000E-03 0. -1.
         11    1    4    4    0    0 -0.37374638120E-01 -0.52174123629E-01  0.65179366275E-01  0.91474661301E-01  0.51100000000E-03 0.  1.
</event>
<event>
 8    1  0.1993226E+004  0.1043930E+01  0.7957747E-01            NaN
         13   -1    0    0    0    0  0.00000000000E+00  0.00000000000E+00  0.74505805969E-08  0.10566000000E+00  0.10566000000E+00 0. -1.
     999900   -1    0    0    0    0 -0.00000000000E+00 -0.00000000000E+00 -0.74505805969E-08  0.93827000000E+00  0.93827000000E+00 0.  1.
     999902    2    1    2    0    0 -0.84131779268E-02 -0.73600944880E-02  0.79182637516E-02  0.10302314068E+01  0.10301403303E+01 0.  0.
     999903    2    3    3    0    0  0.59141562235E-01 -0.11947296238E+00 -0.12364994971E-01  0.14031885572E+00  0.42011606067E-01 0.  0.
         14    1    1    2    0    0  0.84131779268E-02  0.73600944880E-02 -0.79182637516E-02  0.13698593159E-01  0.00000000000E+00 0. -1.
     999901    1    3    3    0    0 -0.67554740161E-01  0.11211286790E+00  0.20283258723E-01  0.88991255113E+00  0.88000000000E+00 0.  1.
        -11    1    4    4    0    0  0.23918081518E-01 -0.73625710267E-01  0.10539819669E-01  0.78129179924E-01  0.51100000000E-03 0. -1.
         11    1    4    4    0    0  0.35223480716E-01 -0.45847252116E-01 -0.22904814640E-01  0.62189675792E-01  0.51100000000E-03 0.  1.
</event>
<event>
 8    1  0.2248538E+004  0.1043930E+01  0.7957747E-01            NaN
         13   -1    0    0    0    0  0.00000000000E+00  0.00000000000E+00  0.74505805969E-08  0.10566000000E+00  0.10566000000E+00 0.  1.
     999900   -1    0    0    0    0 -0.00000000000E+00 -0.00000000000E+00 -0.74505805969E-08  0.93827000000E+00  0.93827000000E+00 0. -1.
     999902    2    1    2    0    0 -0.38545242123E-02 -0.10559312059E-01  0.77172878667E-02  0.10302950097E+01  0.10302047826E+01 0.  0.
     999903    2    3    3    0    0  0.64508040488E-01  0.62223082275E-01  0.97863683861E-01  0.14007195346E+00  0.44831375974E-01 0.  0.
         14    1    1    2    0    0  0.38545242123E-02  0.10559312059E-01 -0.77172878667E-02  0.13634990285E-01  0.00000000000E+00 0. -1.
     999901    1    3    3    0    0 -0.68362564701E-01 -0.72782394334E-01 -0.90146395994E-01  0.89022305626E+00  0.88000000000E+00 0. -1.
        -11    1    4    4    0    0  0.27388655240E-01  0.36124579713E-01  0.78675139193E-01  0.90802876295E-01  0.51100000000E-03 0. -1.
         11    1    4    4    0    0  0.37119385249E-01  0.26098502562E-01  0.19188544667E-01  0.49269077165E-01  0.51100000000E-03 0.  1.
</event>
<event>
 8    1  0.1993226E+004  0.1043930E+01  0.7957747E-01            NaN
         13   -1    0    0    0    0  0.00000000000E+00  0.00000000000E+00  0.74505805969E-08  0.10566000000E+00  0.10566000000E+00 0. -1.
     999900   -1    0    0    0    0 -0.00000000000E+00 -0.00000000000E+00 -0.74505805969E-08  0.93827000000E+00  0.93827000000E+00 0.  1.
     999902    2    1    2    0    0  0.10464806066E-01  0.22064063921E-02 -0.12670117896E-01  0.10273495210E+01  0.10272157155E+01 0.  0.
     999903    2    3    3    0    0 -0.12594052219E+00 -0.64610637503E-02 -0.26906973919E-01  0.13668447362E+00  0.45342029164E-01 0.  0.
         14    1    1    2    0    0 -0.10464806066E-01 -0.22064063921E-02  0.12670117896E-01  0.16580478964E-01  0.00000000000E+00 0. -1.
     999901    1    3    3    0    0  0.13640532826E+00  0.86674701424E-02  0.14236856023E-01  0.89066504741E+00  0.88000000000E+00 0. -1.
        -11    1    4    4    0    0 -0.62411791063E-01  0.14358997067E-01 -0.27813257645E-01  0.69822996801E-01  0.51100000000E-03 0. -1.
         11    1    4    4    0    0 -0.63528731130E-01 -0.20820060817E-01  0.90628372605E-03  0.66861476820E-01  0.51100000000E-03 0.  1.
</event>
<event>
 8    1  0.1993226E+004  0.1043930E+01  0.7957747E-01            NaN
         13   -1    0    0    0    0  0.00000000000E+00  0.00000000000E+00  0.74505805969E-08  0.10566000000E+00  0.10566000000E+00 0.  1.
     999900   -1    0    0    0    0 -0.00000000000E+00 -0.00000000000E+00 -0.74505805969E-08  0.93827000000E+00  0.93827000000E+00 0.  1.
     999902    2    1    2    0    0  0.20347808000E-02 -0.96679404504E-02 -0.10120171727E-01  0.10297868999E+01  0.10296897746E+01 0.  0.
     999903    2    3    3    0    0  0.91229051076E-01 -0.11345108544E-01 -0.97049297619E-01  0.14101521734E+00  0.44891804427E-01 0.  0.
         14    1    1    2    0    0 -0.20347808000E-02  0.96679404504E-02  0.10120171727E-01  0.14143100128E-01  0.00000000000E+00 0.  1.
     999901    1    3    3    0    0 -0.89194270276E-01  0.16771680936E-02  0.86929125892E-01  0.88877168253E+00  0.88000000000E+00 0. -1.
        -11    1    4    4    0    0  0.10928433667E-01  0.14284577371E-01 -0.15994404308E-01  0.24074091951E-01  0.51100000000E-03 0. -1.
         11    1    4    4    0    0  0.80300617409E-01 -0.25629685915E-01 -0.81054893312E-01  0.11694112539E+00  0.51100000000E-03 0.  1.
</event>
<event>
 8    1  0.1993226E+004  0.1043930E+01  0.7957747E-01            NaN
         13   -1    0    0    0    0  0.00000000000E+00  0.00000000000E+00  0.74505805969E-08  0.10566000000E+00  0.10566000000E+00 0.  1.
     999900   -1    0    0    0    0 -0.00000000000E+00 -0.00000000000E+00 -0.74505805969E-08  0.93827000000E+00  0.93827000000E+00 0.  1.
     999902    2    1    2    0    0  0.13955265689E-01  0.12544118981E-01  0.23126417591E-02  0.10250235812E+01  0.10248492032E+01 0.  0.
     999903    2    3    3    0    0 -0.12449550059E+00  0.38804317007E-02 -0.19525402503E-01  0.13388915003E+00  0.45065238669E-01 0.  0.
         14    1    1    2    0    0 -0.13955265689E-01 -0.12544118981E-01 -0.23126417591E-02  0.18906418840E-01  0.00000000000E+00 0. -1.
     999901    1    3    3    0    0  0.13845076628E+00  0.86636872802E-02  0.21838044262E-01  0.89113443113E+00  0.88000000000E+00 0. -1.
        -11    1    4    4    0    0 -0.53911919665E-01  0.23827087157E-01 -0.53983640550E-02  0.59191457322E-01  0.51100000000E-03 0.  1.
         11    1    4    4    0    0 -0.70583580926E-01 -0.19946655457E-01 -0.14127038448E-01  0.74697692712E-01  0.51100000000E-03 0. -1.
</event>
<event>
 8    1  0.1993226E+004  0.1043930E+01  0.7957747E-01            NaN
         13   -1    0    0    0    0  0.00000000000E+00  0.00000000000E+00  0.74505805969E-08  0.10566000000E+00  0.10566000000E+00 0.  1.
     999900   -1    0    0    0    0 -0.00000000000E+00 -0.00000000000E+00 -0.74505805969E-08  0.93827000000E+00  0.93827000000E+00 0.  1.
     999902    2    1    2    0    0 -0.15638471880E-01 -0.11449348747E-01 -0.90632775142E-02  0.10225339165E+01  0.10223100401E+01 0.  0.
     999903    2    3    3    0    0  0.40556338954E-02 -0.46825844623E-01 -0.11888457313E+00  0.13478391159E+00  0.42708935877E-01 0.  0.
         14    1    1    2    0    0  0.15638471880E-01  0.11449348747E-01  0.90632775142E-02  0.21396083491E-01  0.00000000000E+00 0.  1.
     999901    1    3    3    0    0 -0.19694105775E-01  0.35376495877E-01  0.10982129562E+00  0.88775000492E+00  0.88000000000E+00 0. -1.
        -11    1    4    4    0    0 -0.17253243876E-01 -0.10858102058E-01 -0.52608453982E-01  0.56422365742E-01  0.51100000000E-03 0. -1.
         11    1    4    4    0    0  0.21308877771E-01 -0.35967742565E-01 -0.66276119150E-01  0.78361545848E-01  0.51100000000E-03 0.  1.
</event>
<event>
 8    1  0.1993226E+004  0.1043930E+01  0.7957747E-01            NaN
         13   -1    0    0    0    0  0.00000000000E+00  0.00000000000E+00  0.74505805969E-08  0.10566000000E+00  0.10566000000E+00 0.  1.
     999900   -1    0    0    0    0 -0.00000000000E+00 -0.00000000000E+00 -0.74505805969E-08  0.93827000000E+00  0.93827000000E+00 0.  1.
     999902    2    1    2    0    0  0.44575590713E-02  0.10875857444E-01  0.75025779048E-02  0.10299857258E+01  0.10298913305E+01 0.  0.
     999903    2    3    3    0    0 -0.64954831259E-03 -0.11161245357E+00 -0.69414139486E-01  0.13816419079E+00  0.42582380758E-01 0.  0.
         14    1    1    2    0    0 -0.44575590713E-02 -0.10875857444E-01 -0.75025779048E-02  0.13944274210E-01  0.00000000000E+00 0. -1.
     999901    1    3    3    0    0  0.51071073839E-02  0.12248831101E+00  0.76916717391E-01  0.89182153500E+00  0.88000000000E+00 0. -1.
        -11    1    4    4    0    0 -0.11777899039E-01 -0.24575985125E-01 -0.16675991350E-02  0.27308239754E-01  0.51100000000E-03 0. -1.
         11    1    4    4    0    0  0.11128350726E-01 -0.87036468443E-01 -0.67746540351E-01  0.11085595103E+00  0.51100000000E-03 0.  1.
</event>
<event>
 7    1  0.1993226E+004  0.1043930E+01  0.7957747E-01            NaN
         13   -1    0    0    0    0  0.00000000000E+00  0.00000000000E+00  0.74505805969E-08  0.10566000000E+00  0.10566000000E+00 0.  1.
     999900   -1    0    0    0    0 -0.00000000000E+00 -0.00000000000E+00 -0.74505805969E-08  0.93827000000E+00  0.93827000000E+00 0. -1.
     999903    2    1    2    0    0  0.61833678294E-02 -0.56790764602E-01  0.26204422909E-01  0.77531216286E-01  0.45398157860E-01 0.  0.
         14    1    1    2    0    0 -0.75398095189E-01 -0.25168648155E-01 -0.46029433758E-02  0.79621107100E-01  0.00000000000E+00 0. -1.
     999901    1    1    2    0    0  0.69214727359E-01  0.81959412757E-01 -0.21601479533E-01  0.88677767661E+00  0.88000000000E+00 0. -1.
        -11    1    3    3    0    0  0.98149139769E-02 -0.65929294808E-02 -0.10030140416E-01  0.15513352097E-01  0.51100000000E-03 0.  1.
         11    1    3    3    0    0 -0.36315461475E-02 -0.50197835121E-01  0.36234563325E-01  0.62017864189E-01  0.51100000000E-03 0. -1.
</event>
<event>
 8    1  0.1993226E+004  0.1043930E+01  0.7957747E-01            NaN
         13   -1    0    0    0    0  0.00000000000E+00  0.00000000000E+00  0.74505805969E-08  0.10566000000E+00  0.10566000000E+00 0.  1.
     999900   -1    0    0    0    0 -0.00000000000E+00 -0.00000000000E+00 -0.74505805969E-08  0.93827000000E+00  0.93827000000E+00 0. -1.
     999902    2    1    2    0    0 -0.91523069508E-02 -0.98859086198E-02 -0.21013272387E-02  0.10302950637E+01  0.10302048373E+01 0.  0.
     999903    2    3    3    0    0 -0.88829466333E-01 -0.89675386730E-02 -0.99697619152E-01  0.14132131306E+00  0.45398319592E-01 0.  0.
         14    1    1    2    0    0  0.91523069508E-02  0.98859086198E-02  0.21013272387E-02  0.13634936301E-01  0.00000000000E+00 0.  1.
     999901    1    3    3    0    0  0.79677159382E-01 -0.91836994682E-03  0.97596291913E-01  0.88897375064E+00  0.88000000000E+00 0.  1.
        -11    1    4    4    0    0 -0.77354766212E-01 -0.23956884067E-01 -0.76410531315E-01  0.11133967203E+00  0.51100000000E-03 0. -1.
         11    1    4    4    0    0 -0.11474700120E-01  0.14989345394E-01 -0.23287087836E-01  0.29981641034E-01  0.51100000000E-03 0.  1.
</event>
<event>
 7    1  0.2966330E+004  0.1043930E+01  0.7957747E-01            NaN
         13   -1    0    0    0    0  0.00000000000E+00  0.00000000000E+00  0.74505805969E-08  0.10566000000E+00  0.10566000000E+00 0. -1.
     999900   -1    0    0    0    0 -0.00000000000E+00 -0.00000000000E+00 -0.74505805969E-08  0.93827000000E+00  0.93827000000E+00 0. -1.
     999903    2    1    2    0    0  0.91012404814E-01  0.39707702264E-01 -0.56094602172E-01  0.12112713097E+00  0.40807082901E-01 0.  0.
         14    1    1    2    0    0 -0.10291276631E-01 -0.23589235835E-02  0.36613033765E-01  0.38104975221E-01  0.00000000000E+00 0. -1.
     999901    1    1    2    0    0 -0.80721128182E-01 -0.37348778680E-01  0.19481568407E-01  0.88469789381E+00  0.88000000000E+00 0.  1.
        -11    1    3    3    0    0  0.37313769582E-01  0.15239941829E-01 -0.89074234953E-03  0.40319074522E-01  0.51100000000E-03 0.  1.
         11    1    3    3    0    0  0.53698635231E-01  0.24467760435E-01 -0.55203859822E-01  0.80808056447E-01  0.51100000000E-03 0. -1.
</event>
<event>
 8    1  0.1993226E+004  0.1043930E+01  0.7957747E-01            NaN
         13   -1    0    0    0    0  0.00000000000E+00  0.00000000000E+00  0.74505805969E-08  0.10566000000E+00  0.10566000000E+00 0. -1.
     999900   -1    0    0    0    0 -0.00000000000E+00 -0.00000000000E+00 -0.74505805969E-08  0.93827000000E+00  0.93827000000E+00 0.  1.
     999902    2    1    2    0    0 -0.12722841260E-01 -0.29365238526E-02 -0.32827211437E-02  0.10304663408E+01  0.10303783816E+01 0.  0.
     999903    2    3    3    0    0 -0.60553377264E-01  0.94054145554E-01  0.72645009960E-01  0.14060119902E+00  0.44480399057E-01 0.  0.
         14    1    1    2    0    0  0.12722841260E-01  0.29365238526E-02  0.32827211437E-02  0.13463659242E-01  0.00000000000E+00 0.  1.
     999901    1    3    3    0    0  0.47830536004E-01 -0.96990669407E-01 -0.75927731104E-01  0.88986514174E+00  0.88000000000E+00 0. -1.
        -11    1    4    4    0    0 -0.16637539294E-01  0.58494093286E-01  0.53313273749E-01  0.80876034410E-01  0.51100000000E-03 0.  1.
         11    1    4    4    0    0 -0.43915837970E-01  0.35560052269E-01  0.19331736211E-01  0.59725164612E-01  0.51100000000E-03 0. -1.
</event>
<event>
 8    1  0.1993226E+004  0.1043930E+01  0.7957747E-01            NaN
         13   -1    0    0    0    0  0.00000000000E+00  0.00000000000E+00  0.74505805969E-08  0.10566000000E+00  0.10566000000E+00 0.  1.
     999900   -1    0    0    0    0 -0.00000000000E+00 -0.00000000000E+00 -0.74505805969E-08  0.93827000000E+00  0.93827000000E+00 0. -1.
     999902    2    1    2    0    0 -0.39044709121E-02  0.22345160895E-02 -0.12931267502E-01  0.10302385562E+01  0.10301475753E+01 0.  0.
     999903    2    3    3    0    0 -0.12080334908E+00 -0.38243427014E-01 -0.42382379484E-01  0.14109785886E+00  0.45346784055E-01 0.  0.
         14    1    1    2    0    0  0.39044709121E-02 -0.22345160895E-02  0.12931267502E-01  0.13691443841E-01  0.00000000000E+00 0.  1.
     999901    1    3    3    0    0  0.11689887817E+00  0.40477943104E-01  0.29451111983E-01  0.88914069730E+00  0.88000000000E+00 0. -1.
        -11    1    4    4    0    0 -0.14798373575E-01  0.20730777085E-02  0.80447014579E-02  0.16978452645E-01  0.51100000000E-03 0.  1.
         11    1    4    4    0    0 -0.10600497551E+00 -0.40316504723E-01 -0.50427080942E-01  0.12411940622E+00  0.51100000000E-03 0. -1.
</event>
<event>
 8    1  0.1993226E+004  0.1043930E+01  0.7957747E-01            NaN
         13   -1    0    0    0    0  0.00000000000E+00  0.00000000000E+00  0.74505805969E-08  0.10566000000E+00  0.10566000000E+00 0. -1.
     999900   -1    0    0    0    0 -0.00000000000E+00 -0.00000000000E+00 -0.74505805969E-08  0.93827000000E+00  0.93827000000E+00 0.  1.
     999902    2    1    2    0    0  0.89745601683E-03  0.36010934032E-02 -0.13708929309E-01  0.10297276043E+01  0.10296296572E+01 0.  0.
     999903    2    3    3    0    0  0.12626643370E+00  0.14333977894E-01  0.35621049747E-01  0.13940967108E+00  0.44916834290E-01 0.  0.
         14    1    1    2    0    0 -0.89745601683E-03 -0.36010934032E-02  0.13708929309E-01  0.14202395706E-01  0.00000000000E+00 0. -1.
     999901    1    3    3    0    0 -0.12536897768E+00 -0.10732884491E-01 -0.49329979056E-01  0.89031793322E+00  0.88000000000E+00 0.  1.
        -11    1    4    4    0    0  0.56007348511E-01 -0.68435589890E-02  0.34262535683E-01  0.66013936856E-01  0.51100000000E-03 0. -1.
         11    1    4    4    0    0  0.70259085190E-01  0.21177536883E-01  0.13585140639E-02  0.73395734220E-01  0.51100000000E-03 0.  1.
</event>
<event>
 8    1  0.1993226E+004  0.1043930E+01  0.7957747E-01            NaN
         13   -1    0    0    0    0  0.00000000000E+00  0.00000000000E+00  0.74505805969E-08  0.10566000000E+00  0.10566000000E+00 0. -1.
     999900   -1    0    0    0    0 -0.00000000000E+00 -0.00000000000E+00 -0.74505805969E-08  0.93827000000E+00  0.93827000000E+00 0. -1.
     999902    2    1    2    0    0 -0.88956280703E-02  0.42417589552E-02  0.10896847756E-01  0.10292376207E+01  0.10291327484E+01 0.  0.
     999903    2    3    3    0    0 -0.39441193835E-01  0.11917883942E+00 -0.41020839167E-01  0.13972145433E+00  0.45608902836E-01 0.  0.
         14    1    1    2    0    0  0.88956280703E-02 -0.42417589552E-02 -0.10896847756E-01  0.14692379277E-01  0.00000000000E+00 0.  1.
     999901    1    3    3    0    0  0.30545565765E-01 -0.11493708047E+00  0.51917686923E-01  0.88951616639E+00  0.88000000000E+00 0.  1.
        -11    1    4    4    0    0 -0.40865128558E-02  0.34743168266E-01  0.79893089587E-02  0.35887010284E-01  0.51100000000E-03 0. -1.
         11    1    4    4    0    0 -0.35354680979E-01  0.84435671156E-01 -0.49010148126E-01  0.10383444405E+00  0.51100000000E-03 0.  1.
</event>
<event>
 8    1  0.1993226E+004  0.1043930E+01  0.7957747E-01            NaN
         13   -1    0    0    0    0  0.00000000000E+00  0.00000000000E+00  0.74505805969E-08  0.10566000000E+00  0.10566000000E+00 0.  1.
     999900   -1    0    0    0    0 -0.00000000000E+00 -0.00000000000E+00 -0.74505805969E-08  0.93827000000E+00  0.93827000000E+00 0.  1.
     999902    2    1    2    0    0 -0.14503062955E-02  0.96917272417E-02 -0.84415121420E-02  0.10309958556E+01  0.10309147211E+01 0.  0.
     999903    2    3    3    0    0  0.77100044570E-01  0.75713867541E-01 -0.81362761335E-01  0.14203770738E+00  0.43333644825E-01 0.  0.
         14    1    1    2    0    0  0.14503062955E-02 -0.96917272417E-02  0.84415121420E-02  0.12934144445E-01  0.00000000000E+00 0.  1.
     999901    1    3    3    0    0 -0.78550350865E-01 -0.66022140299E-01  0.72921249193E-01  0.88895814818E+00  0.88000000000E+00 0. -1.
        -11    1    4    4    0    0  0.25656784691E-01  0.47372894289E-01 -0.57048991101E-01  0.78468530129E-01  0.51100000000E-03 0. -1.
         11    1    4    4    0    0  0.51443259879E-01  0.28340973253E-01 -0.24313770234E-01  0.63569177247E-01  0.51100000000E-03 0.  1.
</event>
<event>
 8    1  0.2541227E+004  0.1043930E+01  0.7957747E-01            NaN
         13   -1    0    0    0    0  0.00000000000E+00  0.00000000000E+00  0.74505805969E-08  0.10566000000E+00  0.10566000000E+00 0. -1.
     999900   -1    0    0    0    0 -0.00000000000E+00 -0.00000000000E+00 -0.74505805969E-08  0.93827000000E+00  0.93827000000E+00 0.  1.
     999902    2    1    2    0    0 -0.17292205564E-02  0.13069507950E-01 -0.50412560673E-02  0.10298155923E+01  0.10297188634E+01 0.  0.
     999903    2    3    3    0    0 -0.22099848919E-01 -0.12968400162E+00  0.13852882026E-01  0.13787920699E+00  0.38889970185E-01 0.  0.
         14    1    1    2    0    0  0.17292205564E-02 -0.13069507950E-01  0.50412560673E-02  0.14114407693E-01  0.00000000000E+00 0. -1.
     999901    1    3    3    0    0  0.20370628362E-01  0.14275350957E+00 -0.18894138093E-01  0.89193638532E+00  0.88000000000E+00 0.  1.
        -11    1    4    4    0    0 -0.17510957672E-01 -0.68381296244E-01  0.25978935084E-01  0.75218358821E-01  0.51100000000E-03 0.  1.
         11    1    4    4    0    0 -0.45888912468E-02 -0.61302705379E-01 -0.12126053059E-01  0.62660848170E-01  0.51100000000E-03 0. -1.
</event>
<event>
 7    1  0.1993226E+004  0.1043930E+01  0.7957747E-01            NaN
         13   -1    0    0    0    0  0.00000000000E+00  0.00000000000E+00  0.74505805969E-08  0.10566000000E+00  0.10566000000E+00 0. -1.
     999900   -1    0    0    0    0 -0.00000000000E+00 -0.00000000000E+00 -0.74505805969E-08  0.93827000000E+00  0.93827000000E+00 0. -1.
     999902    2    1    2    0    0 -0.70114887197E-02 -0.11973852664E-01  0.79562227038E-03  0.10300315419E+01  0.10299377701E+01 0.  0.
         14    1    1    2    0    0  0.70114887197E-02  0.11973852664E-01 -0.79562227038E-03  0.13898458062E-01  0.00000000000E+00 0.  1.
     999901    1    3    3    0    0  0.93247411187E-01  0.41865315203E-01  0.59073837129E-01  0.88788372130E+00  0.88000000000E+00 0.  1.
        -11    1    3    3    0    0 -0.72493209758E-01 -0.67139729674E-01 -0.42713737340E-01  0.10764633408E+00  0.51100000000E-03 0.  1.
         11    1    3    3    0    0 -0.27765690148E-01  0.13300561806E-01 -0.15564477519E-01  0.34501486565E-01  0.51100000000E-03 0. -1.
</event>
<event>
 8    1  0.1993226E+004  0.1043930E+01  0.7957747E-01            NaN
         13   -1    0    0    0    0  0.00000000000E+00  0.00000000000E+00  0.74505805969E-08  0.10566000000E+00  0.10566000000E+00 0. -1.
     999900   -1    0    0    0    0 -0.00000000000E+00 -0.00000000000E+00 -0.74505805969E-08  0.93827000000E+00  0.93827000000E+00 0.  1.
     999902    2    1    2    0    0 -0.54222248260E-02  0.11496416043E-01 -0.42690525568E-03  0.10312118888E+01  0.10311334585E+01 0.  0.
     999903    2    3    3    0    0  0.52419465748E-01 -0.13168019431E-01  0.12196067113E+00  0.14051962187E+00  0.44160635240E-01 0.  0.
         14    1    1    2    0    0  0.54222248260E-02 -0.11496416043E-01  0.42690525568E-03  0.12718111180E-01  0.00000000000E+00 0. -1.
     999901    1    3    3    0    0 -0.57841690574E-01  0.24664435474E-01 -0.12238757638E+00  0.89069226695E+00  0.88000000000E+00 0.  1.
        -11    1    4    4    0    0  0.40603449123E-01  0.94749808709E-02  0.56262049727E-01  0.70029241775E-01  0.51100000000E-03 0.  1.
         11    1    4    4    0    0  0.11816016625E-01 -0.22643000302E-01  0.65698621399E-01  0.70490380098E-01  0.51100000000E-03 0. -1.
</event>
<event>
 8    1  0.1993226E+004  0.1043930E+01  0.7957747E-01            NaN
         13   -1    0    0    0    0  0.00000000000E+00  0.00000000000E+00  0.74505805969E-08  0.10566000000E+00  0.10566000000E+00 0. -1.
     999900   -1    0    0    0    0 -0.00000000000E+00 -0.00000000000E+00 -0.74505805969E-08  0.93827000000E+00  0.93827000000E+00 0.  1.
     999902    2    1    2    0    0 -0.13670691049E-01 -0.38889160972E-02  0.26382031998E-02  0.10294741507E+01  0.10293726514E+01 0.  0.
     999903    2    3    3    0    0 -0.44759167038E-01  0.11649250150E+00  0.45024748040E-01  0.13972429923E+00  0.43837950678E-01 0.  0.
         14    1    1    2    0    0  0.13670691049E-01  0.38889160972E-02 -0.26382031998E-02  0.14455849276E-01  0.00000000000E+00 0.  1.
     999901    1    3    3    0    0  0.31088475989E-01 -0.12038141760E+00 -0.42386544840E-01  0.88974985149E+00  0.88000000000E+00 0.  1.
        -11    1    4    4    0    0 -0.39266923356E-01  0.51860098774E-01  0.94246309769E-02  0.65730098925E-01  0.51100000000E-03 0. -1.
         11    1    4    4    0    0 -0.54922436818E-02  0.64632402731E-01  0.35600117063E-01  0.73994200309E-01  0.51100000000E-03 0.  1.
</event>
<event>
 8    1  0.1993226E+004  0.1043930E+01  0.7957747E-01            NaN
         13   -1    0    0    0    0  0.00000000000E+00  0.00000000000E+00  0.74505805969E-08  0.10566000000E+00  0.10566000000E+00 0. -1.
     999900   -1    0    0    0    0 -0.00000000000E+00 -0.00000000000E+00 -0.74505805969E-08  0.93827000000E+00  0.93827000000E+00 0.  1.
     999902    2    1    2    0    0  0.99759900714E-02 -0.11636719488E-01 -0.18306203650E-02  0.10284935241E+01  0.10283776759E+01 0.  0.
     999903    2    3    3    0    0 -0.10127988587E+00  0.55237629411E-01 -0.57258709105E-01  0.13724590332E+00  0.47424331569E-01 0.  0.
         14    1    1    2    0    0 -0.99759900714E-02  0.11636719488E-01  0.18306203650E-02  0.15436475934E-01  0.00000000000E+00 0. -1.
     999901    1    3    3    0    0  0.11125587594E+00 -0.66874348899E-01  0.55428088740E-01  0.89124762075E+00  0.88000000000E+00 0. -1.
        -11    1    4    4    0    0 -0.55138153125E-01  0.81833044631E-02 -0.11244617473E-01  0.56867257232E-01  0.51100000000E-03 0. -1.
         11    1    4    4    0    0 -0.46141732741E-01  0.47054324948E-01 -0.46014091632E-01  0.80378646084E-01  0.51100000000E-03 0.  1.
</event>
<event>
 8    1  0.1993226E+004  0.1043930E+01  0.7957747E-01            NaN
         13   -1    0    0    0    0  0.00000000000E+00  0.00000000000E+00  0.74505805969E-08  0.10566000000E+00  0.10566000000E+00 0.  1.
     999900   -1    0    0    0    0 -0.00000000000E+00 -0.00000000000E+00 -0.74505805969E-08  0.93827000000E+00  0.93827000000E+00 0.  1.
     999902    2    1    2    0    0  0.26220295707E-02 -0.59673590326E-02 -0.61634972813E-03  0.10373829167E+01  0.10373622567E+01 0.  0.
     999903    2    3    3    0    0  0.31689205485E-01  0.30811572203E-01 -0.13187515719E+00  0.14641352045E+00  0.45741700453E-01 0.  0.
         14    1    1    2    0    0 -0.26220295707E-02  0.59673590326E-02  0.61634972813E-03  0.65470833110E-02  0.00000000000E+00 0.  1.
     999901    1    3    3    0    0 -0.29067175915E-01 -0.36778931236E-01  0.13125880746E+00  0.89096939624E+00  0.88000000000E+00 0. -1.
        -11    1    4    4    0    0  0.87146988384E-02  0.38365786943E-01 -0.78280871328E-01  0.87612987168E-01  0.51100000000E-03 0.  1.
         11    1    4    4    0    0  0.22974506647E-01 -0.75542147405E-02 -0.53594285864E-01  0.58800533282E-01  0.51100000000E-03 0. -1.
</event>
<event>
 8    1  0.1993226E+004  0.1043930E+01  0.7957747E-01            NaN
         13   -1    0    0    0    0  0.00000000000E+00  0.00000000000E+00  0.74505805969E-08  0.10566000000E+00  0.10566000000E+00 0. -1.
     999900   -1    0    0    0    0 -0.00000000000E+00 -0.00000000000E+00 -0.74505805969E-08  0.93827000000E+00  0.93827000000E+00 0.  1.
     999902    2    1    2    0    0  0.66294694403E-03  0.11595950911E-01  0.75893000231E-02  0.10300554531E+01  0.10299620058E+01 0.  0.
     999903    2    3    3    0    0  0.19362129636E-01  0.35404851419E-01 -0.12568362585E+00  0.13950607440E+00  0.45135079707E-01 0.  0.
         14    1    1    2    0    0 -0.66294694403E-03 -0.11595950911E-01 -0.75893000231E-02  0.13874546876E-01  0.00000000000E+00 0.  1.
     999901    1    3    3    0    0 -0.18699182692E-01 -0.23808900509E-01  0.13327292587E+00  0.89054937872E+00  0.88000000000E+00 0. -1.
        -11    1    4    4    0    0 -0.13386240668E-01  0.80678109032E-02 -0.52669322410E-01  0.54941784246E-01  0.51100000000E-03 0. -1.
         11    1    4    4    0    0  0.32748370304E-01  0.27337040516E-01 -0.73014303437E-01  0.84564290153E-01  0.51100000000E-03 0.  1.
</event>
<event>
 8    1  0.1993226E+004  0.1043930E+01  0.7957747E-01            NaN
         13   -1    0    0    0    0  0.00000000000E+00  0.00000000000E+00  0.74505805969E-08  0.10566000000E+00  0.10566000000E+00 0.  1.
     999900   -1    0    0    0    0 -0.00000000000E+00 -0.00000000000E+00 -0.74505805969E-08  0.93827000000E+00  0.93827000000E+00 0.  1.
     999902    2    1    2    0    0  0.93067067216E-03 -0.13169555708E-01 -0.13627075949E-03  0.10307268975E+01  0.10306423314E+01 0.  0.
     999903    2    3    3    0    0 -0.43031841088E-01 -0.12721817843E+00  0.12389526184E-01  0.14219063693E+00  0.45038567946E-01 0.  0.
         14    1    1    2    0    0 -0.93067067216E-03  0.13169555708E-01  0.13627075949E-03  0.13203102482E-01  0.00000000000E+00 0. -1.
     999901    1    3    3    0    0  0.43962511760E-01  0.11404862272E+00 -0.12525796944E-01  0.88853626058E+00  0.88000000000E+00 0.  1.
        -11    1    4    4    0    0 -0.51506786033E-01 -0.10937623423E+00  0.16469265059E-01  0.12201478367E+00  0.51100000000E-03 0. -1.
         11    1    4    4    0    0  0.84749449451E-02 -0.17841944202E-01 -0.40797388751E-02  0.20175853266E-01  0.51100000000E-03 0.  1.
</event>
<event>
 8    1  0.1993226E+004  0.1043930E+01  0.7957747E-01            NaN
         13   -1    0    0    0    0  0.00000000000E+00  0.00000000000E+00  0.74505805969E-08  0.10566000000E+00  0.10566000000E+00 0. -1.
     999900   -1    0    0    0    0 -0.00000000000E+00 -0.00000000000E+00 -0.74505805969E-08  0.93827000000E+00  0.93827000000E+00 0.  1.
     999902    2    1    2    0    0 -0.80600242006E-02 -0.88352908245E-02 -0.27030334519E-02  0.10316689746E+01  0.10315961130E+01 0.  0.
     999903    2    3    3    0    0 -0.11425239131E+00 -0.59530048976E-01  0.45430979465E-01  0.14253250558E+00  0.40670697090E-01 0.  0.
         14    1    1    2    0    0  0.80600242006E-02  0.88352908245E-02  0.27030334519E-02  0.12261025402E-01  0.00000000000E+00 0.  1.
     999901    1    3    3    0    0  0.10619236711E+00  0.50694758152E-01 -0.48134012917E-01  0.88913646902E+00  0.88000000000E+00 0.  1.
        -11    1    4    4    0    0 -0.99916327963E-02  0.45436811968E-02  0.10666638692E-01  0.15313917420E-01  0.51100000000E-03 0.  1.
         11    1    4    4    0    0 -0.10426075851E+00 -0.64073730173E-01  0.34764340772E-01  0.12721858816E+00  0.51100000000E-03 0. -1.
</event>
<event>
 8    1  0.1993226E+004  0.1043930E+01  0.7957747E-01            NaN
         13   -1    0    0    0    0  0.00000000000E+00  0.00000000000E+00  0.74505805969E-08  0.10566000000E+00  0.10566000000E+00 0.  1.
     999900   -1    0    0    0    0 -0.00000000000E+00 -0.00000000000E+00 -0.74505805969E-08  0.93827000000E+00  0.93827000000E+00 0. -1.
     999902    2    1    2    0    0 -0.79279190346E-02 -0.10414135296E-01 -0.27103893039E-02  0.10305639114E+01  0.10304772308E+01 0.  0.
     999903    2    3    3    0    0  0.73033022167E-01 -0.35807159969E-02  0.11009400510E+00  0.13965078376E+00  0.45111058415E-01 0.  0.
         14    1    1    2    0    0  0.79279190346E-02  0.10414135296E-01  0.27103893039E-02  0.13366088596E-01  0.00000000000E+00 0. -1.
     999901    1    3    3    0    0 -0.80960941201E-01 -0.68334192987E-02 -0.11280439440E+00  0.89091312765E+00  0.88000000000E+00 0. -1.
        -11    1    4    4    0    0  0.18070554178E-01 -0.19062739354E-01  0.20142710096E-01  0.33104725508E-01  0.51100000000E-03 0.  1.
         11    1    4    4    0    0  0.54962467989E-01  0.15482023357E-01  0.89951295002E-01  0.10654605825E+00  0.51100000000E-03 0. -1.
</event>
<event>
 8    1  0.1993226E+004  0.1043930E+01  0.7957747E-01            NaN
         13   -1    0    0    0    0  0.00000000000E+00  0.00000000000E+00  0.74505805969E-08  0.10566000000E+00  0.10566000000E+00 0. -1.
     999900   -1    0    0    0    0 -0.00000000000E+00 -0.00000000000E+00 -0.74505805969E-08  0.93827000000E+00  0.93827000000E+00 0.  1.
     999902    2    1    2    0    0 -0.46580090542E-02 -0.42298666634E-02 -0.15381195209E-01  0.10273116371E+01  0.10271772143E+01 0.  0.
     999903    2    3    3    0    0 -0.56055756386E-01  0.11062194287E+00 -0.44069418424E-01  0.13789852679E+00  0.41163430157E-01 0.  0.
         14    1    1    2    0    0  0.46580090542E-02  0.42298666634E-02  0.15381195209E-01  0.16618362927E-01  0.00000000000E+00 0. -1.
     999901    1    3    3    0    0  0.51397747332E-01 -0.11485180954E+00  0.28688223215E-01  0.88941311028E+00  0.88000000000E+00 0. -1.
        -11    1    4    4    0    0 -0.35633288845E-01  0.49132628525E-01 -0.40577213810E-01  0.73010395570E-01  0.51100000000E-03 0.  1.
         11    1    4    4    0    0 -0.20422467541E-01  0.61489314350E-01 -0.34922046139E-02  0.64888131224E-01  0.51100000000E-03 0. -1.
</event>
<event>
 8    1  0.1993226E+004  0.1043930E+01  0.7957747E-01            NaN
         13   -1    0    0    0    0  0.00000000000E+00  0.00000000000E+00  0.74505805969E-08  0.10566000000E+00  0.10566000000E+00 0.  1.
     999900   -1    0    0    0    0 -0.00000000000E+00 -0.00000000000E+00 -0.74505805969E-08  0.93827000000E+00  0.93827000000E+00 0. -1.
     999902    2    1    2    0    0 -0.18517092538E-01  0.27286801543E-03  0.56976683839E-02  0.10245542265E+01  0.10243709985E+01 0.  0.
     999903    2    3    3    0    0 -0.43014209784E-01  0.11589843408E+00 -0.31009471450E-01  0.13589411467E+00  0.47148211173E-01 0.  0.
         14    1    1    2    0    0  0.18517092538E-01 -0.27286801543E-03 -0.56976683839E-02  0.19375773482E-01  0.00000000000E+00 0. -1.
     999901    1    3    3    0    0  0.24497117246E-01 -0.11562556606E+00  0.36707139834E-01  0.88866011185E+00  0.88000000000E+00 0.  1.
        -11    1    4    4    0    0 -0.11180486247E-01  0.59921512536E-01 -0.36852763148E-01  0.71231862323E-01  0.51100000000E-03 0. -1.
         11    1    4    4    0    0 -0.31833723537E-01  0.55976921541E-01  0.58432916979E-02  0.64662252344E-01  0.51100000000E-03 0.  1.
</event>
<event>
 8    1  0.1993226E+004  0.1043930E+01  0.7957747E-01            NaN
         13   -1    0    0    0    0  0.00000000000E+00  0.00000000000E+00  0.74505805969E-08  0.10566000000E+00  0.10566000000E+00 0.  1.
     999900   -1    0    0    0    0 -0.00000000000E+00 -0.00000000000E+00 -0.74505805969E-08  0.93827000000E+00  0.93827000000E+00 0.  1.
     999902    2    1    2    0    0  0.11785073601E-01  0.26986135855E-02 -0.69211954769E-02  0.10299989763E+01  0.10299047615E+01 0.  0.
     999903    2    3    3    0    0 -0.55332890623E-01  0.78693396564E-01 -0.90567579678E-01  0.14023679134E+00  0.47005230655E-01 0.  0.
         14    1    1    2    0    0 -0.11785073601E-01 -0.26986135855E-02  0.69211954769E-02  0.13931023720E-01  0.00000000000E+00 0.  1.
     999901    1    3    3    0    0  0.67117964224E-01 -0.75994782978E-01  0.83646384201E-01  0.88976218494E+00  0.88000000000E+00 0. -1.
        -11    1    4    4    0    0 -0.42153265236E-01  0.79985433140E-01 -0.89038267920E-01  0.12689618418E+00  0.51100000000E-03 0.  1.
         11    1    4    4    0    0 -0.13179625387E-01 -0.12920365765E-02 -0.15293117571E-02  0.13340607157E-01  0.51100000000E-03 0. -1.
</event>
<event>
 8    1  0.1993226E+004  0.1043930E+01  0.7957747E-01            NaN
         13   -1    0    0    0    0  0.00000000000E+00  0.00000000000E+00  0.74505805969E-08  0.10566000000E+00  0.10566000000E+00 0.  1.
     999900   -1    0    0    0    0 -0.00000000000E+00 -0.00000000000E+00 -0.74505805969E-08  0.93827000000E+00  0.93827000000E+00 0. -1.
     999902    2    1    2    0    0  0.36543293515E-02 -0.13403455703E-01 -0.13573820434E-02  0.10299711593E+01  0.10298765653E+01 0.  0.
     999903    2    3    3    0    0  0.67574569822E-01 -0.62419601511E-01 -0.97053510437E-01  0.14112576853E+00  0.45106202638E-01 0.  0.
         14    1    1    2    0    0 -0.36543293515E-02  0.13403455703E-01  0.13573820434E-02  0.13958840704E-01  0.00000000000E+00 0.  1.
     999901    1    3    3    0    0 -0.63920240471E-01  0.49016145808E-01  0.95696128394E-01  0.88884539076E+00  0.88000000000E+00 0.  1.
        -11    1    4    4    0    0  0.50830106047E-01 -0.24661736918E-01 -0.34613884672E-01  0.66259211296E-01  0.51100000000E-03 0. -1.
         11    1    4    4    0    0  0.16744463776E-01 -0.37757864593E-01 -0.62439625766E-01  0.74866557237E-01  0.51100000000E-03 0.  1.
</event>
<event>
 7    1  0.1993226E+004  0.1043930E+01  0.7957747E-01            NaN
         13   -1    0    0    0    0  0.00000000000E+00  0.00000000000E+00  0.74505805969E-08  0.10566000000E+00  0.10566000000E+00 0. -1.
     999900   -1    0    0    0    0 -0.00000000000E+00 -0.00000000000E+00 -0.74505805969E-08  0.93827000000E+00  0.93827000000E+00 0.  1.
     999903    2    1    2    0    0  0.76464391765E-01  0.19127221677E-02  0.88491551986E-01  0.12538572396E+00  0.45170380627E-01 0.  0.
         14    1    1    2    0    0 -0.12110963174E-02 -0.13729576146E-01 -0.30360578935E-01  0.33342656893E-01  0.00000000000E+00 0.  1.
     999901    1    1    2    0    0 -0.75253295447E-01  0.11816853978E-01 -0.58130973051E-01  0.88520161915E+00  0.88000000000E+00 0.  1.
        -11    1    3    3    0    0  0.25223606573E-01  0.17735061831E-01  0.14697715973E-01  0.34162065548E-01  0.51100000000E-03 0. -1.
         11    1    3    3    0    0  0.51240785191E-01 -0.15822339663E-01  0.73793836013E-01  0.91223658411E-01  0.51100000000E-03 0.  1.
</event>
<event>
 8    1  0.1993226E+004  0.1043930E+01  0.7957747E-01            NaN
         13   -1    0    0    0    0  0.00000000000E+00  0.00000000000E+00  0.74505805969E-08  0.10566000000E+00  0.10566000000E+00 0. -1.
     999900   -1    0    0    0    0 -0.00000000000E+00 -0.00000000000E+00 -0.74505805969E-08  0.93827000000E+00  0.93827000000E+00 0.  1.
     999902    2    1    2    0    0  0.47900148776E-02 -0.42474341793E-02 -0.12701094339E-01  0.10297066833E+01  0.10296084455E+01 0.  0.
     999903    2    3    3    0    0  0.11648934801E+00 -0.62321398625E-01 -0.18263542601E-01  0.14072959296E+00  0.44916994803E-01 0.  0.
         14    1    1    2    0    0 -0.47900148776E-02  0.42474341793E-02  0.12701094339E-01  0.14223316668E-01  0.00000000000E+00 0. -1.
     999901    1    3    3    0    0 -0.11169933313E+00  0.58073964446E-01  0.55624482626E-02  0.88897709037E+00  0.88000000000E+00 0. -1.
        -11    1    4    4    0    0  0.81232192199E-01 -0.28798127405E-01  0.59336393172E-02  0.86391379130E-01  0.51100000000E-03 0. -1.
         11    1    4    4    0    0  0.35257155808E-01 -0.33523271220E-01 -0.24197181919E-01  0.54338213834E-01  0.51100000000E-03 0.  1.
</event>
<event>
 8    1  0.1993226E+004  0.1043930E+01  0.7957747E-01            NaN
         13   -1    0    0    0    0  0.00000000000E+00  0.00000000000E+00  0.74505805969E-08  0.10566000000E+00  0.10566000000E+00 0. -1.
     999900   -1    0    0    0    0 -0.00000000000E+00 -0.00000000000E+00 -0.74505805969E-08  0.93827000000E+00  0.93827000000E+00 0. -1.
     999902    2    1    2    0    0 -0.13304453343E-01 -0.24655316689E-04 -0.31142726760E-02  0.10302658944E+01  0.10301752790E+01 0.  0.
     999903    2    3    3    0    0 -0.58523345808E-01 -0.21553405386E-01 -0.11873465228E+00  0.14129103118E+00  0.44448920696E-01 0.  0.
         14    1    1    2    0    0  0.13304453343E-01  0.24655316689E-04  0.31142726760E-02  0.13664105567E-01  0.00000000000E+00 0. -1.
     999901    1    3    3    0    0  0.45218892465E-01  0.21528750069E-01  0.11562037961E+00  0.88897486325E+00  0.88000000000E+00 0.  1.
        -11    1    4    4    0    0 -0.47024566150E-01  0.53067399196E-02 -0.75515955018E-01  0.89120098145E-01  0.51100000000E-03 0. -1.
         11    1    4    4    0    0 -0.11498779658E-01 -0.26860145306E-01 -0.43218697265E-01  0.52170933035E-01  0.51100000000E-03 0.  1.
</event>
<event>
 8    1  0.1993226E+004  0.1043930E+01  0.7957747E-01            NaN
         13   -1    0    0    0    0  0.00000000000E+00  0.00000000000E+00  0.74505805969E-08  0.10566000000E+00  0.10566000000E+00 0. -1.
     999900   -1    0    0    0    0 -0.00000000000E+00 -0.00000000000E+00 -0.74505805969E-08  0.93827000000E+00  0.93827000000E+00 0.  1.
     999902    2    1    2    0    0  0.13027862750E-01  0.72912235192E-02 -0.24349459133E-03  0.10289986090E+01  0.10288902715E+01 0.  0.
     999903    2    3    3    0    0 -0.31353247465E-01 -0.24834610322E-01 -0.12441455167E+00  0.13859409217E+00  0.46147131217E-01 0.  0.
         14    1    1    2    0    0 -0.13027862750E-01 -0.72912235192E-02  0.24349459133E-03  0.14931391022E-01  0.00000000000E+00 0. -1.
     999901    1    3    3    0    0  0.44381110215E-01  0.32125833841E-01  0.12417105708E+00  0.89040451681E+00  0.88000000000E+00 0. -1.
        -11    1    4    4    0    0 -0.13938474421E-01 -0.18501792444E-01 -0.14958225010E-01  0.27579104577E-01  0.51100000000E-03 0.  1.
         11    1    4    4    0    0 -0.17414773044E-01 -0.63328178784E-02 -0.10945632666E+00  0.11101498759E+00  0.51100000000E-03 0. -1.
</event>
<event>
 8    1  0.1993226E+004  0.1043930E+01  0.7957747E-01            NaN
         13   -1    0    0    0    0  0.00000000000E+00  0.00000000000E+00  0.74505805969E-08  0.10566000000E+00  0.10566000000E+00 0.  1.
     999900   -1    0    0    0    0 -0.00000000000E+00 -0.00000000000E+00 -0.74505805969E-08  0.93827000000E+00  0.93827000000E+00 0.  1.
     999902    2    1    2    0    0  0.56680984072E-03  0.43985397081E-02  0.11860423772E-01  0.10312675327E+01  0.10311897915E+01 0.  0.
     999903    2    3    3    0    0  0.29926459745E-01 -0.35587492373E-01  0.12731674874E+00  0.14234063205E+00  0.43465370308E-01 0.  0.
         14    1    1    2    0    0 -0.56680984072E-03 -0.43985397081E-02 -0.11860423772E-01  0.12662467256E-01  0.00000000000E+00 0. -1.
     999901    1    3    3    0    0 -0.29359649904E-01  0.39986032081E-01 -0.11545632497E+00  0.88892690069E+00  0.88000000000E+00 0.  1.
        -11    1    4    4    0    0 -0.30760034053E-02  0.31595141771E-02  0.47293854165E-01  0.47501727227E-01  0.51100000000E-03 0.  1.
         11    1    4    4    0    0  0.33002463150E-01 -0.38747006550E-01  0.80022894575E-01  0.94838904821E-01  0.51100000000E-03 0. -1.
</event>
<event>
 8    1  0.1993226E+004  0.1043930E+01  0.7957747E-01            NaN
         13   -1    0    0    0    0  0.00000000000E+00  0.00000000000E+00  0.74505805969E-08  0.10566000000E+00  0.10566000000E+00 0. -1.
     999900   -1    0    0    0    0 -0.00000000000E+00 -0.00000000000E+00 -0.74505805969E-08  0.93827000000E+00  0.93827000000E+00 0. -1.
     999902    2    1    2    0    0  0.70516640361E-02  0.75642516215E-02 -0.10569684742E-01  0.10291427723E+01  0.10290365317E+01 0.  0.
     999903    2    3    3    0    0  0.10484840670E+00  0.67877363405E-01  0.45416233817E-01  0.13990922736E+00  0.43719935457E-01 0.  0.
         14    1    1    2    0    0 -0.70516640361E-02 -0.75642516215E-02  0.10569684742E-01  0.14787227726E-01  0.00000000000E+00 0. -1.
     999901    1    3    3    0    0 -0.97796742659E-01 -0.60313111784E-01 -0.55985918559E-01  0.88923354492E+00  0.88000000000E+00 0.  1.
        -11    1    4    4    0    0  0.80734870397E-01  0.30771173408E-01  0.19331127099E-01  0.88537777287E-01  0.51100000000E-03 0.  1.
         11    1    4    4    0    0  0.24113536298E-01  0.37106189998E-01  0.26085106718E-01  0.51371450071E-01  0.51100000000E-03 0. -1.
</event>
<event>
 8    1  0.1993226E+004  0.1043930E+01  0.7957747E-01            NaN
         13   -1    0    0    0    0  0.00000000000E+00  0.00000000000E+00  0.74505805969E-08  0.10566000000E+00  0.10566000000E+00 0. -1.
     999900   -1    0    0    0    0 -0.00000000000E+00 -0.00000000000E+00 -0.74505805969E-08  0.93827000000E+00  0.93827000000E+00 0. -1.
     999902    2    1    2    0    0  0.85639463980E-03  0.11207673688E-01 -0.12211842563E-01  0.10273325767E+01  0.10271984953E+01 0.  0.
     999903    2    3    3    0    0  0.11258181314E+00  0.24703536913E-02  0.64363244787E-01  0.13692668392E+00  0.43880772486E-01 0.  0.
         14    1    1    2    0    0 -0.85639463980E-03 -0.11207673688E-01  0.12211842563E-01  0.16597423296E-01  0.00000000000E+00 0. -1.
     999901    1    3    3    0    0 -0.11172541850E+00  0.87373199969E-02 -0.76575087350E-01  0.89040589278E+00  0.88000000000E+00 0. -1.
        -11    1    4    4    0    0  0.17523464255E-01  0.12114781398E-01  0.26850198324E-01  0.34278768922E-01  0.51100000000E-03 0. -1.
         11    1    4    4    0    0  0.95058348881E-01 -0.96444277065E-02  0.37513046463E-01  0.10264791500E+00  0.51100000000E-03 0.  1.
</event>
<event>
 8    1  0.1993226E+004  0.1043930E+01  0.7957747E-01            NaN
         13   -1    0    0    0    0  0.00000000000E+00  0.00000000000E+00  0.74505805969E-08  0.10566000000E+00  0.10566000000E+00 0. -1.
     999900   -1    0    0    0    0 -0.00000000000E+00 -0.00000000000E+00 -0.74505805969E-08  0.93827000000E+00  0.93827000000E+00 0. -1.
     999902    2    1    2    0    0  0.79857979097E-02 -0.10718356475E-01  0.32438510393E-02  0.10301757751E+01  0.10300839523E+01 0.  0.
     999903    2    3    3    0    0  0.65457577319E-01  0.66478326000E-01 -0.93038177581E-01  0.13970816631E+00  0.46456506444E-01 0.  0.
         14    1    1    2    0    0 -0.79857979097E-02  0.10718356475E-01 -0.32438510393E-02  0.13754224927E-01  0.00000000000E+00 0.  1.
     999901    1    3    3    0    0 -0.57471779410E-01 -0.77196682475E-01  0.96282028620E-01  0.89046760876E+00  0.88000000000E+00 0.  1.
        -11    1    4    4    0    0  0.28271601640E-01  0.59624837722E-01 -0.53036974218E-01  0.84661599843E-01  0.51100000000E-03 0. -1.
         11    1    4    4    0    0  0.37185975679E-01  0.68534882773E-02 -0.40001203363E-01  0.55046566471E-01  0.51100000000E-03 0.  1.
</event>
<event>
 8    1  0.1993226E+004  0.1043930E+01  0.7957747E-01            NaN
         13   -1    0    0    0    0  0.00000000000E+00  0.00000000000E+00  0.74505805969E-08  0.10566000000E+00  0.10566000000E+00 0. -1.
     999900   -1    0    0    0    0 -0.00000000000E+00 -0.00000000000E+00 -0.74505805969E-08  0.93827000000E+00  0.93827000000E+00 0. -1.
     999902    2    1    2    0    0 -0.11160208443E-01 -0.40537953132E-02 -0.48596756907E-02  0.10311003485E+01  0.10310205278E+01 0.  0.
     999903    2    3    3    0    0 -0.23022426644E-01  0.72317161925E-01 -0.11032178909E+00  0.14144002420E+00  0.45547549455E-01 0.  0.
         14    1    1    2    0    0  0.11160208443E-01  0.40537953132E-02  0.48596756907E-02  0.12829651466E-01  0.00000000000E+00 0.  1.
     999901    1    3    3    0    0  0.11862218202E-01 -0.76370957238E-01  0.10546211340E+00  0.88966032433E+00  0.88000000000E+00 0.  1.
        -11    1    4    4    0    0 -0.93873566638E-02  0.21707100718E-01 -0.73946004353E-01  0.77637577032E-01  0.51100000000E-03 0. -1.
         11    1    4    4    0    0 -0.13635069981E-01  0.50610061207E-01 -0.36375784733E-01  0.63802447169E-01  0.51100000000E-03 0.  1.
</event>
<event>
 8    1  0.1993226E+004  0.1043930E+01  0.7957747E-01            NaN
         13   -1    0    0    0    0  0.00000000000E+00  0.00000000000E+00  0.74505805969E-08  0.10566000000E+00  0.10566000000E+00 0. -1.
     999900   -1    0    0    0    0 -0.00000000000E+00 -0.00000000000E+00 -0.74505805969E-08  0.93827000000E+00  0.93827000000E+00 0.  1.
     999902    2    1    2    0    0 -0.65123135837E-02 -0.17672611376E-01 -0.66100336913E-02  0.10239694397E+01  0.10237748725E+01 0.  0.
     999903    2    3    3    0    0  0.78115925678E-01  0.96241791901E-01  0.11569184558E-01  0.13241522705E+00  0.45115030442E-01 0.  0.
         14    1    1    2    0    0  0.65123135837E-02  0.17672611376E-01  0.66100336913E-02  0.19960560274E-01  0.00000000000E+00 0. -1.
     999901    1    3    3    0    0 -0.84628239262E-01 -0.11391440328E+00 -0.18179218249E-01  0.89155421267E+00  0.88000000000E+00 0.  1.
        -11    1    4    4    0    0  0.48807490482E-02  0.37835255710E-01  0.54663450275E-02  0.38541799839E-01  0.51100000000E-03 0. -1.
         11    1    4    4    0    0  0.73235176630E-01  0.58406536191E-01  0.61028395300E-02  0.93873427216E-01  0.51100000000E-03 0.  1.
</event>
<event>
 8    1  0.3159270E+004  0.1043930E+01  0.7957747E-01            NaN
         13   -1    0    0    0    0  0.00000000000E+00  0.00000000000E+00  0.74505805969E-08  0.10566000000E+00  0.10566000000E+00 0.  1.
     999900   -1    0    0    0    0 -0.00000000000E+00 -0.00000000000E+00 -0.74505805969E-08  0.93827000000E+00  0.93827000000E+00 0.  1.
     999902    2    1    2    0    0 -0.14299768810E-01  0.13808183906E-01  0.10516617232E-01  0.10214411457E+01  0.10211935495E+01 0.  0.
     999903    2    3    3    0    0  0.60252010100E-01 -0.58558398830E-02  0.10898930442E+00  0.13259835210E+00  0.45155940035E-01 0.  0.
         14    1    1    2    0    0  0.14299768810E-01 -0.13808183906E-01 -0.10516617232E-01  0.22488854324E-01  0.00000000000E+00 0. -1.
     999901    1    3    3    0    0 -0.74551778910E-01  0.19664023789E-01 -0.98472687186E-01  0.88884279358E+00  0.88000000000E+00 0.  1.
        -11    1    4    4    0    0  0.15233876704E-01  0.16642340602E-01  0.51274548265E-01  0.56021236338E-01  0.51100000000E-03 0. -1.
         11    1    4    4    0    0  0.45018133396E-01 -0.22498180485E-01  0.57714756153E-01  0.76577115762E-01  0.51100000000E-03 0.  1.
</event>
<event>
 8    1  0.1993226E+004  0.1043930E+01  0.7957747E-01            NaN
         13   -1    0    0    0    0  0.00000000000E+00  0.00000000000E+00  0.74505805969E-08  0.10566000000E+00  0.10566000000E+00 0.  1.
     999900   -1    0    0    0    0 -0.00000000000E+00 -0.00000000000E+00 -0.74505805969E-08  0.93827000000E+00  0.93827000000E+00 0. -1.
     999902    2    1    2    0    0 -0.75694015274E-02  0.71542644784E-02  0.90980281735E-02  0.10301005583E+01  0.10300077217E+01 0.  0.
     999903    2    3    3    0    0  0.76809601484E-01  0.10626447031E+00 -0.20400005106E-01  0.14003719936E+00  0.44748234227E-01 0.  0.
         14    1    1    2    0    0  0.75694015274E-02 -0.71542644784E-02 -0.90980281735E-02  0.13829441650E-01  0.00000000000E+00 0. -1.
     999901    1    3    3    0    0 -0.84379003012E-01 -0.99110205829E-01  0.29498033279E-01  0.89006335899E+00  0.88000000000E+00 0.  1.
        -11    1    4    4    0    0  0.36811662374E-01  0.86077653833E-01 -0.16482746995E-01  0.95059997084E-01  0.51100000000E-03 0.  1.
         11    1    4    4    0    0  0.39997939111E-01  0.20186816474E-01 -0.39172581108E-02  0.44977202276E-01  0.51100000000E-03 0. -1.
</event>
<event>
 7    1  0.1993226E+004  0.1043930E+01  0.7957747E-01            NaN
         13   -1    0    0    0    0  0.00000000000E+00  0.00000000000E+00  0.74505805969E-08  0.10566000000E+00  0.10566000000E+00 0. -1.
     999900   -1    0    0    0    0 -0.00000000000E+00 -0.00000000000E+00 -0.74505805969E-08  0.93827000000E+00  0.93827000000E+00 0. -1.
     999903    2    1    2    0    0  0.27654999273E-01 -0.10457119054E+00  0.12812072592E-02  0.11721436598E+00  0.45140150916E-01 0.  0.
         14    1    1    2    0    0 -0.16387373882E-01 -0.31464475587E-01 -0.70660448681E-02  0.36173031899E-01  0.00000000000E+00 0.  1.
     999901    1    1    2    0    0 -0.11267625390E-01  0.13603566613E+00  0.57848376089E-02  0.89054260212E+00  0.88000000000E+00 0.  1.
        -11    1    3    3    0    0  0.24642419719E-02 -0.42382567188E-01 -0.19847839661E-01  0.46867391118E-01  0.51100000000E-03 0.  1.
         11    1    3    3    0    0  0.25190757301E-01 -0.62188623353E-01  0.21129046920E-01  0.70346974865E-01  0.51100000000E-03 0. -1.
</event>
<event>
 8    1  0.1993226E+004  0.1043930E+01  0.7957747E-01            NaN
         13   -1    0    0    0    0  0.00000000000E+00  0.00000000000E+00  0.74505805969E-08  0.10566000000E+00  0.10566000000E+00 0. -1.
     999900   -1    0    0    0    0 -0.00000000000E+00 -0.00000000000E+00 -0.74505805969E-08  0.93827000000E+00  0.93827000000E+00 0.  1.
     999902    2    1    2    0    0  0.27366031786E-02  0.14177814100E-02  0.13739108356E-01  0.10298494389E+01  0.10297531766E+01 0.  0.
     999903    2    3    3    0    0 -0.12669683173E+00  0.28685241023E-01 -0.21904098936E-01  0.13925022120E+00  0.45120996575E-01 0.  0.
         14    1    1    2    0    0 -0.27366031786E-02 -0.14177814100E-02 -0.13739108356E-01  0.14080561051E-01  0.00000000000E+00 0.  1.
     999901    1    3    3    0    0  0.12943343491E+00 -0.27267459613E-01  0.35643207292E-01  0.89059921775E+00  0.88000000000E+00 0.  1.
        -11    1    4    4    0    0 -0.11897242225E+00  0.19228134622E-01 -0.30489911186E-01  0.12431433635E+00  0.51100000000E-03 0. -1.
         11    1    4    4    0    0 -0.77244094765E-02  0.94571064009E-02  0.85858122503E-02  0.14935884849E-01  0.51100000000E-03 0.  1.
</event>
<event>
 8    1  0.1993226E+004  0.1043930E+01  0.7957747E-01            NaN
         13   -1    0    0    0    0  0.00000000000E+00  0.00000000000E+00  0.74505805969E-08  0.10566000000E+00  0.10566000000E+00 0. -1.
     999900   -1    0    0    0    0 -0.00000000000E+00 -0.00000000000E+00 -0.74505805969E-08  0.93827000000E+00  0.93827000000E+00 0.  1.
     999902    2    1    2    0    0  0.89903525517E-02 -0.18217011896E-01  0.12341607430E-01  0.10201602454E+01  0.10198832899E+01 0.  0.
     999903    2    3    3    0    0 -0.95273227600E-01 -0.23040531890E-01 -0.71668226705E-01  0.13001878879E+00  0.46483294969E-01 0.  0.
         14    1    1    2    0    0 -0.89903525517E-02  0.18217011896E-01 -0.12341607430E-01  0.23769754634E-01  0.00000000000E+00 0. -1.
     999901    1    3    3    0    0  0.10426358015E+00  0.48235199945E-02  0.84009834135E-01  0.89014145658E+00  0.88000000000E+00 0. -1.
        -11    1    4    4    0    0 -0.77528402209E-01 -0.10776621963E-01 -0.74737130250E-01  0.10822517493E+00  0.51100000000E-03 0. -1.
         11    1    4    4    0    0 -0.17744825391E-01 -0.12263909927E-01  0.30689035448E-02  0.21793613854E-01  0.51100000000E-03 0.  1.
</event>
<event>
 8    1  0.1993226E+004  0.1043930E+01  0.7957747E-01            NaN
         13   -1    0    0    0    0  0.00000000000E+00  0.00000000000E+00  0.74505805969E-08  0.10566000000E+00  0.10566000000E+00 0.  1.
     999900   -1    0    0    0    0 -0.00000000000E+00 -0.00000000000E+00 -0.74505805969E-08  0.93827000000E+00  0.93827000000E+00 0. -1.
     999902    2    1    2    0    0 -0.12101933965E-01  0.37225304717E-02  0.11096606571E-01  0.10270940647E+01  0.10269560697E+01 0.  0.
     999903    2    3    3    0    0 -0.10985892344E+00  0.42113448399E-01  0.59606245952E-01  0.13952239063E+00  0.45508980804E-01 0.  0.
         14    1    1    2    0    0  0.12101933965E-01 -0.37225304717E-02 -0.11096606571E-01  0.16835935263E-01  0.00000000000E+00 0. -1.
     999901    1    3    3    0    0  0.97756989476E-01 -0.38390917928E-01 -0.48509639381E-01  0.88757167411E+00  0.88000000000E+00 0. -1.
        -11    1    4    4    0    0 -0.21682737373E-01 -0.95306312802E-02  0.77227947744E-02  0.24917397792E-01  0.51100000000E-03 0.  1.
         11    1    4    4    0    0 -0.88176186067E-01  0.51644079679E-01  0.51883451178E-01  0.11460499283E+00  0.51100000000E-03 0. -1.
</event>
<event>
 8    1  0.1993226E+004  0.1043930E+01  0.7957747E-01            NaN
         13   -1    0    0    0    0  0.00000000000E+00  0.00000000000E+00  0.74505805969E-08  0.10566000000E+00  0.10566000000E+00 0. -1.
     999900   -1    0    0    0    0 -0.00000000000E+00 -0.00000000000E+00 -0.74505805969E-08  0.93827000000E+00  0.93827000000E+00 0.  1.
     999902    2    1    2    0    0  0.12206808339E-01  0.45084977674E-02 -0.41212019136E-02  0.10302802005E+01  0.10301897759E+01 0.  0.
     999903    2    3    3    0    0 -0.99377517665E-01 -0.45078882675E-01 -0.73792629900E-01  0.13912136054E+00  0.44737054561E-01 0.  0.
         14    1    1    2    0    0 -0.12206808339E-01 -0.45084977674E-02  0.41212019136E-02  0.13649799528E-01  0.00000000000E+00 0. -1.
     999901    1    3    3    0    0  0.11158432600E+00  0.49587380442E-01  0.69671427987E-01  0.89115883993E+00  0.88000000000E+00 0.  1.
        -11    1    4    4    0    0 -0.22028542246E-01 -0.30233748258E-01 -0.12926438073E-01  0.39581436678E-01  0.51100000000E-03 0.  1.
         11    1    4    4    0    0 -0.77348975419E-01 -0.14845134417E-01 -0.60866191827E-01  0.99539923864E-01  0.51100000000E-03 0. -1.
</event>
<event>
 8    1  0.1993226E+004  0.1043930E+01  0.7957747E-01            NaN
         13   -1    0    0    0    0  0.00000000000E+00  0.00000000000E+00  0.74505805969E-08  0.10566000000E+00  0.10566000000E+00 0. -1.
     999900   -1    0    0    0    0 -0.00000000000E+00 -0.00000000000E+00 -0.74505805969E-08  0.93827000000E+00  0.93827000000E+00 0. -1.
     999902    2    1    2    0    0 -0.10472528420E-01  0.83719176947E-02  0.96792325608E-02  0.10273936642E+01  0.10272605760E+01 0.  0.
     999903    2    3    3    0    0 -0.42828085642E-01 -0.11550388644E+00 -0.38674665030E-01  0.13681509031E+00  0.45246508353E-01 0.  0.
         14    1    1    2    0    0  0.10472528420E-01 -0.83719176947E-02 -0.96792325608E-02  0.16536335760E-01  0.00000000000E+00 0. -1.
     999901    1    3    3    0    0  0.32355557222E-01  0.12387580414E+00  0.48353897591E-01  0.89057857393E+00  0.88000000000E+00 0. -1.
        -11    1    4    4    0    0  0.14570958568E-02 -0.48568187372E-01 -0.21665305347E-02  0.48641000489E-01  0.51100000000E-03 0.  1.
         11    1    4    4    0    0 -0.44285181499E-01 -0.66935699069E-01 -0.36508134496E-01  0.88174089820E-01  0.51100000000E-03 0. -1.
</event>
<event>
 8    1  0.1993226E+004  0.1043930E+01  0.7957747E-01            NaN
         13   -1    0    0    0    0  0.00000000000E+00  0.00000000000E+00  0.74505805969E-08  0.10566000000E+00  0.10566000000E+00 0. -1.
     999900   -1    0    0    0    0 -0.00000000000E+00 -0.00000000000E+00 -0.74505805969E-08  0.93827000000E+00  0.93827000000E+00 0.  1.
     999902    2    1    2    0    0  0.12597911160E-01 -0.28705708258E-02  0.10971873062E-02  0.10309626810E+01  0.10308811271E+01 0.  0.
     999903    2    3    3    0    0 -0.88801294469E-01 -0.46222337354E-02  0.98375962619E-01  0.13981284658E+00  0.44303127485E-01 0.  0.
         14    1    1    2    0    0 -0.12597911160E-01  0.28705708258E-02 -0.10971873062E-02  0.12967319015E-01  0.00000000000E+00 0. -1.
     999901    1    3    3    0    0  0.10139920563E+00  0.17516629096E-02 -0.97278775312E-01  0.89114983440E+00  0.88000000000E+00 0.  1.
        -11    1    4    4    0    0 -0.16937453487E-01  0.41217283647E-02  0.49450119512E-01  0.52435116249E-01  0.51100000000E-03 0.  1.
         11    1    4    4    0    0 -0.71863840982E-01 -0.87439621002E-02  0.48925843107E-01  0.87377730336E-01  0.51100000000E-03 0. -1.
</event>
<event>
 8    1  0.1993226E+004  0.1043930E+01  0.7957747E-01            NaN
         13   -1    0    0    0    0  0.00000000000E+00  0.00000000000E+00  0.74505805969E-08  0.10566000000E+00  0.10566000000E+00 0.  1.
     999900   -1    0    0    0    0 -0.00000000000E+00 -0.00000000000E+00 -0.74505805969E-08  0.93827000000E+00  0.93827000000E+00 0.  1.
     999902    2    1    2    0    0 -0.10281083374E-01 -0.97933229924E-02 -0.31957472027E-02  0.10293758717E+01  0.10292729777E+01 0.  0.
     999903    2    3    3    0    0  0.81386433301E-01 -0.23776240229E-01  0.99544057883E-01  0.13855943542E+00  0.45832701853E-01 0.  0.
         14    1    1    2    0    0  0.10281083374E-01  0.97933229924E-02  0.31957472027E-02  0.14554128306E-01  0.00000000000E+00 0.  1.
     999901    1    3    3    0    0 -0.91667516675E-01  0.13982917237E-01 -0.10273980509E+00  0.89081643627E+00  0.88000000000E+00 0.  1.
        -11    1    4    4    0    0  0.68208108356E-01 -0.31876430023E-02  0.88366057439E-01  0.11167510171E+00  0.51100000000E-03 0. -1.
         11    1    4    4    0    0  0.13178324945E-01 -0.20588597227E-01  0.11178000443E-01  0.26884333710E-01  0.51100000000E-03 0.  1.
</event>
<event>
 8    1  0.1993226E+004  0.1043930E+01  0.7957747E-01            NaN
         13   -1    0    0    0    0  0.00000000000E+00  0.00000000000E+00  0.74505805969E-08  0.10566000000E+00  0.10566000000E+00 0.  1.
     999900   -1    0    0    0    0 -0.00000000000E+00 -0.00000000000E+00 -0.74505805969E-08  0.93827000000E+00  0.93827000000E+00 0. -1.
     999902    2    1    2    0    0 -0.88811083259E-02 -0.88542401803E-02 -0.61059490662E-02  0.10299817288E+01  0.10298872790E+01 0.  0.
     999903    2    3    3    0    0 -0.55992442883E-01 -0.76090945161E-01  0.93900367405E-01  0.14052036618E+00  0.44762805055E-01 0.  0.
         14    1    1    2    0    0  0.88811083259E-02  0.88542401803E-02  0.61059490662E-02  0.13948271157E-01  0.00000000000E+00 0.  1.
     999901    1    3    3    0    0  0.47111334557E-01  0.67236704981E-01 -0.10000631647E+00  0.88946136267E+00  0.88000000000E+00 0. -1.
        -11    1    4    4    0    0  0.46247942116E-02 -0.12731631765E-01  0.23624585842E-02  0.13759560329E-01  0.51100000000E-03 0. -1.
         11    1    4    4    0    0 -0.60617237095E-01 -0.63359313396E-01  0.91537908821E-01  0.12676080585E+00  0.51100000000E-03 0.  1.
</event>
<event>
 8    1  0.1993226E+004  0.1043930E+01  0.7957747E-01            NaN
         13   -1    0    0    0    0  0.00000000000E+00  0.00000000000E+00  0.74505805969E-08  0.10566000000E+00  0.10566000000E+00 0.  1.
     999900   -1    0    0    0    0 -0.00000000000E+00 -0.00000000000E+00 -0.74505805969E-08  0.93827000000E+00  0.93827000000E+00 0. -1.
     999902    2    1    2    0    0  0.10691126875E-01 -0.16472465648E-02  0.13583804152E-01  0.10265652843E+01  0.10264184087E+01 0.  0.
     999903    2    3    3    0    0 -0.76644512682E-01 -0.71646235685E-01  0.76466822477E-01  0.13725001604E+00  0.44528951835E-01 0.  0.
         14    1    1    2    0    0 -0.10691126875E-01  0.16472465648E-02 -0.13583804152E-01  0.17364715671E-01  0.00000000000E+00 0. -1.
     999901    1    3    3    0    0  0.87335639557E-01  0.69998989120E-01 -0.62883018325E-01  0.88931526829E+00  0.88000000000E+00 0. -1.
        -11    1    4    4    0    0 -0.54382269821E-01 -0.61016220018E-01  0.34822165271E-01  0.88843990744E-01  0.51100000000E-03 0. -1.
         11    1    4    4    0    0 -0.22262242861E-01 -0.10630015667E-01  0.41644657206E-01  0.48406025298E-01  0.51100000000E-03 0.  1.
</event>
<event>
 8    1  0.1993226E+004  0.1043930E+01  0.7957747E-01            NaN
         13   -1    0    0    0    0  0.00000000000E+00  0.00000000000E+00  0.74505805969E-08  0.10566000000E+00  0.10566000000E+00 0. -1.
     999900   -1    0    0    0    0 -0.00000000000E+00 -0.00000000000E+00 -0.74505805969E-08  0.93827000000E+00  0.93827000000E+00 0. -1.
     999902    2    1    2    0    0  0.40606660279E-02  0.14022584922E-01 -0.55546462446E-02  0.10283102692E+01  0.10281916328E+01 0.  0.
     999903    2    3    3    0    0  0.19024494859E-01  0.13099804396E+00 -0.14902608669E-01  0.14039441809E+00  0.44340567877E-01 0.  0.
         14    1    1    2    0    0 -0.40606660279E-02 -0.14022584922E-01  0.55546462446E-02  0.15619730836E-01  0.00000000000E+00 0. -1.
     999901    1    3    3    0    0 -0.14963828831E-01 -0.11697545904E+00  0.93479624242E-02  0.88791585108E+00  0.88000000000E+00 0. -1.
        -11    1    4    4    0    0  0.28967368748E-01  0.74614988609E-01  0.38820317499E-02  0.80136360467E-01  0.51100000000E-03 0.  1.
         11    1    4    4    0    0 -0.99428738892E-02  0.56383055349E-01 -0.18784640419E-01  0.60258057622E-01  0.51100000000E-03 0. -1.
</event>
<event>
 8    1  0.1993226E+004  0.1043930E+01  0.7957747E-01            NaN
         13   -1    0    0    0    0  0.00000000000E+00  0.00000000000E+00  0.74505805969E-08  0.10566000000E+00  0.10566000000E+00 0.  1.
     999900   -1    0    0    0    0 -0.00000000000E+00 -0.00000000000E+00 -0.74505805969E-08  0.93827000000E+00  0.93827000000E+00 0.  1.
     999902    2    1    2    0    0  0.10678873845E-01 -0.38083814702E-02 -0.78072043485E-02  0.10301642978E+01  0.10300723208E+01 0.  0.
     999903    2    3    3    0    0  0.89158199707E-01 -0.98007135745E-01 -0.21737648334E-01  0.14155500960E+00  0.44840965142E-01 0.  0.
         14    1    1    2    0    0 -0.10678873845E-01  0.38083814702E-02  0.78072043485E-02  0.13765702153E-01  0.00000000000E+00 0.  1.
     999901    1    3    3    0    0 -0.78479325862E-01  0.94198754275E-01  0.13930443986E-01  0.88860928825E+00  0.88000000000E+00 0. -1.
        -11    1    4    4    0    0  0.68358160418E-02 -0.36150394772E-01 -0.81822518482E-02  0.37693365324E-01  0.51100000000E-03 0.  1.
         11    1    4    4    0    0  0.82322383665E-01 -0.61856740973E-01 -0.13555396486E-01  0.10386164427E+00  0.51100000000E-03 0. -1.
</event>
<event>
 8    1  0.1993226E+004  0.1043930E+01  0.7957747E-01            NaN
         13   -1    0    0    0    0  0.00000000000E+00  0.00000000000E+00  0.74505805969E-08  0.10566000000E+00  0.10566000000E+00 0.  1.
     999900   -1    0    0    0    0 -0.00000000000E+00 -0.00000000000E+00 -0.74505805969E-08  0.93827000000E+00  0.93827000000E+00 0.  1.
     999902    2    1    2    0    0 -0.24739638325E-02  0.10857165279E-01  0.80121167686E-02  0.10302116710E+01  0.10301203301E+01 0.  0.
     999903    2    3    3    0    0 -0.20157380971E-01 -0.12365037502E+00 -0.38959685701E-01  0.13857759144E+00  0.44611169997E-01 0.  0.
         14    1    1    2    0    0  0.24739638325E-02 -0.10857165279E-01 -0.80121167686E-02  0.13718328982E-01  0.00000000000E+00 0.  1.
     999901    1    3    3    0    0  0.17683417138E-01  0.13450754030E+00  0.46971802470E-01  0.89163407958E+00  0.88000000000E+00 0. -1.
        -11    1    4    4    0    0  0.13421990051E-01 -0.50993662918E-01 -0.11652533296E-01  0.54005056504E-01  0.51100000000E-03 0. -1.
         11    1    4    4    0    0 -0.33579371022E-01 -0.72656712104E-01 -0.27307152406E-01  0.84572534935E-01  0.51100000000E-03 0.  1.
</event>
<event>
 8    1  0.1993226E+004  0.1043930E+01  0.7957747E-01            NaN
         13   -1    0    0    0    0  0.00000000000E+00  0.00000000000E+00  0.74505805969E-08  0.10566000000E+00  0.10566000000E+00 0.  1.
     999900   -1    0    0    0    0 -0.00000000000E+00 -0.00000000000E+00 -0.74505805969E-08  0.93827000000E+00  0.93827000000E+00 0.  1.
     999902    2    1    2    0    0 -0.28294755688E-02  0.52465015658E-02 -0.10826345264E-01  0.10315711383E+01  0.10314971022E+01 0.  0.
     999903    2    3    3    0    0  0.51772420118E-02 -0.12977687425E+00 -0.32186560023E-01  0.14098050377E+00  0.44392419074E-01 0.  0.
         14    1    1    2    0    0  0.28294755688E-02 -0.52465015658E-02  0.10826345264E-01  0.12358861698E-01  0.00000000000E+00 0.  1.
     999901    1    3    3    0    0 -0.80067175806E-02  0.13502337582E+00  0.21360214759E-01  0.89059063453E+00  0.88000000000E+00 0.  1.
        -11    1    4    4    0    0  0.21671502713E-01 -0.35871327381E-01 -0.97755343065E-02  0.43037522581E-01  0.51100000000E-03 0. -1.
         11    1    4    4    0    0 -0.16494260701E-01 -0.93905546872E-01 -0.22411025717E-01  0.97942981188E-01  0.51100000000E-03 0.  1.
</event>
<event>
 8    1  0.1993226E+004  0.1043930E+01  0.7957747E-01            NaN
         13   -1    0    0    0    0  0.00000000000E+00  0.00000000000E+00  0.74505805969E-08  0.10566000000E+00  0.10566000000E+00 0.  1.
     999900   -1    0    0    0    0 -0.00000000000E+00 -0.00000000000E+00 -0.74505805969E-08  0.93827000000E+00  0.93827000000E+00 0. -1.
     999902    2    1    2    0    0 -0.25655463419E-02 -0.10665176146E-01 -0.84357108496E-02  0.10300920367E+01  0.10299990849E+01 0.  0.
     999903    2    3    3    0    0 -0.40876592851E-01 -0.11666481402E+00  0.50236342410E-01  0.14096546004E+00  0.45453230385E-01 0.  0.
         14    1    1    2    0    0  0.25655463419E-02  0.10665176146E-01  0.84357108496E-02  0.13837963282E-01  0.00000000000E+00 0.  1.
     999901    1    3    3    0    0  0.38311046509E-01  0.10599963788E+00 -0.58672053260E-01  0.88912657667E+00  0.88000000000E+00 0.  1.
        -11    1    4    4    0    0 -0.33095859782E-01 -0.72271999045E-01  0.53431759126E-01  0.95779913264E-01  0.51100000000E-03 0.  1.
         11    1    4    4    0    0 -0.77807330696E-02 -0.44392814978E-01 -0.31954167157E-02  0.45185546780E-01  0.51100000000E-03 0. -1.
</event>
<event>
 8    1  0.1993226E+004  0.1043930E+01  0.7957747E-01            NaN
         13   -1    0    0    0    0  0.00000000000E+00  0.00000000000E+00  0.74505805969E-08  0.10566000000E+00  0.10566000000E+00 0. -1.
     999900   -1    0    0    0    0 -0.00000000000E+00 -0.00000000000E+00 -0.74505805969E-08  0.93827000000E+00  0.93827000000E+00 0. -1.
     999902    2    1    2    0    0  0.17382066249E-02  0.10496179261E-02  0.13005171015E-01  0.10307672673E+01  0.10306832208E+01 0.  0.
     999903    2    3    3    0    0 -0.12781173733E+00  0.32227009025E-01 -0.15715376099E-01  0.14027297333E+00  0.45333361775E-01 0.  0.
         14    1    1    2    0    0 -0.17382066249E-02 -0.10496179261E-02 -0.13005171015E-01  0.13162732741E-01  0.00000000000E+00 0.  1.
     999901    1    3    3    0    0  0.12954994396E+00 -0.31177391099E-01  0.28720547114E-01  0.89049429393E+00  0.88000000000E+00 0.  1.
        -11    1    4    4    0    0 -0.15970250254E-01 -0.64482308228E-02 -0.13536984635E-01  0.21912089082E-01  0.51100000000E-03 0. -1.
         11    1    4    4    0    0 -0.11184148708E+00  0.38675239848E-01 -0.21783914638E-02  0.11836088425E+00  0.51100000000E-03 0.  1.
</event>
<event>
 8    1  0.1993226E+004  0.1043930E+01  0.7957747E-01            NaN
         13   -1    0    0    0    0  0.00000000000E+00  0.00000000000E+00  0.74505805969E-08  0.10566000000E+00  0.10566000000E+00 0. -1.
     999900   -1    0    0    0    0 -0.00000000000E+00 -0.00000000000E+00 -0.74505805969E-08  0.93827000000E+00  0.93827000000E+00 0.  1.
     999902    2    1    2    0    0  0.41917262274E-02 -0.21849651211E-03  0.12063583524E-01  0.10311570459E+01  0.10310779335E+01 0.  0.
     999903    2    3    3    0    0  0.11560991489E+00  0.29019126432E-01 -0.59917214803E-01  0.14073574858E+00  0.44818703450E-01 0.  0.
         14    1    1    2    0    0 -0.41917262274E-02  0.21849651211E-03 -0.12063583524E-01  0.12772954119E-01  0.00000000000E+00 0.  1.
     999901    1    3    3    0    0 -0.11141818866E+00 -0.29237622945E-01  0.71980798327E-01  0.89042129730E+00  0.88000000000E+00 0. -1.
        -11    1    4    4    0    0  0.33672844246E-01  0.52843313418E-02 -0.41065466567E-01  0.53370574877E-01  0.51100000000E-03 0.  1.
         11    1    4    4    0    0  0.81937070643E-01  0.23734795091E-01 -0.18851748237E-01  0.87365173703E-01  0.51100000000E-03 0. -1.
</event>
<event>
 8    1  0.1993226E+004  0.1043930E+01  0.7957747E-01            NaN
         13   -1    0    0    0    0  0.00000000000E+00  0.00000000000E+00  0.74505805969E-08  0.10566000000E+00  0.10566000000E+00 0.  1.
     999900   -1    0    0    0    0 -0.00000000000E+00 -0.00000000000E+00 -0.74505805969E-08  0.93827000000E+00  0.93827000000E+00 0.  1.
     999902    2    1    2    0    0 -0.90175706085E-02  0.65615306506E-02 -0.75796501357E-02  0.10304458849E+01  0.10303576565E+01 0.  0.
     999903    2    3    3    0    0 -0.49109167758E-01  0.20163385233E-01 -0.12352503344E+00  0.14183141364E+00  0.45160198701E-01 0.  0.
         14    1    1    2    0    0  0.90175706085E-02 -0.65615306506E-02  0.75796501357E-02  0.13484115111E-01  0.00000000000E+00 0. -1.
     999901    1    3    3    0    0  0.40091597150E-01 -0.13601854583E-01  0.11594538330E+00  0.88861447125E+00  0.88000000000E+00 0. -1.
        -11    1    4    4    0    0 -0.16253176435E-02 -0.11745239634E-01 -0.29092640848E-01  0.31420298917E-01  0.51100000000E-03 0.  1.
         11    1    4    4    0    0 -0.47483850115E-01  0.31908624867E-01 -0.94432392588E-01  0.11041111472E+00  0.51100000000E-03 0. -1.
</event>
<event>
 8    1  0.1993226E+004  0.1043930E+01  0.7957747E-01            NaN
         13   -1    0    0    0    0  0.00000000000E+00  0.00000000000E+00  0.74505805969E-08  0.10566000000E+00  0.10566000000E+00 0.  1.
     999900   -1    0    0    0    0 -0.00000000000E+00 -0.00000000000E+00 -0.74505805969E-08  0.93827000000E+00  0.93827000000E+00 0. -1.
     999902    2    1    2    0    0 -0.16499377699E-02 -0.16877260767E-02 -0.13838854587E-01  0.10298913174E+01  0.10297956307E+01 0.  0.
     999903    2    3    3    0    0 -0.56401201131E-01  0.22260668202E-01  0.11588516709E+00  0.13837600721E+00  0.45187548981E-01 0.  0.
         14    1    1    2    0    0  0.16499377699E-02  0.16877260767E-02  0.13838854587E-01  0.14038682639E-01  0.00000000000E+00 0.  1.
     999901    1    3    3    0    0  0.54751263361E-01 -0.23948394279E-01 -0.12972402168E+00  0.89151531015E+00  0.88000000000E+00 0. -1.
        -11    1    4    4    0    0 -0.20497871428E-01  0.43171604608E-02  0.66259660822E-02  0.21976468212E-01  0.51100000000E-03 0. -1.
         11    1    4    4    0    0 -0.35903329702E-01  0.17943507741E-01  0.10925920101E+00  0.11639953900E+00  0.51100000000E-03 0.  1.
</event>
<event>
 8    1  0.1993226E+004  0.1043930E+01  0.7957747E-01            NaN
         13   -1    0    0    0    0  0.00000000000E+00  0.00000000000E+00  0.74505805969E-08  0.10566000000E+00  0.10566000000E+00 0. -1.
     999900   -1    0    0    0    0 -0.00000000000E+00 -0.00000000000E+00 -0.74505805969E-08  0.93827000000E+00  0.93827000000E+00 0.  1.
     999902    2    1    2    0    0 -0.84822940690E-02  0.94372333202E-02  0.67099418691E-02  0.10295761153E+01  0.10294760528E+01 0.  0.
     999903    2    3    3    0    0 -0.81991804761E-01 -0.72426541655E-01 -0.73253877083E-01  0.13912704988E+00  0.44966048477E-01 0.  0.
         14    1    1    2    0    0  0.84822940690E-02 -0.94372333202E-02 -0.67099418691E-02  0.14353884676E-01  0.00000000000E+00 0.  1.
     999901    1    3    3    0    0  0.73509510692E-01  0.81863774975E-01  0.79963818952E-01  0.89044906545E+00  0.88000000000E+00 0.  1.
        -11    1    4    4    0    0 -0.26509542185E-01 -0.18014908479E-01 -0.47410809774E-01  0.57230575384E-01  0.51100000000E-03 0.  1.
         11    1    4    4    0    0 -0.55482262576E-01 -0.54411633176E-01 -0.25843067309E-01  0.81896474492E-01  0.51100000000E-03 0. -1.
</event>
<event>
 8    1  0.2290882E+004  0.1043930E+01  0.7957747E-01            NaN
         13   -1    0    0    0    0  0.00000000000E+00  0.00000000000E+00  0.74505805969E-08  0.10566000000E+00  0.10566000000E+00 0.  1.
     999900   -1    0    0    0    0 -0.00000000000E+00 -0.00000000000E+00 -0.74505805969E-08  0.93827000000E+00  0.93827000000E+00 0. -1.
     999902    2    1    2    0    0 -0.11881519569E-01 -0.11254413312E-02  0.66648264414E-02  0.10302604339E+01  0.10301697456E+01 0.  0.
     999903    2    3    3    0    0  0.87996191145E-01 -0.79820805250E-01 -0.56139275611E-01  0.13890591823E+00  0.45039374395E-01 0.  0.
         14    1    1    2    0    0  0.11881519569E-01  0.11254413312E-02 -0.66648264414E-02  0.13669566085E-01  0.00000000000E+00 0. -1.
     999901    1    3    3    0    0 -0.99877710714E-01  0.78695363919E-01  0.62804102052E-01  0.89135451569E+00  0.88000000000E+00 0.  1.
        -11    1    4    4    0    0  0.57509170781E-01 -0.77166150715E-01 -0.45956675673E-01  0.10664987904E+00  0.51100000000E-03 0. -1.
         11    1    4    4    0    0  0.30487020364E-01 -0.26546545351E-02 -0.10182599938E-01  0.32256039185E-01  0.51100000000E-03 0.  1.
</event>
<event>
 8    1  0.1993226E+004  0.1043930E+01  0.7957747E-01            NaN
         13   -1    0    0    0    0  0.00000000000E+00  0.00000000000E+00  0.74505805969E-08  0.10566000000E+00  0.10566000000E+00 0.  1.
     999900   -1    0    0    0    0 -0.00000000000E+00 -0.00000000000E+00 -0.74505805969E-08  0.93827000000E+00  0.93827000000E+00 0. -1.
     999902    2    1    2    0    0 -0.34873768412E-02 -0.12163667369E-01  0.25895692415E-02  0.10310140227E+01  0.10309331174E+01 0.  0.
     999903    2    3    3    0    0  0.40416277350E-01  0.12323889539E+00  0.24060812576E-01  0.13931766229E+00  0.44823961379E-01 0.  0.
         14    1    1    2    0    0  0.34873768412E-02  0.12163667369E-01 -0.25895692415E-02  0.12915977313E-01  0.00000000000E+00 0. -1.
     999901    1    3    3    0    0 -0.43903654191E-01 -0.13540256276E+00 -0.21471243334E-01  0.89169636040E+00  0.88000000000E+00 0. -1.
        -11    1    4    4    0    0  0.23202635424E-01  0.10895896556E+00  0.31449912038E-01  0.11575740389E+00  0.51100000000E-03 0.  1.
         11    1    4    4    0    0  0.17213641926E-01  0.14279929825E-01 -0.73890994619E-02  0.23560258403E-01  0.51100000000E-03 0. -1.
</event>
<event>
 8    1  0.1993226E+004  0.1043930E+01  0.7957747E-01            NaN
         13   -1    0    0    0    0  0.00000000000E+00  0.00000000000E+00  0.74505805969E-08  0.10566000000E+00  0.10566000000E+00 0.  1.
     999900   -1    0    0    0    0 -0.00000000000E+00 -0.00000000000E+00 -0.74505805969E-08  0.93827000000E+00  0.93827000000E+00 0.  1.
     999902    2    1    2    0    0 -0.42894392163E-02  0.59166432451E-02 -0.11667606754E-01  0.10301626835E+01  0.10300706847E+01 0.  0.
     999903    2    3    3    0    0 -0.53903080217E-01  0.46449004461E-01 -0.11439116275E+00  0.14187415232E+00  0.44495897680E-01 0.  0.
         14    1    1    2    0    0  0.42894392163E-02 -0.59166432451E-02  0.11667606754E-01  0.13767316494E-01  0.00000000000E+00 0.  1.
     999901    1    3    3    0    0  0.49613641001E-01 -0.40532361216E-01  0.10272355599E+00  0.88828853118E+00  0.88000000000E+00 0.  1.
        -11    1    4    4    0    0  0.18287782327E-02  0.21103257361E-01 -0.18636730125E-01  0.28218446659E-01  0.51100000000E-03 0.  1.
         11    1    4    4    0    0 -0.55731858450E-01  0.25345747101E-01 -0.95754432620E-01  0.11365570566E+00  0.51100000000E-03 0. -1.
</event>
<event>
 8    1  0.1993226E+004  0.1043930E+01  0.7957747E-01            NaN
         13   -1    0    0    0    0  0.00000000000E+00  0.00000000000E+00  0.74505805969E-08  0.10566000000E+00  0.10566000000E+00 0. -1.
     999900   -1    0    0    0    0 -0.00000000000E+00 -0.00000000000E+00 -0.74505805969E-08  0.93827000000E+00  0.93827000000E+00 0. -1.
     999902    2    1    2    0    0 -0.80841704351E-02  0.66248550075E-02  0.72440975245E-02  0.10312131032E+01  0.10311346880E+01 0.  0.
     999903    2    3    3    0    0  0.12471869550E+00  0.45763685021E-01  0.93366379292E-02  0.14038605604E+00  0.44407252186E-01 0.  0.
         14    1    1    2    0    0  0.80841704351E-02 -0.66248550075E-02 -0.72440975245E-02  0.12716896809E-01  0.00000000000E+00 0.  1.
     999901    1    3    3    0    0 -0.13280286594E+00 -0.39138830014E-01 -0.20925404047E-02  0.89082704715E+00  0.88000000000E+00 0. -1.
        -11    1    4    4    0    0  0.41607386483E-01  0.38424746975E-01  0.39882593796E-02  0.56778544574E-01  0.51100000000E-03 0. -1.
         11    1    4    4    0    0  0.83111309021E-01  0.73389380459E-02  0.53483785495E-02  0.83607511463E-01  0.51100000000E-03 0.  1.
</event>
<event>
 8    1  0.1993226E+004  0.1043930E+01  0.7957747E-01            NaN
         13   -1    0    0    0    0  0.00000000000E+00  0.00000000000E+00  0.74505805969E-08  0.10566000000E+00  0.10566000000E+00 0. -1.
     999900   -1    0    0    0    0 -0.00000000000E+00 -0.00000000000E+00 -0.74505805969E-08  0.93827000000E+00  0.93827000000E+00 0. -1.
     999902    2    1    2    0    0  0.12882538349E-01  0.44011393982E-02  0.12530589867E-01  0.10254274190E+01  0.10252604772E+01 0.  0.
     999903    2    3    3    0    0 -0.24311701232E-01 -0.23479464580E-01 -0.12351449703E+00  0.13376099861E+00  0.38650093113E-01 0.  0.
         14    1    1    2    0    0 -0.12882538349E-01 -0.44011393982E-02 -0.12530589867E-01  0.18502581028E-01  0.00000000000E+00 0.  1.
     999901    1    3    3    0    0  0.37194239580E-01  0.27880603978E-01  0.13604508690E+00  0.89166642036E+00  0.88000000000E+00 0.  1.
        -11    1    4    4    0    0 -0.10612029915E-01 -0.27349679024E-01 -0.43383993272E-01  0.52374155028E-01  0.51100000000E-03 0. -1.
         11    1    4    4    0    0 -0.13699671317E-01  0.38702144445E-02 -0.80130503760E-01  0.81386843580E-01  0.51100000000E-03 0.  1.
</event>
<event>
 8    1  0.1993226E+004  0.1043930E+01  0.7957747E-01            NaN
         13   -1    0    0    0    0  0.00000000000E+00  0.00000000000E+00  0.74505805969E-08  0.10566000000E+00  0.10566000000E+00 0. -1.
     999900   -1    0    0    0    0 -0.00000000000E+00 -0.00000000000E+00 -0.74505805969E-08  0.93827000000E+00  0.93827000000E+00 0.  1.
     999902    2    1    2    0    0 -0.12255261447E-01 -0.95894080676E-02  0.31573036114E-02  0.10280518154E+01  0.10279291894E+01 0.  0.
     999903    2    3    3    0    0  0.23284675104E-01  0.51664677926E-01 -0.11663887107E+00  0.13711619841E+00  0.44551213037E-01 0.  0.
         14    1    1    2    0    0  0.12255261447E-01  0.95894080676E-02 -0.31573036114E-02  0.15878184604E-01  0.00000000000E+00 0.  1.
     999901    1    3    3    0    0 -0.35539936550E-01 -0.61254085993E-01  0.11979617468E+00  0.89093561698E+00  0.88000000000E+00 0. -1.
        -11    1    4    4    0    0  0.21649137368E-01  0.77400374703E-02 -0.66870714226E-01  0.70714544975E-01  0.51100000000E-03 0. -1.
         11    1    4    4    0    0  0.16355377353E-02  0.43924640455E-01 -0.49768156843E-01  0.66401653438E-01  0.51100000000E-03 0.  1.
</event>
<event>
 8    1  0.1993226E+004  0.1043930E+01  0.7957747E-01            NaN
         13   -1    0    0    0    0  0.00000000000E+00  0.00000000000E+00  0.74505805969E-08  0.10566000000E+00  0.10566000000E+00 0.  1.
     999900   -1    0    0    0    0 -0.00000000000E+00 -0.00000000000E+00 -0.74505805969E-08  0.93827000000E+00  0.93827000000E+00 0.  1.
     999902    2    1    2    0    0 -0.84589010374E-02 -0.93743980200E-02  0.39473758200E-02  0.10307007097E+01  0.10306158057E+01 0.  0.
     999903    2    3    3    0    0  0.10918365815E+00  0.58247296758E-01  0.45523226079E-01  0.13933040697E+00  0.45019766849E-01 0.  0.
         14    1    1    2    0    0  0.84589010374E-02  0.93743980200E-02 -0.39473758200E-02  0.13229290263E-01  0.00000000000E+00 0. -1.
     999901    1    3    3    0    0 -0.11764255918E+00 -0.67621694778E-01 -0.41575850259E-01  0.89137030277E+00  0.88000000000E+00 0.  1.
        -11    1    4    4    0    0  0.17298416585E-01  0.31137713350E-01  0.16253941472E-01  0.39156661546E-01  0.51100000000E-03 0.  1.
         11    1    4    4    0    0  0.91885241561E-01  0.27109583408E-01  0.29269284607E-01  0.10017374542E+00  0.51100000000E-03 0. -1.
</event>
<event>
 8    1  0.1993226E+004  0.1043930E+01  0.7957747E-01            NaN
         13   -1    0    0    0    0  0.00000000000E+00  0.00000000000E+00  0.74505805969E-08  0.10566000000E+00  0.10566000000E+00 0.  1.
     999900   -1    0    0    0    0 -0.00000000000E+00 -0.00000000000E+00 -0.74505805969E-08  0.93827000000E+00  0.93827000000E+00 0. -1.
     999902    2    1    2    0    0  0.94706035866E-03 -0.20801988312E-02 -0.14197755577E-01  0.10295494432E+01  0.10294490058E+01 0.  0.
     999903    2    3    3    0    0  0.25618635345E-01 -0.13001899632E+00 -0.51404052189E-02  0.13990959578E+00  0.44575972734E-01 0.  0.
         14    1    1    2    0    0 -0.94706035866E-03  0.20801988312E-02  0.14197755577E-01  0.14380556802E-01  0.00000000000E+00 0.  1.
     999901    1    3    3    0    0 -0.24671574987E-01  0.12793879749E+00 -0.90573503582E-02  0.88963984742E+00  0.88000000000E+00 0. -1.
        -11    1    4    4    0    0  0.34715543679E-01 -0.74007308117E-01 -0.12462933544E-01  0.82691211511E-01  0.51100000000E-03 0. -1.
         11    1    4    4    0    0 -0.90969083336E-02 -0.56011688203E-01  0.73225283249E-02  0.57218384271E-01  0.51100000000E-03 0.  1.
</event>
<event>
 8    1  0.1993226E+004  0.1043930E+01  0.7957747E-01            NaN
         13   -1    0    0    0    0  0.00000000000E+00  0.00000000000E+00  0.74505805969E-08  0.10566000000E+00  0.10566000000E+00 0. -1.
     999900   -1    0    0    0    0 -0.00000000000E+00 -0.00000000000E+00 -0.74505805969E-08  0.93827000000E+00  0.93827000000E+00 0.  1.
     999902    2    1    2    0    0  0.10457757380E-01  0.86569761710E-02  0.85427142793E-02  0.10278898662E+01  0.10277647061E+01 0.  0.
     999903    2    3    3    0    0  0.28838856069E-02 -0.12187752534E+00 -0.40903661716E-01  0.13685588045E+00  0.46839881446E-01 0.  0.
         14    1    1    2    0    0 -0.10457757380E-01 -0.86569761710E-02 -0.85427142793E-02  0.16040133825E-01  0.00000000000E+00 0. -1.
     999901    1    3    3    0    0  0.75738717735E-02  0.13053450151E+00  0.49446375995E-01  0.89103398572E+00  0.88000000000E+00 0. -1.
        -11    1    4    4    0    0 -0.15927116995E-01 -0.57654502982E-01 -0.28809804524E-02  0.59885523620E-01  0.51100000000E-03 0. -1.
         11    1    4    4    0    0  0.18811002602E-01 -0.64223022354E-01 -0.38022681264E-01  0.76970356831E-01  0.51100000000E-03 0.  1.
</event>
<event>
 8    1  0.1993226E+004  0.1043930E+01  0.7957747E-01            NaN
         13   -1    0    0    0    0  0.00000000000E+00  0.00000000000E+00  0.74505805969E-08  0.10566000000E+00  0.10566000000E+00 0.  1.
     999900   -1    0    0    0    0 -0.00000000000E+00 -0.00000000000E+00 -0.74505805969E-08  0.93827000000E+00  0.93827000000E+00 0.  1.
     999902    2    1    2    0    0  0.12019713615E-01 -0.66044068742E-02  0.23172288594E-02  0.10300209650E+01  0.10299270494E+01 0.  0.
     999903    2    3    3    0    0  0.63905721023E-01  0.36954486939E-01 -0.11114741025E+00  0.14015369436E+00  0.42892143269E-01 0.  0.
         14    1    1    2    0    0 -0.12019713615E-01  0.66044068742E-02 -0.23172288594E-02  0.13909035018E-01  0.00000000000E+00 0.  1.
     999901    1    3    3    0    0 -0.51886007408E-01 -0.43558893813E-01  0.11346463911E+00  0.88986727062E+00  0.88000000000E+00 0. -1.
        -11    1    4    4    0    0  0.66050343434E-01  0.36285585571E-01 -0.83775130589E-01  0.11268462723E+00  0.51100000000E-03 0.  1.
         11    1    4    4    0    0 -0.21446224112E-02  0.66890136707E-03 -0.27372279658E-01  0.27469067130E-01  0.51100000000E-03 0. -1.
</event>
<event>
 8    1  0.1993226E+004  0.1043930E+01  0.7957747E-01            NaN
         13   -1    0    0    0    0  0.00000000000E+00  0.00000000000E+00  0.74505805969E-08  0.10566000000E+00  0.10566000000E+00 0. -1.
     999900   -1    0    0    0    0 -0.00000000000E+00 -0.00000000000E+00 -0.74505805969E-08  0.93827000000E+00  0.93827000000E+00 0.  1.
     999902    2    1    2    0    0 -0.70538162255E-02 -0.65365784785E-02  0.10486446101E-01  0.10297015520E+01  0.10296032427E+01 0.  0.
     999903    2    3    3    0    0  0.87685167726E-01 -0.93976161425E-01  0.32093648043E-01  0.14004542350E+00  0.45414874690E-01 0.  0.
         14    1    1    2    0    0  0.70538162255E-02  0.65365784785E-02 -0.10486446101E-01  0.14228448032E-01  0.00000000000E+00 0.  1.
     999901    1    3    3    0    0 -0.94738983952E-01  0.87439582947E-01 -0.21607201942E-01  0.88965612847E+00  0.88000000000E+00 0.  1.
        -11    1    4    4    0    0  0.81861388433E-01 -0.61541576016E-01  0.17081242934E-01  0.10383006538E+00  0.51100000000E-03 0. -1.
         11    1    4    4    0    0  0.58237792936E-02 -0.32434585409E-01  0.15012405109E-01  0.36215358124E-01  0.51100000000E-03 0.  1.
</event>
<event>
 8    1  0.1993226E+004  0.1043930E+01  0.7957747E-01            NaN
         13   -1    0    0    0    0  0.00000000000E+00  0.00000000000E+00  0.74505805969E-08  0.10566000000E+00  0.10566000000E+00 0. -1.
     999900   -1    0    0    0    0 -0.00000000000E+00 -0.00000000000E+00 -0.74505805969E-08  0.93827000000E+00  0.93827000000E+00 0.  1.
     999902    2    1    2    0    0 -0.13546665470E-02  0.27280238961E-02 -0.13299863534E-01  0.10302858215E+01  0.10301954720E+01 0.  0.
     999903    2    3    3    0    0 -0.30538379159E-02 -0.13214535019E+00  0.45165401608E-03  0.13990229830E+00  0.45833716585E-01 0.  0.
         14    1    1    2    0    0  0.13546665470E-02 -0.27280238961E-02  0.13299863534E-01  0.13644178460E-01  0.00000000000E+00 0. -1.
     999901    1    3    3    0    0  0.16991713689E-02  0.13487337408E+00 -0.13751517550E-01  0.89038352324E+00  0.88000000000E+00 0.  1.
        -11    1    4    4    0    0  0.70517708996E-02 -0.81814856151E-01 -0.20198252782E-01  0.84567302761E-01  0.51100000000E-03 0. -1.
         11    1    4    4    0    0 -0.10105608815E-01 -0.50330494038E-01  0.20649906798E-01  0.55334995540E-01  0.51100000000E-03 0.  1.
</event>
<event>
 8    1  0.1993226E+004  0.1043930E+01  0.7957747E-01            NaN
         13   -1    0    0    0    0  0.00000000000E+00  0.00000000000E+00  0.74505805969E-08  0.10566000000E+00  0.10566000000E+00 0. -1.
     999900   -1    0    0    0    0 -0.00000000000E+00 -0.00000000000E+00 -0.74505805969E-08  0.93827000000E+00  0.93827000000E+00 0.  1.
     999902    2    1    2    0    0  0.11829950469E-01  0.11921584808E-02 -0.79285618826E-02  0.10296390566E+01  0.10295398758E+01 0.  0.
     999903    2    3    3    0    0 -0.40206249316E-01  0.12165624577E+00  0.30569616164E-01  0.13907660952E+00  0.44620816503E-01 0.  0.
         14    1    1    2    0    0 -0.11829950469E-01 -0.11921584808E-02  0.79285618826E-02  0.14290943407E-01  0.00000000000E+00 0. -1.
     999901    1    3    3    0    0  0.52036199785E-01 -0.12046408729E+00 -0.38498178047E-01  0.89056244707E+00  0.88000000000E+00 0.  1.
        -11    1    4    4    0    0  0.22663061912E-02  0.64069210777E-01  0.13753532031E-01  0.65569967803E-01  0.51100000000E-03 0. -1.
         11    1    4    4    0    0 -0.42472555507E-01  0.57587034994E-01  0.16816084133E-01  0.73506641722E-01  0.51100000000E-03 0.  1.
</event>
<event>
 8    1  0.1993226E+004  0.1043930E+01  0.7957747E-01            NaN
         13   -1    0    0    0    0  0.00000000000E+00  0.00000000000E+00  0.74505805969E-08  0.10566000000E+00  0.10566000000E+00 0.  1.
     999900   -1    0    0    0    0 -0.00000000000E+00 -0.00000000000E+00 -0.74505805969E-08  0.93827000000E+00  0.93827000000E+00 0. -1.
     999902    2    1    2    0    0 -0.90154672883E-02 -0.24879291449E-03  0.10459096934E-01  0.10301193788E+01  0.10300267964E+01 0.  0.
     999903    2    3    3    0    0 -0.10429357619E+00 -0.83557138869E-01 -0.95651417920E-02  0.14083923811E+00  0.43419506733E-01 0.  0.
         14    1    1    2    0    0  0.90154672883E-02  0.24879291449E-03 -0.10459096934E-01  0.13810621167E-01  0.00000000000E+00 0. -1.
     999901    1    3    3    0    0  0.95278108900E-01  0.83308345954E-01  0.20024238726E-01  0.88928014072E+00  0.88000000000E+00 0. -1.
        -11    1    4    4    0    0 -0.94269811231E-01 -0.64951718743E-01 -0.21619396885E-01  0.11650400216E+00  0.51100000000E-03 0.  1.
         11    1    4    4    0    0 -0.10023764958E-01 -0.18605420126E-01  0.12054255093E-01  0.24335235952E-01  0.51100000000E-03 0. -1.
</event>
<event>
 8    1  0.1993226E+004  0.1043930E+01  0.7957747E-01            NaN
         13   -1    0    0    0    0  0.00000000000E+00  0.00000000000E+00  0.74505805969E-08  0.10566000000E+00  0.10566000000E+00 0. -1.
     999900   -1    0    0    0    0 -0.00000000000E+00 -0.00000000000E+00 -0.74505805969E-08  0.93827000000E+00  0.93827000000E+00 0. -1.
     999902    2    1    2    0    0 -0.13131640553E-01 -0.15093015049E-01 -0.14145948341E-03  0.10239235236E+01  0.10237280513E+01 0.  0.
     999903    2    3    3    0    0  0.69604735367E-01  0.73657583963E-01  0.72775383786E-01  0.13261053551E+00  0.44933715415E-01 0.  0.
         14    1    1    2    0    0  0.13131640553E-01  0.15093015049E-01  0.14145948341E-03  0.20006476394E-01  0.00000000000E+00 0. -1.
     999901    1    3    3    0    0 -0.82736375921E-01 -0.88750599012E-01 -0.72916843270E-01  0.89131298810E+00  0.88000000000E+00 0. -1.
        -11    1    4    4    0    0  0.34889165516E-01  0.82057042594E-02  0.15928691298E-01  0.39224632315E-01  0.51100000000E-03 0.  1.
         11    1    4    4    0    0  0.34715569852E-01  0.65451879703E-01  0.56846692488E-01  0.93385903190E-01  0.51100000000E-03 0. -1.
</event>
<event>
 8    1  0.1993226E+004  0.1043930E+01  0.7957747E-01            NaN
         13   -1    0    0    0    0  0.00000000000E+00  0.00000000000E+00  0.74505805969E-08  0.10566000000E+00  0.10566000000E+00 0. -1.
     999900   -1    0    0    0    0 -0.00000000000E+00 -0.00000000000E+00 -0.74505805969E-08  0.93827000000E+00  0.93827000000E+00 0.  1.
     999902    2    1    2    0    0  0.47074172186E-02  0.41194212108E-02 -0.12533132850E-01  0.10299225439E+01  0.10298272853E+01 0.  0.
     999903    2    3    3    0    0  0.11064603503E+00  0.58731170244E-01  0.44057527648E-01  0.14008663949E+00  0.44624045041E-01 0.  0.
         14    1    1    2    0    0 -0.47074172186E-02 -0.41194212108E-02  0.12533132850E-01  0.14007456123E-01  0.00000000000E+00 0. -1.
     999901    1    3    3    0    0 -0.10593861781E+00 -0.54611749033E-01 -0.56590660498E-01  0.88983590438E+00  0.88000000000E+00 0.  1.
        -11    1    4    4    0    0  0.74664413315E-01  0.23361106728E-01  0.43730765669E-01  0.89627880206E-01  0.51100000000E-03 0.  1.
         11    1    4    4    0    0  0.35981621715E-01  0.35370063516E-01  0.32676197891E-03  0.50458759287E-01  0.51100000000E-03 0. -1.
</event>
<event>
 8    1  0.1993226E+004  0.1043930E+01  0.7957747E-01            NaN
         13   -1    0    0    0    0  0.00000000000E+00  0.00000000000E+00  0.74505805969E-08  0.10566000000E+00  0.10566000000E+00 0. -1.
     999900   -1    0    0    0    0 -0.00000000000E+00 -0.00000000000E+00 -0.74505805969E-08  0.93827000000E+00  0.93827000000E+00 0. -1.
     999902    2    1    2    0    0 -0.14888875043E-02 -0.13554202277E-01 -0.41408758730E-02  0.10296793846E+01  0.10295807667E+01 0.  0.
     999903    2    3    3    0    0  0.83009758690E-01  0.68441845398E-01 -0.75846603612E-01  0.13894649289E+00  0.44480494232E-01 0.  0.
         14    1    1    2    0    0  0.14888875043E-02  0.13554202277E-01  0.41408758730E-02  0.14250615368E-01  0.00000000000E+00 0.  1.
     999901    1    3    3    0    0 -0.84498646195E-01 -0.81996047675E-01  0.71705727739E-01  0.89073289174E+00  0.88000000000E+00 0.  1.
        -11    1    4    4    0    0  0.66024490789E-01  0.28963406747E-01 -0.37126885810E-01  0.81097343269E-01  0.51100000000E-03 0.  1.
         11    1    4    4    0    0  0.16985267901E-01  0.39478438651E-01 -0.38719717802E-01  0.57849149620E-01  0.51100000000E-03 0. -1.
</event>
<event>
 8    1  0.1993226E+004  0.1043930E+01  0.7957747E-01            NaN
         13   -1    0    0    0    0  0.00000000000E+00  0.00000000000E+00  0.74505805969E-08  0.10566000000E+00  0.10566000000E+00 0.  1.
     999900   -1    0    0    0    0 -0.00000000000E+00 -0.00000000000E+00 -0.74505805969E-08  0.93827000000E+00  0.93827000000E+00 0.  1.
     999902    2    1    2    0    0  0.12317147621E-01  0.68152725325E-02 -0.10468613011E-03  0.10298526769E+01  0.10297564592E+01 0.  0.
     999903    2    3    3    0    0  0.10654896821E+00 -0.33255457955E-01  0.73090120516E-01  0.14089667175E+00  0.45289052577E-01 0.  0.
         14    1    1    2    0    0 -0.12317147621E-01 -0.68152725325E-02  0.10468613011E-03  0.14077323055E-01  0.00000000000E+00 0.  1.
     999901    1    3    3    0    0 -0.94231820586E-01  0.40070730488E-01 -0.73194806646E-01  0.88895600520E+00  0.88000000000E+00 0. -1.
        -11    1    4    4    0    0  0.86489988240E-01 -0.43893125588E-01  0.65134245585E-01  0.11683259652E+00  0.51100000000E-03 0.  1.
         11    1    4    4    0    0  0.20058979967E-01  0.10637667632E-01  0.79558749312E-02  0.24064075235E-01  0.51100000000E-03 0. -1.
</event>
<event>
 8    1  0.2341809E+004  0.1043930E+01  0.7957747E-01            NaN
         13   -1    0    0    0    0  0.00000000000E+00  0.00000000000E+00  0.74505805969E-08  0.10566000000E+00  0.10566000000E+00 0.  1.
     999900   -1    0    0    0    0 -0.00000000000E+00 -0.00000000000E+00 -0.74505805969E-08  0.93827000000E+00  0.93827000000E+00 0.  1.
     999902    2    1    2    0    0 -0.12738665617E-01 -0.28437206212E-02 -0.91018840300E-03  0.10308460865E+01  0.10307630500E+01 0.  0.
     999903    2    3    3    0    0 -0.46549462257E-01 -0.81618509816E-01 -0.95983945778E-01  0.14158366367E+00  0.44772562903E-01 0.  0.
         14    1    1    2    0    0  0.12738665617E-01  0.28437206212E-02  0.91018840300E-03  0.13083913467E-01  0.00000000000E+00 0.  1.
     999901    1    3    3    0    0  0.33810796640E-01  0.78774789195E-01  0.95073757375E-01  0.88926242287E+00  0.88000000000E+00 0. -1.
        -11    1    4    4    0    0 -0.83787838590E-02 -0.59139551452E-01 -0.57243090196E-01  0.82732841491E-01  0.51100000000E-03 0. -1.
         11    1    4    4    0    0 -0.38170678398E-01 -0.22478958364E-01 -0.38740855582E-01  0.58850822175E-01  0.51100000000E-03 0.  1.
</event>
<event>
 8    1  0.1993226E+004  0.1043930E+01  0.7957747E-01            NaN
         13   -1    0    0    0    0  0.00000000000E+00  0.00000000000E+00  0.74505805969E-08  0.10566000000E+00  0.10566000000E+00 0. -1.
     999900   -1    0    0    0    0 -0.00000000000E+00 -0.00000000000E+00 -0.74505805969E-08  0.93827000000E+00  0.93827000000E+00 0.  1.
     999902    2    1    2    0    0  0.59396048164E-02 -0.14225206347E-02  0.12183389565E-01  0.10303014472E+01  0.10302113058E+01 0.  0.
     999903    2    3    3    0    0  0.36425481045E-01 -0.85027165361E-01  0.97736810716E-01  0.14168538097E+00  0.44337664512E-01 0.  0.
         14    1    1    2    0    0 -0.59396048164E-02  0.14225206347E-02 -0.12183389565E-01  0.13628552808E-01  0.00000000000E+00 0.  1.
     999901    1    3    3    0    0 -0.30485876229E-01  0.83604644726E-01 -0.85553421151E-01  0.88861606622E+00  0.88000000000E+00 0.  1.
        -11    1    4    4    0    0  0.42774425154E-01 -0.47115637669E-01  0.54059993567E-01  0.83500172369E-01  0.51100000000E-03 0.  1.
         11    1    4    4    0    0 -0.63489441089E-02 -0.37911527692E-01  0.43676817149E-01  0.58185208606E-01  0.51100000000E-03 0. -1.
</event>
<event>
 8    1  0.1993226E+004  0.1043930E+01  0.7957747E-01            NaN
         13   -1    0    0    0    0  0.00000000000E+00  0.00000000000E+00  0.74505805969E-08  0.10566000000E+00  0.10566000000E+00 0. -1.
     999900   -1    0    0    0    0 -0.00000000000E+00 -0.00000000000E+00 -0.74505805969E-08  0.93827000000E+00  0.93827000000E+00 0.  1.
     999902    2    1    2    0    0  0.10013717261E-01 -0.20274657950E-02  0.93439044174E-02  0.10300846506E+01  0.10299915988E+01 0.  0.
     999903    2    3    3    0    0 -0.89584325836E-01 -0.59058394755E-01  0.78651343738E-01  0.13992971002E+00  0.43371009307E-01 0.  0.
         14    1    1    2    0    0 -0.10013717261E-01  0.20274657950E-02 -0.93439044174E-02  0.13845349424E-01  0.00000000000E+00 0.  1.
     999901    1    3    3    0    0  0.99598043097E-01  0.57030928960E-01 -0.69307439321E-01  0.89015494055E+00  0.88000000000E+00 0.  1.
        -11    1    4    4    0    0 -0.67501905723E-01 -0.50880585162E-01  0.37417373007E-01  0.92442750643E-01  0.51100000000E-03 0.  1.
         11    1    4    4    0    0 -0.22082420113E-01 -0.81778095935E-02  0.41233970731E-01  0.47486959379E-01  0.51100000000E-03 0. -1.
</event>
<event>
 8    1  0.1993226E+004  0.1043930E+01  0.7957747E-01            NaN
         13   -1    0    0    0    0  0.00000000000E+00  0.00000000000E+00  0.74505805969E-08  0.10566000000E+00  0.10566000000E+00 0. -1.
     999900   -1    0    0    0    0 -0.00000000000E+00 -0.00000000000E+00 -0.74505805969E-08  0.93827000000E+00  0.93827000000E+00 0. -1.
     999902    2    1    2    0    0  0.10479998848E-02  0.13422821100E-01  0.23835383092E-02  0.10302569724E+01  0.10301662378E+01 0.  0.
     999903    2    3    3    0    0  0.78742830615E-01  0.46667425153E-01 -0.97178049281E-01  0.14061985524E+00  0.44182445419E-01 0.  0.
         14    1    1    2    0    0 -0.10479998848E-02 -0.13422821100E-01 -0.23835383092E-02  0.13673027643E-01  0.00000000000E+00 0.  1.
     999901    1    3    3    0    0 -0.77694830730E-01 -0.33244604053E-01  0.99561587591E-01  0.88963711711E+00  0.88000000000E+00 0.  1.
        -11    1    4    4    0    0  0.67782221483E-01  0.20862286962E-01 -0.54019263164E-01  0.89151592696E-01  0.51100000000E-03 0.  1.
         11    1    4    4    0    0  0.10960609131E-01  0.25805138192E-01 -0.43158786117E-01  0.51468262548E-01  0.51100000000E-03 0. -1.
</event>
<event>
 8    1  0.1993226E+004  0.1043930E+01  0.7957747E-01            NaN
         13   -1    0    0    0    0  0.00000000000E+00  0.00000000000E+00  0.74505805969E-08  0.10566000000E+00  0.10566000000E+00 0.  1.
     999900   -1    0    0    0    0 -0.00000000000E+00 -0.00000000000E+00 -0.74505805969E-08  0.93827000000E+00  0.93827000000E+00 0. -1.
     999902    2    1    2    0    0  0.15201599280E-02 -0.16443609307E-01 -0.12198970351E-01  0.10233990952E+01  0.10231931343E+01 0.  0.
     999903    2    3    3    0    0  0.11155852673E+00 -0.45747283104E-01 -0.42317950861E-01  0.13555096607E+00  0.45223186957E-01 0.  0.
         14    1    1    2    0    0 -0.15201599280E-02  0.16443609307E-01  0.12198970351E-01  0.20530904775E-01  0.00000000000E+00 0.  1.
     999901    1    3    3    0    0 -0.11003836680E+00  0.29303673798E-01  0.30118980509E-01  0.88784812916E+00  0.88000000000E+00 0.  1.
        -11    1    4    4    0    0  0.96539825559E-01 -0.54944150616E-01 -0.34901204568E-01  0.11643518715E+00  0.51100000000E-03 0. -1.
         11    1    4    4    0    0  0.15018701171E-01  0.91968675114E-02 -0.74167462927E-02  0.19115778913E-01  0.51100000000E-03 0.  1.
</event>
<event>
 8    1  0.1993226E+004  0.1043930E+01  0.7957747E-01            NaN
         13   -1    0    0    0    0  0.00000000000E+00  0.00000000000E+00  0.74505805969E-08  0.10566000000E+00  0.10566000000E+00 0.  1.
     999900   -1    0    0    0    0 -0.00000000000E+00 -0.00000000000E+00 -0.74505805969E-08  0.93827000000E+00  0.93827000000E+00 0.  1.
     999902    2    1    2    0    0  0.78221547049E-02 -0.11094647157E-01  0.12091733262E-02  0.10303013757E+01  0.10302112334E+01 0.  0.
     999903    2    3    3    0    0  0.70098090660E-01  0.59928061264E-01 -0.95089470821E-01  0.14002279787E+00  0.45379087921E-01 0.  0.
         14    1    1    2    0    0 -0.78221547049E-02  0.11094647157E-01 -0.12091733262E-02  0.13628624285E-01  0.00000000000E+00 0. -1.
     999901    1    3    3    0    0 -0.62275935956E-01 -0.71022708420E-01  0.96298644147E-01  0.89027857785E+00  0.88000000000E+00 0. -1.
        -11    1    4    4    0    0  0.26779181419E-01  0.11621137708E-01 -0.59976306862E-02  0.29806175433E-01  0.51100000000E-03 0. -1.
         11    1    4    4    0    0  0.43318909242E-01  0.48306923556E-01 -0.89091840135E-01  0.11021662243E+00  0.51100000000E-03 0.  1.
</event>
<event>
 8    1  0.1993226E+004  0.1043930E+01  0.7957747E-01            NaN
         13   -1    0    0    0    0  0.00000000000E+00  0.00000000000E+00  0.74505805969E-08  0.10566000000E+00  0.10566000000E+00 0. -1.
     999900   -1    0    0    0    0 -0.00000000000E+00 -0.00000000000E+00 -0.74505805969E-08  0.93827000000E+00  0.93827000000E+00 0. -1.
     999902    2    1    2    0    0 -0.89161397822E-02  0.62951221683E-02 -0.50361974918E-03  0.10330038962E+01  0.10329461118E+01 0.  0.
     999903    2    3    3    0    0 -0.12416493963E+00  0.54002192674E-01 -0.18984495384E-01  0.14401582359E+00  0.45243533605E-01 0.  0.
         14    1    1    2    0    0  0.89161397822E-02 -0.62951221683E-02  0.50361974918E-03  0.10926103815E-01  0.00000000000E+00 0.  1.
     999901    1    3    3    0    0  0.11524879985E+00 -0.47707070505E-01  0.18480875635E-01  0.88898807259E+00  0.88000000000E+00 0.  1.
        -11    1    4    4    0    0 -0.90933899221E-01  0.48574714443E-01  0.41176630059E-02  0.10317796848E+00  0.51100000000E-03 0. -1.
         11    1    4    4    0    0 -0.33231040412E-01  0.54274782305E-02 -0.23102158390E-01  0.40837855111E-01  0.51100000000E-03 0.  1.
</event>
<event>
 8    1  0.1993226E+004  0.1043930E+01  0.7957747E-01            NaN
         13   -1    0    0    0    0  0.00000000000E+00  0.00000000000E+00  0.74505805969E-08  0.10566000000E+00  0.10566000000E+00 0. -1.
     999900   -1    0    0    0    0 -0.00000000000E+00 -0.00000000000E+00 -0.74505805969E-08  0.93827000000E+00  0.93827000000E+00 0. -1.
     999902    2    1    2    0    0 -0.17998413312E-02 -0.20360352960E-02  0.15327962195E-01  0.10283630063E+01  0.10282451757E+01 0.  0.
     999903    2    3    3    0    0  0.37897104169E-01  0.22432420323E-01  0.12559549739E+00  0.14025632230E+00  0.44251587490E-01 0.  0.
         14    1    1    2    0    0  0.17998413312E-02  0.20360352960E-02 -0.15327962195E-01  0.15566993724E-01  0.00000000000E+00 0.  1.
     999901    1    3    3    0    0 -0.39696945500E-01 -0.24468455619E-01 -0.11026753519E+00  0.88810668397E+00  0.88000000000E+00 0. -1.
        -11    1    4    4    0    0 -0.94733226331E-02  0.80804059352E-02  0.32732931937E-01  0.35024887665E-01  0.51100000000E-03 0. -1.
         11    1    4    4    0    0  0.47370426802E-01  0.14352014388E-01  0.92862565452E-01  0.10523143464E+00  0.51100000000E-03 0.  1.
</event>
<event>
 8    1  0.1993226E+004  0.1043930E+01  0.7957747E-01            NaN
         13   -1    0    0    0    0  0.00000000000E+00  0.00000000000E+00  0.74505805969E-08  0.10566000000E+00  0.10566000000E+00 0.  1.
     999900   -1    0    0    0    0 -0.00000000000E+00 -0.00000000000E+00 -0.74505805969E-08  0.93827000000E+00  0.93827000000E+00 0.  1.
     999902    2    1    2    0    0 -0.28660193879E-02  0.92288440961E-02  0.92243907383E-02  0.10305705459E+01  0.10304839518E+01 0.  0.
     999903    2    3    3    0    0 -0.11087990074E+00 -0.55660335767E-01  0.49642603462E-01  0.14067659928E+00  0.43966943750E-01 0.  0.
         14    1    1    2    0    0  0.28660193879E-02 -0.92288440961E-02 -0.92243907383E-02  0.13359454142E-01  0.00000000000E+00 0. -1.
     999901    1    3    3    0    0  0.10801388135E+00  0.64889179863E-01 -0.40418212724E-01  0.88989394657E+00  0.88000000000E+00 0. -1.
        -11    1    4    4    0    0 -0.48210391264E-01 -0.47462092645E-01  0.33229576646E-01  0.75374783245E-01  0.51100000000E-03 0.  1.
         11    1    4    4    0    0 -0.62669509473E-01 -0.81982431216E-02  0.16413026816E-01  0.65301816040E-01  0.51100000000E-03 0. -1.
</event>
<event>
 8    1  0.1993226E+004  0.1043930E+01  0.7957747E-01            NaN
         13   -1    0    0    0    0  0.00000000000E+00  0.00000000000E+00  0.74505805969E-08  0.10566000000E+00  0.10566000000E+00 0.  1.
     999900   -1    0    0    0    0 -0.00000000000E+00 -0.00000000000E+00 -0.74505805969E-08  0.93827000000E+00  0.93827000000E+00 0.  1.
     999902    2    1    2    0    0  0.22678974348E-02  0.14129960051E-01  0.27922201524E-02  0.10293493408E+01  0.10292460686E+01 0.  0.
     999903    2    3    3    0    0  0.53878781195E-01 -0.88145745012E-01 -0.79848754466E-01  0.13808420972E+00  0.44931391661E-01 0.  0.
         14    1    1    2    0    0 -0.22678974348E-02 -0.14129960051E-01 -0.27922201524E-02  0.14580659217E-01  0.00000000000E+00 0.  1.
     999901    1    3    3    0    0 -0.51610883760E-01  0.10227570506E+00  0.82640974618E-01  0.89126513107E+00  0.88000000000E+00 0. -1.
        -11    1    4    4    0    0  0.41539415274E-01 -0.26149433052E-01 -0.40362255307E-01  0.63550677768E-01  0.51100000000E-03 0.  1.
         11    1    4    4    0    0  0.12339365921E-01 -0.61996311960E-01 -0.39486499159E-01  0.74533531949E-01  0.51100000000E-03 0. -1.
</event>
<event>
 8    1  0.1993226E+004  0.1043930E+01  0.7957747E-01            NaN
         13   -1    0    0    0    0  0.00000000000E+00  0.00000000000E+00  0.74505805969E-08  0.10566000000E+00  0.10566000000E+00 0.  1.
     999900   -1    0    0    0    0 -0.00000000000E+00 -0.00000000000E+00 -0.74505805969E-08  0.93827000000E+00  0.93827000000E+00 0.  1.
     999902    2    1    2    0    0  0.10249084772E-01 -0.59371799275E-02  0.90923111336E-02  0.10289980220E+01  0.10288896760E+01 0.  0.
     999903    2    3    3    0    0  0.11675438957E+00  0.19353742623E-01  0.61180945494E-01  0.14068713246E+00  0.45206264052E-01 0.  0.
         14    1    1    2    0    0 -0.10249084772E-01  0.59371799275E-02 -0.90923111336E-02  0.14931977964E-01  0.00000000000E+00 0. -1.
     999901    1    3    3    0    0 -0.10650530480E+00 -0.25290922550E-01 -0.52088634360E-01  0.88831088958E+00  0.88000000000E+00 0.  1.
        -11    1    4    4    0    0  0.68539114872E-01  0.22849371951E-01  0.57251886466E-01  0.92183207206E-01  0.51100000000E-03 0.  1.
         11    1    4    4    0    0  0.48215274702E-01 -0.34956293286E-02  0.39290590283E-02  0.48503925252E-01  0.51100000000E-03 0. -1.
</event>
<event>
 8    1  0.1993226E+004  0.1043930E+01  0.7957747E-01            NaN
         13   -1    0    0    0    0  0.00000000000E+00  0.00000000000E+00  0.74505805969E-08  0.10566000000E+00  0.10566000000E+00 0.  1.
     999900   -1    0    0    0    0 -0.00000000000E+00 -0.00000000000E+00 -0.74505805969E-08  0.93827000000E+00  0.93827000000E+00 0. -1.
     999902    2    1    2    0    0  0.92527467116E-02 -0.23876914735E-03 -0.10953966166E-01  0.10295891595E+01  0.10294892800E+01 0.  0.
     999903    2    3    3    0    0  0.81473090675E-02  0.12629042193E+00 -0.40574364497E-01  0.14004532908E+00  0.44167474761E-01 0.  0.
         14    1    1    2    0    0 -0.92527467116E-02  0.23876914735E-03  0.10953966166E-01  0.14340840533E-01  0.00000000000E+00 0.  1.
     999901    1    3    3    0    0  0.11054376441E-02 -0.12652919107E+00  0.29620398330E-01  0.88954383039E+00  0.88000000000E+00 0.  1.
        -11    1    4    4    0    0 -0.63666057793E-02  0.18105227329E-01 -0.22206455647E-01  0.29355079956E-01  0.51100000000E-03 0. -1.
         11    1    4    4    0    0  0.14513914847E-01  0.10818519460E+00 -0.18367908850E-01  0.11069024912E+00  0.51100000000E-03 0.  1.
</event>
<event>
 8    1  0.2129849E+004  0.1043930E+01  0.7957747E-01            NaN
         13   -1    0    0    0    0  0.00000000000E+00  0.00000000000E+00  0.74505805969E-08  0.10566000000E+00  0.10566000000E+00 0.  1.
     999900   -1    0    0    0    0 -0.00000000000E+00 -0.00000000000E+00 -0.74505805969E-08  0.93827000000E+00  0.93827000000E+00 0. -1.
     999902    2    1    2    0    0  0.11710890191E-02 -0.17104817149E-02 -0.13658864327E-01  0.10301147269E+01  0.10300220817E+01 0.  0.
     999903    2    3    3    0    0  0.76182119077E-01 -0.11489222217E-01 -0.10952918442E+00  0.14168161364E+00  0.46274397995E-01 0.  0.
         14    1    1    2    0    0 -0.11710890191E-02  0.17104817149E-02  0.13658864327E-01  0.13815273138E-01  0.00000000000E+00 0.  1.
     999901    1    3    3    0    0 -0.75011030057E-01  0.97787405025E-02  0.95870320092E-01  0.88843311322E+00  0.88000000000E+00 0.  1.
        -11    1    4    4    0    0  0.51830959173E-01 -0.22948836353E-01 -0.47114191029E-01  0.73709602740E-01  0.51100000000E-03 0.  1.
         11    1    4    4    0    0  0.24351159903E-01  0.11459614136E-01 -0.62414993390E-01  0.67972010899E-01  0.51100000000E-03 0. -1.
</event>
<event>
 8    1  0.2378121E+004  0.1043930E+01  0.7957747E-01            NaN
         13   -1    0    0    0    0  0.00000000000E+00  0.00000000000E+00  0.74505805969E-08  0.10566000000E+00  0.10566000000E+00 0. -1.
     999900   -1    0    0    0    0 -0.00000000000E+00 -0.00000000000E+00 -0.74505805969E-08  0.93827000000E+00  0.93827000000E+00 0. -1.
     999902    2    1    2    0    0 -0.98155363043E-02 -0.39169873961E-02 -0.93895523604E-02  0.10297931249E+01  0.10296960857E+01 0.  0.
     999903    2    3    3    0    0 -0.72333521341E-01  0.26297941698E-03  0.11051852435E+00  0.13945391012E+00  0.44730765188E-01 0.  0.
         14    1    1    2    0    0  0.98155363043E-02  0.39169873961E-02  0.93895523604E-02  0.14136875069E-01  0.00000000000E+00 0. -1.
     999901    1    3    3    0    0  0.62517985036E-01 -0.41799668131E-02 -0.11990807671E+00  0.89033921481E+00  0.88000000000E+00 0. -1.
        -11    1    4    4    0    0 -0.19847843515E-01  0.20734597424E-01  0.37036103497E-01  0.46859305434E-01  0.51100000000E-03 0. -1.
         11    1    4    4    0    0 -0.52485677825E-01 -0.20471618007E-01  0.73482420854E-01  0.92594604682E-01  0.51100000000E-03 0.  1.
</event>
<event>
 8    1  0.1993226E+004  0.1043930E+01  0.7957747E-01            NaN
         13   -1    0    0    0    0  0.00000000000E+00  0.00000000000E+00  0.74505805969E-08  0.10566000000E+00  0.10566000000E+00 0.  1.
     999900   -1    0    0    0    0 -0.00000000000E+00 -0.00000000000E+00 -0.74505805969E-08  0.93827000000E+00  0.93827000000E+00 0. -1.
     999902    2    1    2    0    0 -0.13280788884E-01 -0.96043764814E-02 -0.30014026696E-02  0.10272677127E+01  0.10271325726E+01 0.  0.
     999903    2    3    3    0    0 -0.77090175507E-01 -0.10856403471E+00 -0.11810653442E-02  0.13942315116E+00  0.41332497761E-01 0.  0.
         14    1    1    2    0    0  0.13280788884E-01  0.96043764814E-02  0.30014026696E-02  0.16662287327E-01  0.00000000000E+00 0.  1.
     999901    1    3    3    0    0  0.63809386623E-01  0.98959658233E-01 -0.18203373254E-02  0.88784456151E+00  0.88000000000E+00 0. -1.
        -11    1    4    4    0    0 -0.60864760064E-01 -0.90405087538E-01  0.15242299593E-01  0.11004629793E+00  0.51100000000E-03 0.  1.
         11    1    4    4    0    0 -0.16225415443E-01 -0.18158947177E-01 -0.16423364937E-01  0.29376853231E-01  0.51100000000E-03 0. -1.
</event>
<event>
 8    1  0.1993226E+004  0.1043930E+01  0.7957747E-01            NaN
         13   -1    0    0    0    0  0.00000000000E+00  0.00000000000E+00  0.74505805969E-08  0.10566000000E+00  0.10566000000E+00 0. -1.
     999900   -1    0    0    0    0 -0.00000000000E+00 -0.00000000000E+00 -0.74505805969E-08  0.93827000000E+00  0.93827000000E+00 0.  1.
     999902    2    1    2    0    0 -0.13290155017E-01  0.74731785494E-03  0.12552947185E-03  0.10306182585E+01  0.10305322859E+01 0.  0.
     999903    2    3    3    0    0 -0.20941361637E-01  0.99772304875E-01 -0.86324224489E-01  0.14082162500E+00  0.44562370741E-01 0.  0.
         14    1    1    2    0    0  0.13290155017E-01 -0.74731785494E-03 -0.12552947185E-03  0.13311741509E-01  0.00000000000E+00 0. -1.
     999901    1    3    3    0    0  0.76512066202E-02 -0.99024987020E-01  0.86449753960E-01  0.88979663349E+00  0.88000000000E+00 0. -1.
        -11    1    4    4    0    0 -0.29337076976E-01  0.35197963086E-01 -0.40925767472E-01  0.61438914827E-01  0.51100000000E-03 0. -1.
         11    1    4    4    0    0  0.83957153391E-02  0.64574341789E-01 -0.45398457016E-01  0.79382710171E-01  0.51100000000E-03 0.  1.
</event>
<event>
 8    1  0.1993226E+004  0.1043930E+01  0.7957747E-01            NaN
         13   -1    0    0    0    0  0.00000000000E+00  0.00000000000E+00  0.74505805969E-08  0.10566000000E+00  0.10566000000E+00 0. -1.
     999900   -1    0    0    0    0 -0.00000000000E+00 -0.00000000000E+00 -0.74505805969E-08  0.93827000000E+00  0.93827000000E+00 0. -1.
     999902    2    1    2    0    0 -0.25139726737E-02 -0.12473968276E-01 -0.55460856461E-02  0.10300491135E+01  0.10299555802E+01 0.  0.
     999903    2    3    3    0    0 -0.45535561365E-01  0.42495599991E-01  0.11575556797E+00  0.13898985529E+00  0.45160436103E-01 0.  0.
         14    1    1    2    0    0  0.25139726737E-02  0.12473968276E-01  0.55460856461E-02  0.13880886468E-01  0.00000000000E+00 0.  1.
     999901    1    3    3    0    0  0.43021588691E-01 -0.54969568267E-01 -0.12130165362E+00  0.89105925824E+00  0.88000000000E+00 0. -1.
        -11    1    4    4    0    0 -0.41084727559E-01  0.44167979945E-01  0.67619768631E-01  0.90617103914E-01  0.51100000000E-03 0.  1.
         11    1    4    4    0    0 -0.44508338054E-02 -0.16723799534E-02  0.48135799342E-01  0.48372751375E-01  0.51100000000E-03 0. -1.
</event>
<event>
 8    1  0.1993226E+004  0.1043930E+01  0.7957747E-01            NaN
         13   -1    0    0    0    0  0.00000000000E+00  0.00000000000E+00  0.74505805969E-08  0.10566000000E+00  0.10566000000E+00 0. -1.
     999900   -1    0    0    0    0 -0.00000000000E+00 -0.00000000000E+00 -0.74505805969E-08  0.93827000000E+00  0.93827000000E+00 0.  1.
     999902    2    1    2    0    0  0.33255362279E-02 -0.15792417108E-01 -0.14541369600E-02  0.10277258603E+01  0.10275981071E+01 0.  0.
     999903    2    3    3    0    0 -0.50046609541E-01 -0.11255194471E+00 -0.49721370304E-01  0.13950251116E+00  0.42616106947E-01 0.  0.
         14    1    1    2    0    0 -0.33255362279E-02  0.15792417108E-01  0.14541369600E-02  0.16204139706E-01  0.00000000000E+00 0. -1.
     999901    1    3    3    0    0  0.53372145769E-01  0.96759527603E-01  0.48267233344E-01  0.88822334913E+00  0.88000000000E+00 0. -1.
        -11    1    4    4    0    0 -0.39567389587E-02 -0.20359973556E-01 -0.26834963280E-01  0.33919915708E-01  0.51100000000E-03 0.  1.
         11    1    4    4    0    0 -0.46089870582E-01 -0.92191971154E-01 -0.22886407024E-01  0.10558259546E+00  0.51100000000E-03 0. -1.
</event>
<event>
 8    1  0.1993226E+004  0.1043930E+01  0.7957747E-01            NaN
         13   -1    0    0    0    0  0.00000000000E+00  0.00000000000E+00  0.74505805969E-08  0.10566000000E+00  0.10566000000E+00 0. -1.
     999900   -1    0    0    0    0 -0.00000000000E+00 -0.00000000000E+00 -0.74505805969E-08  0.93827000000E+00  0.93827000000E+00 0. -1.
     999902    2    1    2    0    0 -0.10718114978E-01  0.82946458511E-02 -0.19070692369E-02  0.10302436546E+01  0.10301527419E+01 0.  0.
     999903    2    3    3    0    0 -0.92757896553E-01 -0.36449658269E-01 -0.89146341406E-01  0.14100618958E+00  0.44755673975E-01 0.  0.
         14    1    1    2    0    0  0.10718114978E-01 -0.82946458511E-02  0.19070692369E-02  0.13686345442E-01  0.00000000000E+00 0.  1.
     999901    1    3    3    0    0  0.82039781575E-01  0.44744304120E-01  0.87239272170E-01  0.88923746498E+00  0.88000000000E+00 0.  1.
        -11    1    4    4    0    0 -0.60065286874E-01 -0.45028459245E-01 -0.55939578846E-01  0.93621036267E-01  0.51100000000E-03 0.  1.
         11    1    4    4    0    0 -0.32692609679E-01  0.85788009755E-02 -0.33206762560E-01  0.47385153313E-01  0.51100000000E-03 0. -1.
</event>
<event>
 8    1  0.1993226E+004  0.1043930E+01  0.7957747E-01            NaN
         13   -1    0    0    0    0  0.00000000000E+00  0.00000000000E+00  0.74505805969E-08  0.10566000000E+00  0.10566000000E+00 0. -1.
     999900   -1    0    0    0    0 -0.00000000000E+00 -0.00000000000E+00 -0.74505805969E-08  0.93827000000E+00  0.93827000000E+00 0.  1.
     999902    2    1    2    0    0 -0.10922762985E-01  0.57924381032E-02 -0.39934242863E-02  0.10309374434E+01  0.10308555697E+01 0.  0.
     999903    2    3    3    0    0  0.10144638775E+00  0.75476739597E-01 -0.41090441949E-01  0.14028660458E+00  0.44763815706E-01 0.  0.
         14    1    1    2    0    0  0.10922762985E-01 -0.57924381032E-02  0.39934242863E-02  0.12992556636E-01  0.00000000000E+00 0. -1.
     999901    1    3    3    0    0 -0.11236915074E+00 -0.69684301494E-01  0.37097017663E-01  0.89065083879E+00  0.88000000000E+00 0. -1.
        -11    1    4    4    0    0  0.37098001916E-01  0.38404535553E-01  0.37565370782E-02  0.53530764884E-01  0.51100000000E-03 0. -1.
         11    1    4    4    0    0  0.64348385834E-01  0.37072204044E-01 -0.44846979027E-01  0.86755839694E-01  0.51100000000E-03 0.  1.
</event>
<event>
 8    1  0.1993226E+004  0.1043930E+01  0.7957747E-01            NaN
         13   -1    0    0    0    0  0.00000000000E+00  0.00000000000E+00  0.74505805969E-08  0.10566000000E+00  0.10566000000E+00 0. -1.
     999900   -1    0    0    0    0 -0.00000000000E+00 -0.00000000000E+00 -0.74505805969E-08  0.93827000000E+00  0.93827000000E+00 0.  1.
     999902    2    1    2    0    0 -0.11824995766E-01 -0.32653653214E-02  0.77925692563E-02  0.10293966841E+01  0.10292940862E+01 0.  0.
     999903    2    3    3    0    0  0.52866761125E-01 -0.26098369304E-01  0.11848897871E+00  0.13981247530E+00  0.45076278245E-01 0.  0.
         14    1    1    2    0    0  0.11824995766E-01  0.32653653214E-02 -0.77925692563E-02  0.14533315904E-01  0.00000000000E+00 0.  1.
     999901    1    3    3    0    0 -0.64691756891E-01  0.22833003983E-01 -0.11069640945E+00  0.88958420880E+00  0.88000000000E+00 0. -1.
        -11    1    4    4    0    0  0.14702531996E-01 -0.46272754019E-02  0.22341009524E-02  0.15582953918E-01  0.51100000000E-03 0.  1.
         11    1    4    4    0    0  0.38164229129E-01 -0.21471093902E-01  0.11625487776E+00  0.12422952138E+00  0.51100000000E-03 0. -1.
</event>
<event>
 8    1  0.1993226E+004  0.1043930E+01  0.7957747E-01            NaN
         13   -1    0    0    0    0  0.00000000000E+00  0.00000000000E+00  0.74505805969E-08  0.10566000000E+00  0.10566000000E+00 0. -1.
     999900   -1    0    0    0    0 -0.00000000000E+00 -0.00000000000E+00 -0.74505805969E-08  0.93827000000E+00  0.93827000000E+00 0. -1.
     999902    2    1    2    0    0 -0.62003378635E-02  0.73754635653E-02  0.91153401249E-02  0.10306660987E+01  0.10305807469E+01 0.  0.
     999903    2    3    3    0    0  0.25592477886E-01  0.12569405131E+00 -0.37494227653E-01  0.14095686352E+00  0.44822436401E-01 0.  0.
         14    1    1    2    0    0  0.62003378635E-02 -0.73754635653E-02 -0.91153401249E-02  0.13263901312E-01  0.00000000000E+00 0.  1.
     999901    1    3    3    0    0 -0.31792815750E-01 -0.11831858775E+00  0.46609567778E-01  0.88970923517E+00  0.88000000000E+00 0.  1.
        -11    1    4    4    0    0 -0.93974957868E-03  0.83522525275E-01 -0.36406945034E-01  0.91118725437E-01  0.51100000000E-03 0.  1.
         11    1    4    4    0    0  0.26532227465E-01  0.42171526039E-01 -0.10872826193E-02  0.49838138080E-01  0.51100000000E-03 0. -1.
</event>
<event>
 8    1  0.1993226E+004  0.1043930E+01  0.7957747E-01            NaN
         13   -1    0    0    0    0  0.00000000000E+00  0.00000000000E+00  0.74505805969E-08  0.10566000000E+00  0.10566000000E+00 0.  1.
     999900   -1    0    0    0    0 -0.00000000000E+00 -0.00000000000E+00 -0.74505805969E-08  0.93827000000E+00  0.93827000000E+00 0.  1.
     999902    2    1    2    0    0 -0.22883310135E-02 -0.14051634570E-01 -0.10417958821E-01  0.10262886067E+01  0.10261369720E+01 0.  0.
     999903    2    3    3    0    0 -0.80412921050E-01 -0.57284135570E-01 -0.85687361404E-01  0.13857357149E+00  0.45963036783E-01 0.  0.
         14    1    1    2    0    0  0.22883310135E-02  0.14051634570E-01  0.10417958821E-01  0.17641393338E-01  0.00000000000E+00 0. -1.
     999901    1    3    3    0    0  0.78124590037E-01  0.43232501000E-01  0.75269402583E-01  0.88771503518E+00  0.88000000000E+00 0. -1.
        -11    1    4    4    0    0 -0.70027071345E-01 -0.33785146923E-01 -0.43276269703E-01  0.88984962292E-01  0.51100000000E-03 0.  1.
         11    1    4    4    0    0 -0.10385849705E-01 -0.23498988647E-01 -0.42411091701E-01  0.49588609194E-01  0.51100000000E-03 0. -1.
</event>
<event>
 8    1  0.1993226E+004  0.1043930E+01  0.7957747E-01            NaN
         13   -1    0    0    0    0  0.00000000000E+00  0.00000000000E+00  0.74505805969E-08  0.10566000000E+00  0.10566000000E+00 0. -1.
     999900   -1    0    0    0    0 -0.00000000000E+00 -0.00000000000E+00 -0.74505805969E-08  0.93827000000E+00  0.93827000000E+00 0.  1.
     999902    2    1    2    0    0  0.10077143815E-01 -0.81084801238E-02 -0.57041576571E-02  0.10297937455E+01  0.10296967148E+01 0.  0.
     999903    2    3    3    0    0 -0.17015813047E-01 -0.41987419826E-01  0.12389196143E+00  0.13924505790E+00  0.44581237358E-01 0.  0.
         14    1    1    2    0    0 -0.10077143815E-01  0.81084801238E-02  0.57041576571E-02  0.14136254524E-01  0.00000000000E+00 0. -1.
     999901    1    3    3    0    0  0.27092956861E-01  0.33878939702E-01 -0.12959611909E+00  0.89054868758E+00  0.88000000000E+00 0.  1.
        -11    1    4    4    0    0 -0.13798395454E-01  0.51246049517E-03  0.65553620361E-01  0.66994004181E-01  0.51100000000E-03 0. -1.
         11    1    4    4    0    0 -0.32174175931E-02 -0.42499880321E-01  0.58338341070E-01  0.72251053716E-01  0.51100000000E-03 0.  1.
</event>
<event>
 8    1  0.1993226E+004  0.1043930E+01  0.7957747E-01            NaN
         13   -1    0    0    0    0  0.00000000000E+00  0.00000000000E+00  0.74505805969E-08  0.10566000000E+00  0.10566000000E+00 0. -1.
     999900   -1    0    0    0    0 -0.00000000000E+00 -0.00000000000E+00 -0.74505805969E-08  0.93827000000E+00  0.93827000000E+00 0.  1.
     999902    2    1    2    0    0 -0.30361770015E-02  0.88695049390E-02 -0.10303857588E-01  0.10299996027E+01  0.10299053964E+01 0.  0.
     999903    2    3    3    0    0  0.29479558612E-01 -0.78701503361E-01 -0.10298956600E+00  0.14021502475E+00  0.44614251682E-01 0.  0.
         14    1    1    2    0    0  0.30361770015E-02 -0.88695049390E-02  0.10303857588E-01  0.13930397332E-01  0.00000000000E+00 0. -1.
     999901    1    3    3    0    0 -0.32515735613E-01  0.87571008300E-01  0.92685708414E-01  0.88978457792E+00  0.88000000000E+00 0. -1.
        -11    1    4    4    0    0 -0.44238147629E-02 -0.35778884302E-01 -0.21218026415E-01  0.41834967013E-01  0.51100000000E-03 0.  1.
         11    1    4    4    0    0  0.33903373375E-01 -0.42922619058E-01 -0.81771539586E-01  0.98380057737E-01  0.51100000000E-03 0. -1.
</event>
<event>
 8    1  0.1993226E+004  0.1043930E+01  0.7957747E-01            NaN
         13   -1    0    0    0    0  0.00000000000E+00  0.00000000000E+00  0.74505805969E-08  0.10566000000E+00  0.10566000000E+00 0.  1.
     999900   -1    0    0    0    0 -0.00000000000E+00 -0.00000000000E+00 -0.74505805969E-08  0.93827000000E+00  0.93827000000E+00 0. -1.
     999902    2    1    2    0    0  0.10529173795E-01  0.41291336656E-02  0.79516297867E-02  0.10301046008E+01  0.10300118189E+01 0.  0.
     999903    2    3    3    0    0  0.80987813422E-01 -0.10046613050E+00  0.21272030007E-01  0.14101404176E+00  0.52725623881E-01 0.  0.
         14    1    1    2    0    0 -0.10529173795E-01 -0.41291336656E-02 -0.79516297867E-02  0.13825399158E-01  0.00000000000E+00 0. -1.
     999901    1    3    3    0    0 -0.70458639627E-01  0.10459526416E+00 -0.13320400220E-01  0.88909055908E+00  0.88000000000E+00 0.  1.
        -11    1    4    4    0    0  0.78126215272E-01 -0.97704588361E-01  0.60216644469E-02  0.12524541374E+00  0.51100000000E-03 0. -1.
         11    1    4    4    0    0  0.28615981504E-02 -0.27615421347E-02  0.15250365560E-01  0.15768628021E-01  0.51100000000E-03 0.  1.
</event>
<event>
 8    1  0.1993226E+004  0.1043930E+01  0.7957747E-01            NaN
         13   -1    0    0    0    0  0.00000000000E+00  0.00000000000E+00  0.74505805969E-08  0.10566000000E+00  0.10566000000E+00 0.  1.
     999900   -1    0    0    0    0 -0.00000000000E+00 -0.00000000000E+00 -0.74505805969E-08  0.93827000000E+00  0.93827000000E+00 0.  1.
     999902    2    1    2    0    0 -0.73440196289E-02 -0.65619270375E-02  0.11540203692E-01  0.10287586516E+01  0.10286467778E+01 0.  0.
     999903    2    3    3    0    0  0.11254657596E+00  0.56831271871E-01 -0.24136800192E-01  0.13765523383E+00  0.49697616172E-01 0.  0.
         14    1    1    2    0    0  0.73440196289E-02  0.65619270375E-02 -0.11540203692E-01  0.15171348391E-01  0.00000000000E+00 0. -1.
     999901    1    3    3    0    0 -0.11989059559E+00 -0.63393198909E-01  0.35677003884E-01  0.89110341778E+00  0.88000000000E+00 0. -1.
        -11    1    4    4    0    0  0.12436346329E-01  0.27719493559E-01 -0.12092018763E-01  0.32703380131E-01  0.51100000000E-03 0.  1.
         11    1    4    4    0    0  0.10011022963E+00  0.29111778312E-01 -0.12044781429E-01  0.10495185370E+00  0.51100000000E-03 0. -1.
</event>
<event>
 8    1  0.1993226E+004  0.1043930E+01  0.7957747E-01            NaN
         13   -1    0    0    0    0  0.00000000000E+00  0.00000000000E+00  0.74505805969E-08  0.10566000000E+00  0.10566000000E+00 0.  1.
     999900   -1    0    0    0    0 -0.00000000000E+00 -0.00000000000E+00 -0.74505805969E-08  0.93827000000E+00  0.93827000000E+00 0.  1.
     999902    2    1    2    0    0  0.60419107320E-02 -0.32802137555E-02 -0.15703712404E-01  0.10267873319E+01  0.10266442197E+01 0.  0.
     999903    2    3    3    0    0 -0.12794647641E-01  0.78482372490E-01 -0.10396290137E+00  0.13840136795E+00  0.44982974448E-01 0.  0.
         14    1    1    2    0    0 -0.60419107320E-02  0.32802137555E-02  0.15703712404E-01  0.17142668137E-01  0.00000000000E+00 0.  1.
     999901    1    3    3    0    0  0.18836558373E-01 -0.81762586245E-01  0.88259188962E-01  0.88838596391E+00  0.88000000000E+00 0. -1.
        -11    1    4    4    0    0 -0.23076409244E-01  0.56788137462E-01 -0.94394913093E-01  0.11255253866E+00  0.51100000000E-03 0.  1.
         11    1    4    4    0    0  0.10281761603E-01  0.21694235028E-01 -0.95679882740E-02  0.25848829291E-01  0.51100000000E-03 0. -1.
</event>
<event>
 8    1  0.1993226E+004  0.1043930E+01  0.7957747E-01            NaN
         13   -1    0    0    0    0  0.00000000000E+00  0.00000000000E+00  0.74505805969E-08  0.10566000000E+00  0.10566000000E+00 0.  1.
     999900   -1    0    0    0    0 -0.00000000000E+00 -0.00000000000E+00 -0.74505805969E-08  0.93827000000E+00  0.93827000000E+00 0. -1.
     999902    2    1    2    0    0 -0.45104676735E-02 -0.10786359633E-01  0.72497449645E-02  0.10301732317E+01  0.10300813747E+01 0.  0.
     999903    2    3    3    0    0 -0.10265165722E+00 -0.69018702222E-01 -0.50529546903E-01  0.14092571530E+00  0.44787030886E-01 0.  0.
         14    1    1    2    0    0  0.45104676735E-02  0.10786359633E-01 -0.72497449645E-02  0.13756768327E-01  0.00000000000E+00 0. -1.
     999901    1    3    3    0    0  0.98141189547E-01  0.58232342589E-01  0.57779291867E-01  0.88924751637E+00  0.88000000000E+00 0.  1.
        -11    1    4    4    0    0 -0.98603286991E-02 -0.36467578737E-02 -0.21232423648E-01  0.23698140433E-01  0.51100000000E-03 0. -1.
         11    1    4    4    0    0 -0.92791328521E-01 -0.65371944349E-01 -0.29297123255E-01  0.11722757486E+00  0.51100000000E-03 0.  1.
</event>
<event>
 8    1  0.1993226E+004  0.1043930E+01  0.7957747E-01            NaN
         13   -1    0    0    0    0  0.00000000000E+00  0.00000000000E+00  0.74505805969E-08  0.10566000000E+00  0.10566000000E+00 0. -1.
     999900   -1    0    0    0    0 -0.00000000000E+00 -0.00000000000E+00 -0.74505805969E-08  0.93827000000E+00  0.93827000000E+00 0.  1.
     999902    2    1    2    0    0  0.68749261040E-02 -0.11979925481E-01  0.20553425012E-02  0.10299654858E+01  0.10298708144E+01 0.  0.
     999903    2    3    3    0    0  0.21346283923E-01 -0.12762698248E+00 -0.35864619189E-01  0.14147148726E+00  0.44537627938E-01 0.  0.
         14    1    1    2    0    0 -0.68749261040E-02  0.11979925481E-01 -0.20553425012E-02  0.13964514179E-01  0.00000000000E+00 0. -1.
     999901    1    3    3    0    0 -0.14471357819E-01  0.11564705700E+00  0.37919961691E-01  0.88849399856E+00  0.88000000000E+00 0. -1.
        -11    1    4    4    0    0  0.12854124826E-01 -0.93003854736E-01 -0.45182556337E-02  0.93997985488E-01  0.51100000000E-03 0.  1.
         11    1    4    4    0    0  0.84921590974E-02 -0.34623127745E-01 -0.31346363556E-01  0.47473501768E-01  0.51100000000E-03 0. -1.
</event>
<event>
 8    1  0.1993226E+004  0.1043930E+01  0.7957747E-01            NaN
         13   -1    0    0    0    0  0.00000000000E+00  0.00000000000E+00  0.74505805969E-08  0.10566000000E+00  0.10566000000E+00 0. -1.
     999900   -1    0    0    0    0 -0.00000000000E+00 -0.00000000000E+00 -0.74505805969E-08  0.93827000000E+00  0.93827000000E+00 0.  1.
     999902    2    1    2    0    0 -0.12288407069E-01 -0.64199442068E-02 -0.34620622500E-02  0.10296399158E+01  0.10295407470E+01 0.  0.
     999903    2    3    3    0    0  0.11083542700E+00 -0.65312369991E-01 -0.26844133688E-01  0.13881192027E+00  0.44698368461E-01 0.  0.
         14    1    1    2    0    0  0.12288407069E-01  0.64199442068E-02  0.34620622500E-02  0.14290084217E-01  0.00000000000E+00 0. -1.
     999901    1    3    3    0    0 -0.12312383407E+00  0.58892425784E-01  0.23382071438E-01  0.89082799552E+00  0.88000000000E+00 0.  1.
        -11    1    4    4    0    0  0.48916570587E-01 -0.22942578839E-01 -0.33359053812E-01  0.63500239323E-01  0.51100000000E-03 0. -1.
         11    1    4    4    0    0  0.61918856411E-01 -0.42369791151E-01  0.65149201239E-02  0.75311680944E-01  0.51100000000E-03 0.  1.
</event>
<event>
 8    1  0.1993226E+004  0.1043930E+01  0.7957747E-01            NaN
         13   -1    0    0    0    0  0.00000000000E+00  0.00000000000E+00  0.74505805969E-08  0.10566000000E+00  0.10566000000E+00 0. -1.
     999900   -1    0    0    0    0 -0.00000000000E+00 -0.00000000000E+00 -0.74505805969E-08  0.93827000000E+00  0.93827000000E+00 0.  1.
     999902    2    1    2    0    0  0.14052956200E-02 -0.15765294922E-02 -0.17726291151E-01  0.10260783418E+01  0.10259230390E+01 0.  0.
     999903    2    3    3    0    0 -0.19777538254E-01 -0.54903610644E-01 -0.11773461521E+00  0.13855698722E+00  0.43943618495E-01 0.  0.
         14    1    1    2    0    0 -0.14052956200E-02  0.15765294922E-02  0.17726291151E-01  0.17851658158E-01  0.00000000000E+00 0. -1.
     999901    1    3    3    0    0  0.21182833874E-01  0.53327081152E-01  0.10000832406E+00  0.88752135463E+00  0.88000000000E+00 0. -1.
        -11    1    4    4    0    0 -0.20981969997E-01 -0.31451374765E-02 -0.36695677947E-01  0.42390669441E-01  0.51100000000E-03 0. -1.
         11    1    4    4    0    0  0.12044317429E-02 -0.51758473168E-01 -0.81038937264E-01  0.96166317775E-01  0.51100000000E-03 0.  1.
</event>
<event>
 8    1  0.1993226E+004  0.1043930E+01  0.7957747E-01            NaN
         13   -1    0    0    0    0  0.00000000000E+00  0.00000000000E+00  0.74505805969E-08  0.10566000000E+00  0.10566000000E+00 0.  1.
     999900   -1    0    0    0    0 -0.00000000000E+00 -0.00000000000E+00 -0.74505805969E-08  0.93827000000E+00  0.93827000000E+00 0. -1.
     999902    2    1    2    0    0  0.11386023041E-01  0.84125570935E-02 -0.63119098242E-03  0.10297592188E+01  0.10296617103E+01 0.  0.
     999903    2    3    3    0    0  0.10752580827E+00 -0.76670626945E-01  0.15947267304E-01  0.14028923517E+00  0.44570951187E-01 0.  0.
         14    1    1    2    0    0 -0.11386023041E-01 -0.84125570935E-02  0.63119098242E-03  0.14170781192E-01  0.00000000000E+00 0. -1.
     999901    1    3    3    0    0 -0.96139785232E-01  0.85083184038E-01 -0.16578458286E-01  0.88946998364E+00  0.88000000000E+00 0. -1.
        -11    1    4    4    0    0  0.87947053571E-01 -0.48825597650E-01  0.27594360492E-01  0.10430883505E+00  0.51100000000E-03 0. -1.
         11    1    4    4    0    0  0.19578754702E-01 -0.27845029295E-01 -0.11647093188E-01  0.35980400121E-01  0.51100000000E-03 0.  1.
</event>
<event>
 7    1  0.1993226E+004  0.1043930E+01  0.7957747E-01            NaN
         13   -1    0    0    0    0  0.00000000000E+00  0.00000000000E+00  0.74505805969E-08  0.10566000000E+00  0.10566000000E+00 0.  1.
     999900   -1    0    0    0    0 -0.00000000000E+00 -0.00000000000E+00 -0.74505805969E-08  0.93827000000E+00  0.93827000000E+00 0.  1.
     999903    2    1    2    0    0  0.11565797207E+00  0.12215990433E-01  0.15031258568E-01  0.12568832651E+00  0.45228528180E-01 0.  0.
         14    1    1    2    0    0  0.16292656273E-02 -0.17976492633E-01 -0.24450464674E-01  0.30391347727E-01  0.00000000000E+00 0. -1.
     999901    1    1    2    0    0 -0.11728723770E+00  0.57605022009E-02  0.94192061061E-02  0.88785032576E+00  0.88000000000E+00 0.  1.
        -11    1    3    3    0    0  0.60908447936E-01 -0.16232111966E-01  0.93479692660E-02  0.63725710191E-01  0.51100000000E-03 0. -1.
         11    1    3    3    0    0  0.54749524134E-01  0.28448102399E-01  0.56832893023E-02  0.61962616320E-01  0.51100000000E-03 0.  1.
</event>
<event>
 8    1  0.1993226E+004  0.1043930E+01  0.7957747E-01            NaN
         13   -1    0    0    0    0  0.00000000000E+00  0.00000000000E+00  0.74505805969E-08  0.10566000000E+00  0.10566000000E+00 0. -1.
     999900   -1    0    0    0    0 -0.00000000000E+00 -0.00000000000E+00 -0.74505805969E-08  0.93827000000E+00  0.93827000000E+00 0.  1.
     999902    2    1    2    0    0  0.44722454357E-02 -0.51268816818E-02 -0.11009800129E-01  0.10309877593E+01  0.10309065226E+01 0.  0.
     999903    2    3    3    0    0 -0.45950421010E-01  0.21296878734E-01  0.12170717930E+00  0.13921735331E+00  0.44764223823E-01 0.  0.
         14    1    1    2    0    0 -0.44722454357E-02  0.51268816818E-02  0.11009800129E-01  0.12942240683E-01  0.00000000000E+00 0. -1.
     999901    1    3    3    0    0  0.50422666446E-01 -0.26423760415E-01 -0.13271697943E+00  0.89177040601E+00  0.88000000000E+00 0. -1.
        -11    1    4    4    0    0 -0.44170133190E-01  0.48652805041E-02  0.56157730201E-01  0.71614407788E-01  0.51100000000E-03 0.  1.
         11    1    4    4    0    0 -0.17802878200E-02  0.16431598230E-01  0.65549449096E-01  0.67602945520E-01  0.51100000000E-03 0. -1.
</event>
<event>
 8    1  0.1993226E+004  0.1043930E+01  0.7957747E-01            NaN
         13   -1    0    0    0    0  0.00000000000E+00  0.00000000000E+00  0.74505805969E-08  0.10566000000E+00  0.10566000000E+00 0. -1.
     999900   -1    0    0    0    0 -0.00000000000E+00 -0.00000000000E+00 -0.74505805969E-08  0.93827000000E+00  0.93827000000E+00 0.  1.
     999902    2    1    2    0    0  0.12545524392E-01 -0.77389295531E-02 -0.25454547567E-02  0.10289713720E+01  0.10288626360E+01 0.  0.
     999903    2    3    3    0    0 -0.49737713780E-01 -0.91144104314E-01  0.80873790706E-01  0.13891834239E+00  0.44459508610E-01 0.  0.
         14    1    1    2    0    0 -0.12545524392E-01  0.77389295531E-02  0.25454547567E-02  0.14958628039E-01  0.00000000000E+00 0. -1.
     999901    1    3    3    0    0  0.62283238172E-01  0.83405174761E-01 -0.83419245463E-01  0.89005302957E+00  0.88000000000E+00 0.  1.
        -11    1    4    4    0    0 -0.19602255863E-01 -0.37236861688E-01  0.60864342676E-01  0.73997038007E-01  0.51100000000E-03 0.  1.
         11    1    4    4    0    0 -0.30135457916E-01 -0.53907242626E-01  0.20009448030E-01  0.64921304383E-01  0.51100000000E-03 0. -1.
</event>
<event>
 8    1  0.1993226E+004  0.1043930E+01  0.7957747E-01            NaN
         13   -1    0    0    0    0  0.00000000000E+00  0.00000000000E+00  0.74505805969E-08  0.10566000000E+00  0.10566000000E+00 0. -1.
     999900   -1    0    0    0    0 -0.00000000000E+00 -0.00000000000E+00 -0.74505805969E-08  0.93827000000E+00  0.93827000000E+00 0. -1.
     999902    2    1    2    0    0 -0.76280735163E-02  0.72781138987E-02  0.85924564502E-02  0.10303289429E+01  0.10302391673E+01 0.  0.
     999903    2    3    3    0    0 -0.24843972866E-01 -0.61294318831E-01  0.11602581459E+00  0.14098059032E+00  0.45158838413E-01 0.  0.
         14    1    1    2    0    0  0.76280735163E-02 -0.72781138987E-02 -0.85924564502E-02  0.13601057141E-01  0.00000000000E+00 0.  1.
     999901    1    3    3    0    0  0.17215899350E-01  0.68572432729E-01 -0.10743335814E+00  0.88934835254E+00  0.88000000000E+00 0. -1.
        -11    1    4    4    0    0 -0.17851562965E-02 -0.23051151954E-01  0.80963237627E-01  0.84201243206E-01  0.51100000000E-03 0.  1.
         11    1    4    4    0    0 -0.23058816570E-01 -0.38243166876E-01  0.35062576965E-01  0.56779347115E-01  0.51100000000E-03 0. -1.
</event>
<event>
 8    1  0.1993226E+004  0.1043930E+01  0.7957747E-01            NaN
         13   -1    0    0    0    0  0.00000000000E+00  0.00000000000E+00  0.74505805969E-08  0.10566000000E+00  0.10566000000E+00 0.  1.
     999900   -1    0    0    0    0 -0.00000000000E+00 -0.00000000000E+00 -0.74505805969E-08  0.93827000000E+00  0.93827000000E+00 0. -1.
     999902    2    1    2    0    0  0.13893251879E-01  0.99847681514E-03  0.14314270714E-02  0.10299275578E+01  0.10298323679E+01 0.  0.
     999903    2    3    3    0    0  0.55960993439E-01 -0.80948005982E-01 -0.90016631943E-01  0.14040652466E+00  0.43895166956E-01 0.  0.
         14    1    1    2    0    0 -0.13893251879E-01 -0.99847681514E-03 -0.14314270714E-02  0.14002442186E-01  0.00000000000E+00 0. -1.
     999901    1    3    3    0    0 -0.42067741560E-01  0.81946482797E-01  0.91448059014E-01  0.88952103315E+00  0.88000000000E+00 0.  1.
        -11    1    4    4    0    0  0.10930197666E-01 -0.10054964455E-01 -0.39959970079E-01  0.42633693963E-01  0.51100000000E-03 0. -1.
         11    1    4    4    0    0  0.45030795773E-01 -0.70893041527E-01 -0.50056661864E-01  0.97772830699E-01  0.51100000000E-03 0.  1.
</event>
<event>
 8    1  0.1993226E+004  0.1043930E+01  0.7957747E-01            NaN
         13   -1    0    0    0    0  0.00000000000E+00  0.00000000000E+00  0.74505805969E-08  0.10566000000E+00  0.10566000000E+00 0.  1.
     999900   -1    0    0    0    0 -0.00000000000E+00 -0.00000000000E+00 -0.74505805969E-08  0.93827000000E+00  0.93827000000E+00 0.  1.
     999902    2    1    2    0    0  0.85288201013E-02  0.82647844113E-02  0.46853233685E-02  0.10311628669E+01  0.10310838270E+01 0.  0.
     999903    2    3    3    0    0  0.85342244395E-01 -0.69115046192E-02  0.10400790095E+00  0.14212091266E+00  0.45272980705E-01 0.  0.
         14    1    1    2    0    0 -0.85288201013E-02 -0.82647844113E-02 -0.46853233685E-02  0.12767133145E-01  0.00000000000E+00 0. -1.
     999901    1    3    3    0    0 -0.76813424294E-01  0.15176289031E-01 -0.99322577577E-01  0.88904195419E+00  0.88000000000E+00 0. -1.
        -11    1    4    4    0    0  0.75803956676E-01 -0.57946535735E-03  0.10617207745E+00  0.13045821851E+00  0.51100000000E-03 0. -1.
         11    1    4    4    0    0  0.95382877195E-02 -0.63320392619E-02 -0.21641765002E-02  0.11662694147E-01  0.51100000000E-03 0.  1.
</event>
<event>
 8    1  0.1993226E+004  0.1043930E+01  0.7957747E-01            NaN
         13   -1    0    0    0    0  0.00000000000E+00  0.00000000000E+00  0.74505805969E-08  0.10566000000E+00  0.10566000000E+00 0. -1.
     999900   -1    0    0    0    0 -0.00000000000E+00 -0.00000000000E+00 -0.74505805969E-08  0.93827000000E+00  0.93827000000E+00 0.  1.
     999902    2    1    2    0    0  0.12299254272E-01 -0.41600676652E-02 -0.40289382457E-02  0.10303355099E+01  0.10302458215E+01 0.  0.
     999903    2    3    3    0    0  0.24538046173E-01  0.13622198333E-01 -0.13099546556E+00  0.14096129387E+00  0.43847398734E-01 0.  0.
         14    1    1    2    0    0 -0.12299254272E-01  0.41600676652E-02  0.40289382457E-02  0.13594490134E-01  0.00000000000E+00 0. -1.
     999901    1    3    3    0    0 -0.12238791901E-01 -0.17782265998E-01  0.12696652732E+00  0.88937421599E+00  0.88000000000E+00 0. -1.
        -11    1    4    4    0    0  0.37159803282E-01  0.12232533497E-01 -0.10425573386E+00  0.11135530979E+00  0.51100000000E-03 0.  1.
         11    1    4    4    0    0 -0.12621757110E-01  0.13896648357E-02 -0.26739731704E-01  0.29605984083E-01  0.51100000000E-03 0. -1.
</event>
<event>
 8    1  0.1993226E+004  0.1043930E+01  0.7957747E-01            NaN
         13   -1    0    0    0    0  0.00000000000E+00  0.00000000000E+00  0.74505805969E-08  0.10566000000E+00  0.10566000000E+00 0. -1.
     999900   -1    0    0    0    0 -0.00000000000E+00 -0.00000000000E+00 -0.74505805969E-08  0.93827000000E+00  0.93827000000E+00 0. -1.
     999902    2    1    2    0    0 -0.46769516386E-02  0.12638464120E-01 -0.51035018719E-02  0.10295199208E+01  0.10294190677E+01 0.  0.
     999903    2    3    3    0    0  0.19544704068E-01 -0.12875862607E-01 -0.13072659122E+00  0.13990268283E+00  0.43994723739E-01 0.  0.
         14    1    1    2    0    0  0.46769516386E-02 -0.12638464120E-01  0.51035018719E-02  0.14410079226E-01  0.00000000000E+00 0. -1.
     999901    1    3    3    0    0 -0.24221655706E-01  0.25514326727E-01  0.12562308934E+00  0.88961723795E+00  0.88000000000E+00 0.  1.
        -11    1    4    4    0    0  0.11952792433E-01 -0.19201710072E-01 -0.12750457231E+00  0.12949614665E+00  0.51100000000E-03 0. -1.
         11    1    4    4    0    0  0.75919116345E-02  0.63258474649E-02 -0.32220189079E-02  0.10406536180E-01  0.51100000000E-03 0.  1.
</event>
<event>
 7    1  0.1993226E+004  0.1043930E+01  0.7957747E-01            NaN
         13   -1    0    0    0    0  0.00000000000E+00  0.00000000000E+00  0.74505805969E-08  0.10566000000E+00  0.10566000000E+00 0.  1.
     999900   -1    0    0    0    0 -0.00000000000E+00 -0.00000000000E+00 -0.74505805969E-08  0.93827000000E+00  0.93827000000E+00 0.  1.
     999903    2    1    2    0    0 -0.14045430990E-03 -0.55150164367E-01  0.28735575420E-02  0.73345302998E-01  0.48267129414E-01 0.  0.
         14    1    1    2    0    0  0.59168322693E-01 -0.15747101630E-01  0.57114274069E-01  0.83731128754E-01  0.00000000000E+00 0.  1.
     999901    1    1    2    0    0 -0.59027868383E-01  0.70897265997E-01 -0.59987831611E-01  0.88685356825E+00  0.88000000000E+00 0. -1.
        -11    1    3    3    0    0 -0.66440306637E-02 -0.22360805992E-01  0.24258885905E-01  0.33658631203E-01  0.51100000000E-03 0.  1.
         11    1    3    3    0    0  0.65035763538E-02 -0.32789358375E-01 -0.21385328363E-01  0.39686671795E-01  0.51100000000E-03 0. -1.
</event>
<event>
 8    1  0.1993226E+004  0.1043930E+01  0.7957747E-01            NaN
         13   -1    0    0    0    0  0.00000000000E+00  0.00000000000E+00  0.74505805969E-08  0.10566000000E+00  0.10566000000E+00 0. -1.
     999900   -1    0    0    0    0 -0.00000000000E+00 -0.00000000000E+00 -0.74505805969E-08  0.93827000000E+00  0.93827000000E+00 0.  1.
     999902    2    1    2    0    0  0.10128775690E-01 -0.56622103668E-02  0.71778543736E-02  0.10302854290E+01  0.10301950742E+01 0.  0.
     999903    2    3    3    0    0 -0.12082490361E+00 -0.21883947515E-01  0.49904791666E-01  0.13942202647E+00  0.43248684861E-01 0.  0.
         14    1    1    2    0    0 -0.10128775690E-01  0.56622103668E-02 -0.71778543736E-02  0.13644570958E-01  0.00000000000E+00 0.  1.
     999901    1    3    3    0    0  0.13095367930E+00  0.16221737148E-01 -0.42726937293E-01  0.89086340258E+00  0.88000000000E+00 0.  1.
        -11    1    4    4    0    0 -0.90782411033E-01 -0.68293065950E-02  0.17441512089E-01  0.92696024977E-01  0.51100000000E-03 0. -1.
         11    1    4    4    0    0 -0.30042492575E-01 -0.15054640920E-01  0.32463279578E-01  0.46726001491E-01  0.51100000000E-03 0.  1.
</event>
<event>
 8    1  0.1993226E+004  0.1043930E+01  0.7957747E-01            NaN
         13   -1    0    0    0    0  0.00000000000E+00  0.00000000000E+00  0.74505805969E-08  0.10566000000E+00  0.10566000000E+00 0.  1.
     999900   -1    0    0    0    0 -0.00000000000E+00 -0.00000000000E+00 -0.74505805969E-08  0.93827000000E+00  0.93827000000E+00 0. -1.
     999902    2    1    2    0    0 -0.51480848405E-02 -0.50746813637E-02 -0.11871978873E-01  0.10300303939E+01  0.10299366064E+01 0.  0.
     999903    2    3    3    0    0  0.10812436396E+00 -0.65833727566E-01  0.37359181049E-01  0.13933065968E+00  0.44635933414E-01 0.  0.
         14    1    1    2    0    0  0.51480848405E-02  0.50746813637E-02  0.11871978873E-01  0.13899606139E-01  0.00000000000E+00 0.  1.
     999901    1    3    3    0    0 -0.11327244880E+00  0.60759046202E-01 -0.49231159922E-01  0.89069973418E+00  0.88000000000E+00 0. -1.
        -11    1    4    4    0    0  0.22857136292E-01  0.11734867734E-03  0.19529303108E-01  0.30068542550E-01  0.51100000000E-03 0.  1.
         11    1    4    4    0    0  0.85267227672E-01 -0.65951076243E-01  0.17829877941E-01  0.10926211714E+00  0.51100000000E-03 0. -1.
</event>
<event>
 8    1  0.1993226E+004  0.1043930E+01  0.7957747E-01            NaN
         13   -1    0    0    0    0  0.00000000000E+00  0.00000000000E+00  0.74505805969E-08  0.10566000000E+00  0.10566000000E+00 0. -1.
     999900   -1    0    0    0    0 -0.00000000000E+00 -0.00000000000E+00 -0.74505805969E-08  0.93827000000E+00  0.93827000000E+00 0. -1.
     999902    2    1    2    0    0 -0.11207762097E-01  0.74933907984E-02 -0.40409410176E-02  0.10298554115E+01  0.10297592314E+01 0.  0.
     999903    2    3    3    0    0 -0.55591549834E-01  0.11001150986E+00  0.51919220675E-01  0.14102954271E+00  0.44730009253E-01 0.  0.
         14    1    1    2    0    0  0.11207762097E-01 -0.74933907984E-02  0.40409410176E-02  0.14074588491E-01  0.00000000000E+00 0. -1.
     999901    1    3    3    0    0  0.44383787736E-01 -0.10251811906E+00 -0.55960161692E-01  0.88882586880E+00  0.88000000000E+00 0. -1.
        -11    1    4    4    0    0 -0.34641328403E-01  0.43730677115E-01  0.44021969847E-01  0.71067494009E-01  0.51100000000E-03 0.  1.
         11    1    4    4    0    0 -0.20950221430E-01  0.66280832741E-01  0.78972508281E-02  0.69962048701E-01  0.51100000000E-03 0. -1.
</event>
<event>
 8    1  0.1993226E+004  0.1043930E+01  0.7957747E-01            NaN
         13   -1    0    0    0    0  0.00000000000E+00  0.00000000000E+00  0.74505805969E-08  0.10566000000E+00  0.10566000000E+00 0. -1.
     999900   -1    0    0    0    0 -0.00000000000E+00 -0.00000000000E+00 -0.74505805969E-08  0.93827000000E+00  0.93827000000E+00 0. -1.
     999902    2    1    2    0    0 -0.11330077454E-01 -0.59540253968E-02  0.63176019612E-02  0.10296564872E+01  0.10295575498E+01 0.  0.
     999903    2    3    3    0    0 -0.12073809524E+00 -0.24453466495E-01  0.55540290230E-01  0.14132365726E+00  0.41376232289E-01 0.  0.
         14    1    1    2    0    0  0.11330077454E-01  0.59540253968E-02 -0.63176019612E-02  0.14273512815E-01  0.00000000000E+00 0.  1.
     999901    1    3    3    0    0  0.10940801778E+00  0.18499441099E-01 -0.49222688269E-01  0.88833282992E+00  0.88000000000E+00 0. -1.
        -11    1    4    4    0    0 -0.74176415396E-01  0.35714248070E-02  0.41987567655E-01  0.85311855183E-01  0.51100000000E-03 0. -1.
         11    1    4    4    0    0 -0.46561679841E-01 -0.28024891302E-01  0.13552722575E-01  0.56011802080E-01  0.51100000000E-03 0.  1.
</event>
<event>
 8    1  0.1993226E+004  0.1043930E+01  0.7957747E-01            NaN
         13   -1    0    0    0    0  0.00000000000E+00  0.00000000000E+00  0.74505805969E-08  0.10566000000E+00  0.10566000000E+00 0.  1.
     999900   -1    0    0    0    0 -0.00000000000E+00 -0.00000000000E+00 -0.74505805969E-08  0.93827000000E+00  0.93827000000E+00 0.  1.
     999902    2    1    2    0    0 -0.40178820808E-02 -0.13407632761E-01  0.78195294905E-02  0.10278971265E+01  0.10277720805E+01 0.  0.
     999903    2    3    3    0    0 -0.12123958116E+00 -0.49470551425E-01  0.14921523154E-01  0.13936355975E+00  0.45312012045E-01 0.  0.
         14    1    1    2    0    0  0.40178820808E-02  0.13407632761E-01 -0.78195294905E-02  0.16032873546E-01  0.00000000000E+00 0.  1.
     999901    1    3    3    0    0  0.11722169908E+00  0.36062918664E-01 -0.71019936631E-02  0.88853356670E+00  0.88000000000E+00 0. -1.
        -11    1    4    4    0    0 -0.10094650602E+00 -0.32455395954E-01  0.28216322383E-01  0.10972680518E+00  0.51100000000E-03 0. -1.
         11    1    4    4    0    0 -0.20293075140E-01 -0.17015155470E-01 -0.13294799229E-01  0.29636754577E-01  0.51100000000E-03 0.  1.
</event>
<event>
 8    1  0.1993226E+004  0.1043930E+01  0.7957747E-01            NaN
         13   -1    0    0    0    0  0.00000000000E+00  0.00000000000E+00  0.74505805969E-08  0.10566000000E+00  0.10566000000E+00 0.  1.
     999900   -1    0    0    0    0 -0.00000000000E+00 -0.00000000000E+00 -0.74505805969E-08  0.93827000000E+00  0.93827000000E+00 0. -1.
     999902    2    1    2    0    0 -0.26673117016E-02  0.10022730600E-01  0.93701962341E-02  0.10299525089E+01  0.10298576602E+01 0.  0.
     999903    2    3    3    0    0 -0.36885954624E-01  0.11094372194E+00  0.66489053508E-01  0.14168536108E+00  0.44551815026E-01 0.  0.
         14    1    1    2    0    0  0.26673117016E-02 -0.10022730600E-01 -0.93701962341E-02  0.13977491115E-01  0.00000000000E+00 0. -1.
     999901    1    3    3    0    0  0.34218642922E-01 -0.10092099134E+00 -0.57118857274E-01  0.88826714781E+00  0.88000000000E+00 0. -1.
        -11    1    4    4    0    0 -0.52455737909E-02  0.69272494743E-01  0.53734814467E-01  0.87828730943E-01  0.51100000000E-03 0.  1.
         11    1    4    4    0    0 -0.31640380833E-01  0.41671227193E-01  0.12754239041E-01  0.53856630136E-01  0.51100000000E-03 0. -1.
</event>
<event>
 8    1  0.1993226E+004  0.1043930E+01  0.7957747E-01            NaN
         13   -1    0    0    0    0  0.00000000000E+00  0.00000000000E+00  0.74505805969E-08  0.10566000000E+00  0.10566000000E+00 0. -1.
     999900   -1    0    0    0    0 -0.00000000000E+00 -0.00000000000E+00 -0.74505805969E-08  0.93827000000E+00  0.93827000000E+00 0. -1.
     999902    2    1    2    0    0  0.57601257477E-02  0.73425207402E-02  0.11254949745E-01  0.10293092766E+01  0.10292054320E+01 0.  0.
     999903    2    3    3    0    0 -0.88928678762E-01  0.94402201050E-01  0.20349675036E-01  0.13991168739E+00  0.48384765420E-01 0.  0.
         14    1    1    2    0    0 -0.57601257477E-02 -0.73425207402E-02 -0.11254949745E-01  0.14620723417E-01  0.00000000000E+00 0.  1.
     999901    1    3    3    0    0  0.94688804510E-01 -0.87059680310E-01 -0.90947252908E-02  0.88939758919E+00  0.88000000000E+00 0.  1.
        -11    1    4    4    0    0 -0.11091068246E-01  0.35081607001E-02  0.16482068319E-01  0.20180155684E-01  0.51100000000E-03 0. -1.
         11    1    4    4    0    0 -0.77837610516E-01  0.90894040350E-01  0.38676067167E-02  0.11973153171E+00  0.51100000000E-03 0.  1.
</event>
<event>
 8    1  0.1993226E+004  0.1043930E+01  0.7957747E-01            NaN
         13   -1    0    0    0    0  0.00000000000E+00  0.00000000000E+00  0.74505805969E-08  0.10566000000E+00  0.10566000000E+00 0.  1.
     999900   -1    0    0    0    0 -0.00000000000E+00 -0.00000000000E+00 -0.74505805969E-08  0.93827000000E+00  0.93827000000E+00 0. -1.
     999902    2    1    2    0    0  0.68930377342E-02  0.61825584775E-02  0.10638937002E-01  0.10298259233E+01  0.10297293369E+01 0.  0.
     999903    2    3    3    0    0 -0.35346823836E-01 -0.84769524141E-01 -0.92389444428E-01  0.13815819674E+00  0.46006605033E-01 0.  0.
         14    1    1    2    0    0 -0.68930377342E-02 -0.61825584775E-02 -0.10638937002E-01  0.14104076683E-01  0.00000000000E+00 0.  1.
     999901    1    3    3    0    0  0.42239861570E-01  0.90952082618E-01  0.10302838143E+00  0.89166772658E+00  0.88000000000E+00 0.  1.
        -11    1    4    4    0    0 -0.66842597346E-02 -0.55651814556E-01 -0.75285834298E-01  0.93861716150E-01  0.51100000000E-03 0.  1.
         11    1    4    4    0    0 -0.28662564101E-01 -0.29117709585E-01 -0.17103610130E-01  0.44296480591E-01  0.51100000000E-03 0. -1.
</event>
<event>
 8    1  0.1993226E+004  0.1043930E+01  0.7957747E-01            NaN
         13   -1    0    0    0    0  0.00000000000E+00  0.00000000000E+00  0.74505805969E-08  0.10566000000E+00  0.10566000000E+00 0. -1.
     999900   -1    0    0    0    0 -0.00000000000E+00 -0.00000000000E+00 -0.74505805969E-08  0.93827000000E+00  0.93827000000E+00 0. -1.
     999902    2    1    2    0    0  0.28068013611E-02  0.13254000790E-03  0.13067162463E-01  0.10305641317E+01  0.10304774539E+01 0.  0.
     999903    2    3    3    0    0  0.59467896350E-01  0.11683609046E+00 -0.12318528511E-01  0.14069075212E+00  0.49548348661E-01 0.  0.
         14    1    1    2    0    0 -0.28068013611E-02 -0.13254000790E-03 -0.13067162463E-01  0.13365868306E-01  0.00000000000E+00 0.  1.
     999901    1    3    3    0    0 -0.56661094989E-01 -0.11670355046E+00  0.25385690974E-01  0.88987337958E+00  0.88000000000E+00 0.  1.
        -11    1    4    4    0    0  0.55098135729E-01  0.55788542329E-01 -0.83175052081E-03  0.78416318110E-01  0.51100000000E-03 0.  1.
         11    1    4    4    0    0  0.43697606213E-02  0.61047548135E-01 -0.11486777990E-01  0.62274434006E-01  0.51100000000E-03 0. -1.
</event>
<event>
 8    1  0.1993226E+004  0.1043930E+01  0.7957747E-01            NaN
         13   -1    0    0    0    0  0.00000000000E+00  0.00000000000E+00  0.74505805969E-08  0.10566000000E+00  0.10566000000E+00 0. -1.
     999900   -1    0    0    0    0 -0.00000000000E+00 -0.00000000000E+00 -0.74505805969E-08  0.93827000000E+00  0.93827000000E+00 0.  1.
     999902    2    1    2    0    0  0.65947695717E-02 -0.39308423477E-02  0.12039589169E-01  0.10296508469E+01  0.10295518308E+01 0.  0.
     999903    2    3    3    0    0  0.39911503497E-01 -0.23868785292E-01 -0.12385837632E+00  0.13837323390E+00  0.40541428845E-01 0.  0.
         14    1    1    2    0    0 -0.65947695717E-02  0.39308423477E-02 -0.12039589169E-01  0.14279153148E-01  0.00000000000E+00 0.  1.
     999901    1    3    3    0    0 -0.33316733925E-01  0.19937942944E-01  0.13589796549E+00  0.89127761295E+00  0.88000000000E+00 0. -1.
        -11    1    4    4    0    0  0.45256366137E-01 -0.17998457670E-01 -0.78949229906E-01  0.92764891948E-01  0.51100000000E-03 0. -1.
         11    1    4    4    0    0 -0.53448626399E-02 -0.58703276220E-02 -0.44909146412E-01  0.45608341951E-01  0.51100000000E-03 0.  1.
</event>
<event>
 8    1  0.2077896E+004  0.1043930E+01  0.7957747E-01            NaN
         13   -1    0    0    0    0  0.00000000000E+00  0.00000000000E+00  0.74505805969E-08  0.10566000000E+00  0.10566000000E+00 0.  1.
     999900   -1    0    0    0    0 -0.00000000000E+00 -0.00000000000E+00 -0.74505805969E-08  0.93827000000E+00  0.93827000000E+00 0. -1.
     999902    2    1    2    0    0 -0.62411403595E-02 -0.10624328460E-01 -0.28863496460E-02  0.10312745979E+01  0.10311969439E+01 0.  0.
     999903    2    3    3    0    0 -0.99129565458E-01  0.86920270924E-01  0.18234795636E-01  0.14077512503E+00  0.45862008358E-01 0.  0.
         14    1    1    2    0    0  0.62411403595E-02  0.10624328460E-01  0.28863496460E-02  0.12655402107E-01  0.00000000000E+00 0.  1.
     999901    1    3    3    0    0  0.92888425098E-01 -0.97544599384E-01 -0.21121145282E-01  0.89049947286E+00  0.88000000000E+00 0. -1.
        -11    1    4    4    0    0 -0.30451643880E-01  0.56508838014E-01  0.39329788152E-02  0.64313924091E-01  0.51100000000E-03 0.  1.
         11    1    4    4    0    0 -0.68677921578E-01  0.30411432910E-01  0.14301816821E-01  0.76461200941E-01  0.51100000000E-03 0. -1.
</event>
<event>
 8    1  0.1993226E+004  0.1043930E+01  0.7957747E-01            NaN
         13   -1    0    0    0    0  0.00000000000E+00  0.00000000000E+00  0.74505805969E-08  0.10566000000E+00  0.10566000000E+00 0.  1.
     999900   -1    0    0    0    0 -0.00000000000E+00 -0.00000000000E+00 -0.74505805969E-08  0.93827000000E+00  0.93827000000E+00 0.  1.
     999902    2    1    2    0    0  0.10361229737E-01  0.90903132772E-02 -0.34119081081E-02  0.10297303523E+01  0.10296324434E+01 0.  0.
     999903    2    3    3    0    0 -0.69473352948E-01  0.77954393251E-01  0.76892081301E-01  0.13980644950E+00  0.52249564192E-01 0.  0.
         14    1    1    2    0    0 -0.10361229737E-01 -0.90903132772E-02  0.34119081081E-02  0.14199647675E-01  0.00000000000E+00 0. -1.
     999901    1    3    3    0    0  0.79834582686E-01 -0.68864079974E-01 -0.80303989409E-01  0.88992390282E+00  0.88000000000E+00 0.  1.
        -11    1    4    4    0    0 -0.66087472096E-02  0.45231257274E-01  0.26441599040E-01  0.52810618772E-01  0.51100000000E-03 0.  1.
         11    1    4    4    0    0 -0.62864605739E-01  0.32723135977E-01  0.50450482261E-01  0.86995830729E-01  0.51100000000E-03 0. -1.
</event>
<event>
 8    1  0.1993226E+004  0.1043930E+01  0.7957747E-01            NaN
         13   -1    0    0    0    0  0.00000000000E+00  0.00000000000E+00  0.74505805969E-08  0.10566000000E+00  0.10566000000E+00 0.  1.
     999900   -1    0    0    0    0 -0.00000000000E+00 -0.00000000000E+00 -0.74505805969E-08  0.93827000000E+00  0.93827000000E+00 0.  1.
     999902    2    1    2    0    0 -0.11691912897E-01 -0.51142121339E-02 -0.13828800206E-02  0.10310937875E+01  0.10310138847E+01 0.  0.
     999903    2    3    3    0    0 -0.77840268555E-01  0.49446143861E-01 -0.97679066705E-01  0.14169770426E+00  0.45088920683E-01 0.  0.
         14    1    1    2    0    0  0.11691912897E-01  0.51142121339E-02  0.13828800206E-02  0.12836212451E-01  0.00000000000E+00 0. -1.
     999901    1    3    3    0    0  0.66148355658E-01 -0.54560355995E-01  0.96296186685E-01  0.88939608329E+00  0.88000000000E+00 0. -1.
        -11    1    4    4    0    0 -0.57978337344E-01  0.23128369147E-01 -0.36804315267E-01  0.72465355887E-01  0.51100000000E-03 0. -1.
         11    1    4    4    0    0 -0.19861931210E-01  0.26317774714E-01 -0.60874751439E-01  0.69232348371E-01  0.51100000000E-03 0.  1.
</event>
<event>
 8    1  0.1993226E+004  0.1043930E+01  0.7957747E-01            NaN
         13   -1    0    0    0    0  0.00000000000E+00  0.00000000000E+00  0.74505805969E-08  0.10566000000E+00  0.10566000000E+00 0.  1.
     999900   -1    0    0    0    0 -0.00000000000E+00 -0.00000000000E+00 -0.74505805969E-08  0.93827000000E+00  0.93827000000E+00 0.  1.
     999902    2    1    2    0    0 -0.11199836557E-03  0.27819871300E-02  0.12335048830E-01  0.10312846283E+01  0.10312070981E+01 0.  0.
     999903    2    3    3    0    0  0.63009987619E-01 -0.17782001475E-01  0.11824299875E+00  0.14245182253E+00  0.44996187295E-01 0.  0.
         14    1    1    2    0    0  0.11199836557E-03 -0.27819871300E-02 -0.12335048830E-01  0.12645371709E-01  0.00000000000E+00 0. -1.
     999901    1    3    3    0    0 -0.63121985984E-01  0.20563988605E-01 -0.10590794992E+00  0.88883280576E+00  0.88000000000E+00 0.  1.
        -11    1    4    4    0    0  0.38438555221E-01 -0.26863989207E-01  0.10022021017E+00  0.11065056751E+00  0.51100000000E-03 0. -1.
         11    1    4    4    0    0  0.24571432398E-01  0.90819877322E-02  0.18022788590E-01  0.31801255019E-01  0.51100000000E-03 0.  1.
</event>
<event>
 8    1  0.1993226E+004  0.1043930E+01  0.7957747E-01            NaN
         13   -1    0    0    0    0  0.00000000000E+00  0.00000000000E+00  0.74505805969E-08  0.10566000000E+00  0.10566000000E+00 0.  1.
     999900   -1    0    0    0    0 -0.00000000000E+00 -0.00000000000E+00 -0.74505805969E-08  0.93827000000E+00  0.93827000000E+00 0.  1.
     999902    2    1    2    0    0  0.93759687434E-02 -0.86260556620E-02  0.28862328323E-02  0.10308667705E+01  0.10307839980E+01 0.  0.
     999903    2    3    3    0    0 -0.97308884444E-01 -0.74345069080E-02 -0.89846355761E-01  0.13958543963E+00  0.43444636369E-01 0.  0.
         14    1    1    2    0    0 -0.93759687434E-02  0.86260556620E-02 -0.28862328323E-02  0.13063229544E-01  0.00000000000E+00 0. -1.
     999901    1    3    3    0    0  0.10668485319E+00 -0.11915487539E-02  0.92732588593E-01  0.89128133082E+00  0.88000000000E+00 0. -1.
        -11    1    4    4    0    0 -0.41376047153E-01  0.16133698866E-01 -0.50494569966E-01  0.67247574187E-01  0.51100000000E-03 0.  1.
         11    1    4    4    0    0 -0.55932837291E-01 -0.23568205774E-01 -0.39351785795E-01  0.72337865445E-01  0.51100000000E-03 0. -1.
</event>
<event>
 8    1  0.1993226E+004  0.1043930E+01  0.7957747E-01            NaN
         13   -1    0    0    0    0  0.00000000000E+00  0.00000000000E+00  0.74505805969E-08  0.10566000000E+00  0.10566000000E+00 0.  1.
     999900   -1    0    0    0    0 -0.00000000000E+00 -0.00000000000E+00 -0.74505805969E-08  0.93827000000E+00  0.93827000000E+00 0.  1.
     999902    2    1    2    0    0  0.48009841206E-02  0.13903118944E-01  0.38739683621E-02  0.10287196813E+01  0.10286072277E+01 0.  0.
     999903    2    3    3    0    0 -0.10382502337E+00 -0.19888778656E-01  0.77501283981E-01  0.13834757735E+00  0.44253860213E-01 0.  0.
         14    1    1    2    0    0 -0.48009841206E-02 -0.13903118944E-01 -0.38739683621E-02  0.15210318726E-01  0.00000000000E+00 0. -1.
     999901    1    3    3    0    0  0.10862600749E+00  0.33791897600E-01 -0.73627315618E-01  0.89037210393E+00  0.88000000000E+00 0.  1.
        -11    1    4    4    0    0 -0.87220867014E-01 -0.27427030710E-01  0.46995705491E-01  0.10280359484E+00  0.51100000000E-03 0. -1.
         11    1    4    4    0    0 -0.16604156360E-01  0.75382520537E-02  0.30505578489E-01  0.35543982507E-01  0.51100000000E-03 0.  1.
</event>
<event>
 8    1  0.1993226E+004  0.1043930E+01  0.7957747E-01            NaN
         13   -1    0    0    0    0  0.00000000000E+00  0.00000000000E+00  0.74505805969E-08  0.10566000000E+00  0.10566000000E+00 0.  1.
     999900   -1    0    0    0    0 -0.00000000000E+00 -0.00000000000E+00 -0.74505805969E-08  0.93827000000E+00  0.93827000000E+00 0. -1.
     999902    2    1    2    0    0 -0.14699144607E-01  0.28668467205E-02 -0.19673146322E-02  0.10288252329E+01  0.10287143461E+01 0.  0.
     999903    2    3    3    0    0 -0.31518763761E-01 -0.12372047063E+00  0.30774248600E-01  0.13900544302E+00  0.45555147792E-01 0.  0.
         14    1    1    2    0    0  0.14699144607E-01 -0.28668467205E-02  0.19673146322E-02  0.15104767100E-01  0.00000000000E+00 0.  1.
     999901    1    3    3    0    0  0.16819619154E-01  0.12658731735E+00 -0.32741563232E-01  0.88981978988E+00  0.88000000000E+00 0.  1.
        -11    1    4    4    0    0 -0.29390781718E-01 -0.70783476745E-01  0.37974516514E-01  0.85536212539E-01  0.51100000000E-03 0. -1.
         11    1    4    4    0    0 -0.21279820424E-02 -0.52936993883E-01 -0.72002679142E-02  0.53469230479E-01  0.51100000000E-03 0.  1.
</event>
<event>
 7    1  0.1993226E+004  0.1043930E+01  0.7957747E-01            NaN
         13   -1    0    0    0    0  0.00000000000E+00  0.00000000000E+00  0.74505805969E-08  0.10566000000E+00  0.10566000000E+00 0.  1.
     999900   -1    0    0    0    0 -0.00000000000E+00 -0.00000000000E+00 -0.74505805969E-08  0.93827000000E+00  0.93827000000E+00 0. -1.
     999903    2    1    2    0    0 -0.17071066898E-01  0.10959038033E+00  0.36058779628E-01  0.12485184480E+00  0.44567642694E-01 0.  0.
         14    1    1    2    0    0 -0.14580490801E-01  0.13542783669E-01 -0.22227891141E-01  0.29834155696E-01  0.00000000000E+00 0. -1.
     999901    1    1    2    0    0  0.31651557699E-01 -0.12313316400E+00 -0.13830888487E-01  0.88924399951E+00  0.88000000000E+00 0. -1.
        -11    1    3    3    0    0 -0.61062208963E-02  0.15228788277E-02 -0.56725312755E-02  0.84878634313E-02  0.51100000000E-03 0. -1.
         11    1    3    3    0    0 -0.10964846002E-01  0.10806750150E+00  0.41731310903E-01  0.11636398137E+00  0.51100000000E-03 0.  1.
</event>
<event>
 8    1  0.1993226E+004  0.1043930E+01  0.7957747E-01            NaN
         13   -1    0    0    0    0  0.00000000000E+00  0.00000000000E+00  0.74505805969E-08  0.10566000000E+00  0.10566000000E+00 0. -1.
     999900   -1    0    0    0    0 -0.00000000000E+00 -0.00000000000E+00 -0.74505805969E-08  0.93827000000E+00  0.93827000000E+00 0. -1.
     999902    2    1    2    0    0  0.21504028544E-03  0.10521846252E-01  0.86130742099E-02  0.10303307155E+01  0.10302409635E+01 0.  0.
     999903    2    3    3    0    0  0.12162991090E+00 -0.52062099102E-01 -0.91592439213E-04  0.13974995431E+00  0.45008265384E-01 0.  0.
         14    1    1    2    0    0 -0.21504028544E-03 -0.10521846252E-01 -0.86130742099E-02  0.13599284474E-01  0.00000000000E+00 0.  1.
     999901    1    3    3    0    0 -0.12141487061E+00  0.62583945354E-01  0.87046666491E-02  0.89058076121E+00  0.88000000000E+00 0.  1.
        -11    1    4    4    0    0  0.41339540575E-01 -0.42890709532E-03 -0.13182406533E-01  0.43395605068E-01  0.51100000000E-03 0. -1.
         11    1    4    4    0    0  0.80290370324E-01 -0.51633192007E-01  0.13090814094E-01  0.96354349244E-01  0.51100000000E-03 0.  1.
</event>
<event>
 8    1  0.1993226E+004  0.1043930E+01  0.7957747E-01            NaN
         13   -1    0    0    0    0  0.00000000000E+00  0.00000000000E+00  0.74505805969E-08  0.10566000000E+00  0.10566000000E+00 0. -1.
     999900   -1    0    0    0    0 -0.00000000000E+00 -0.00000000000E+00 -0.74505805969E-08  0.93827000000E+00  0.93827000000E+00 0. -1.
     999902    2    1    2    0    0  0.25635571701E-02  0.10618145938E-01  0.99370457087E-02  0.10291630868E+01  0.10290571400E+01 0.  0.
     999903    2    3    3    0    0 -0.51977990084E-02  0.10931679323E+00 -0.74239434518E-01  0.13961975369E+00  0.44777266416E-01 0.  0.
         14    1    1    2    0    0 -0.25635571701E-02 -0.10618145938E-01 -0.99370457087E-02  0.14766913216E-01  0.00000000000E+00 0. -1.
     999901    1    3    3    0    0  0.77613561785E-02 -0.98698647287E-01  0.84176480226E-01  0.88954333309E+00  0.88000000000E+00 0.  1.
        -11    1    4    4    0    0 -0.16409902789E-01  0.35554612052E-01 -0.82683934665E-02  0.40025526845E-01  0.51100000000E-03 0.  1.
         11    1    4    4    0    0  0.11212103781E-01  0.73762181173E-01 -0.65971041051E-01  0.99594226846E-01  0.51100000000E-03 0. -1.
</event>
<event>
 8    1  0.1993226E+004  0.1043930E+01  0.7957747E-01            NaN
         13   -1    0    0    0    0  0.00000000000E+00  0.00000000000E+00  0.74505805969E-08  0.10566000000E+00  0.10566000000E+00 0. -1.
     999900   -1    0    0    0    0 -0.00000000000E+00 -0.00000000000E+00 -0.74505805969E-08  0.93827000000E+00  0.93827000000E+00 0. -1.
     999902    2    1    2    0    0 -0.74511750318E-02  0.11069511182E-01 -0.25569106160E-02  0.10303435406E+01  0.10302539589E+01 0.  0.
     999903    2    3    3    0    0  0.11420249267E+00  0.51244547596E-01  0.42850109043E-01  0.13990800343E+00  0.45496204112E-01 0.  0.
         14    1    1    2    0    0  0.74511750318E-02 -0.11069511182E-01  0.25569106160E-02  0.13586459402E-01  0.00000000000E+00 0.  1.
     999901    1    3    3    0    0 -0.12165366770E+00 -0.40175036414E-01 -0.45407019659E-01  0.89043553717E+00  0.88000000000E+00 0. -1.
        -11    1    4    4    0    0  0.80540468756E-01  0.36396519847E-01  0.51248057762E-01  0.10216701185E+00  0.51100000000E-03 0. -1.
         11    1    4    4    0    0  0.33662023914E-01  0.14848027750E-01 -0.83979487190E-02  0.37740991584E-01  0.51100000000E-03 0.  1.
</event>
<event>
 8    1  0.1993226E+004  0.1043930E+01  0.7957747E-01            NaN
         13   -1    0    0    0    0  0.00000000000E+00  0.00000000000E+00  0.74505805969E-08  0.10566000000E+00  0.10566000000E+00 0.  1.
     999900   -1    0    0    0    0 -0.00000000000E+00 -0.00000000000E+00 -0.74505805969E-08  0.93827000000E+00  0.93827000000E+00 0.  1.
     999902    2    1    2    0    0 -0.53589812039E-02  0.25599268284E-03  0.11975187991E-01  0.10308079064E+01  0.10307243815E+01 0.  0.
     999903    2    3    3    0    0  0.41654691390E-01  0.11622995045E+00 -0.48766953174E-01  0.13988150544E+00  0.44092007760E-01 0.  0.
         14    1    1    2    0    0  0.53589812039E-02 -0.25599268284E-03 -0.11975187991E-01  0.13122093553E-01  0.00000000000E+00 0. -1.
     999901    1    3    3    0    0 -0.47013672594E-01 -0.11597395776E+00  0.60742141165E-01  0.89092640100E+00  0.88000000000E+00 0.  1.
        -11    1    4    4    0    0 -0.58130510192E-02  0.45018839471E-01 -0.13989290079E-01  0.47502092874E-01  0.51100000000E-03 0. -1.
         11    1    4    4    0    0  0.47467742409E-01  0.71211110974E-01 -0.34777663095E-01  0.92379412571E-01  0.51100000000E-03 0.  1.
</event>
<event>
 8    1  0.2375771E+004  0.1043930E+01  0.7957747E-01            NaN
         13   -1    0    0    0    0  0.00000000000E+00  0.00000000000E+00  0.74505805969E-08  0.10566000000E+00  0.10566000000E+00 0. -1.
     999900   -1    0    0    0    0 -0.00000000000E+00 -0.00000000000E+00 -0.74505805969E-08  0.93827000000E+00  0.93827000000E+00 0. -1.
     999902    2    1    2    0    0  0.13459729611E-01  0.33706612360E-03  0.48333420897E-02  0.10296247866E+01  0.10295254062E+01 0.  0.
     999903    2    3    3    0    0  0.96921829915E-01  0.89483813802E-01 -0.21623293546E-01  0.14079802149E+00  0.44219022871E-01 0.  0.
         14    1    1    2    0    0 -0.13459729611E-01 -0.33706612360E-03 -0.48333420897E-02  0.14305213404E-01  0.00000000000E+00 0. -1.
     999901    1    3    3    0    0 -0.83462100304E-01 -0.89146747679E-01  0.26456635636E-01  0.88882676511E+00  0.88000000000E+00 0.  1.
        -11    1    4    4    0    0  0.65296737428E-01  0.30971150907E-01 -0.16188380686E-01  0.74062142134E-01  0.51100000000E-03 0.  1.
         11    1    4    4    0    0  0.31625092487E-01  0.58512662896E-01 -0.54349128597E-02  0.66735879351E-01  0.51100000000E-03 0. -1.
</event>
<event>
 8    1  0.1993226E+004  0.1043930E+01  0.7957747E-01            NaN
         13   -1    0    0    0    0  0.00000000000E+00  0.00000000000E+00  0.74505805969E-08  0.10566000000E+00  0.10566000000E+00 0.  1.
     999900   -1    0    0    0    0 -0.00000000000E+00 -0.00000000000E+00 -0.74505805969E-08  0.93827000000E+00  0.93827000000E+00 0.  1.
     999902    2    1    2    0    0 -0.55065050580E-02  0.10818643960E-01  0.10451776118E-02  0.10317457047E+01  0.10316737576E+01 0.  0.
     999903    2    3    3    0    0  0.13192273393E+00  0.16197883859E-01  0.42748996480E-02  0.14105711546E+00  0.47041002153E-01 0.  0.
         14    1    1    2    0    0  0.55065050580E-02 -0.10818643960E-01 -0.10451776118E-02  0.12184295274E-01  0.00000000000E+00 0. -1.
     999901    1    3    3    0    0 -0.13742923899E+00 -0.53792398990E-02 -0.32297220362E-02  0.89068858927E+00  0.88000000000E+00 0.  1.
        -11    1    4    4    0    0  0.46395994903E-01 -0.94056199110E-02  0.18158922132E-01  0.50705636797E-01  0.51100000000E-03 0. -1.
         11    1    4    4    0    0  0.85526739031E-01  0.25603503770E-01 -0.13884022484E-01  0.90351478659E-01  0.51100000000E-03 0.  1.
</event>
<event>
 8    1  0.2216937E+004  0.1043930E+01  0.7957747E-01            NaN
         13   -1    0    0    0    0  0.00000000000E+00  0.00000000000E+00  0.74505805969E-08  0.10566000000E+00  0.10566000000E+00 0.  1.
     999900   -1    0    0    0    0 -0.00000000000E+00 -0.00000000000E+00 -0.74505805969E-08  0.93827000000E+00  0.93827000000E+00 0. -1.
     999902    2    1    2    0    0 -0.59616909624E-02 -0.12649691042E-01 -0.12034627342E-02  0.10298941614E+01  0.10297985138E+01 0.  0.
     999903    2    3    3    0    0  0.45889457561E-01  0.12242972470E+00  0.68018263727E-03  0.13807661376E+00  0.44382528251E-01 0.  0.
         14    1    1    2    0    0  0.59616909624E-02  0.12649691042E-01  0.12034627342E-02  0.14035838598E-01  0.00000000000E+00 0. -1.
     999901    1    3    3    0    0 -0.51851148523E-01 -0.13507941574E+00 -0.18836453715E-02  0.89181754764E+00  0.88000000000E+00 0. -1.
        -11    1    4    4    0    0  0.25093528679E-01  0.51056215857E-01  0.21586965373E-01  0.60849655334E-01  0.51100000000E-03 0.  1.
         11    1    4    4    0    0  0.20795928882E-01  0.71373508843E-01 -0.20906782736E-01  0.77226958427E-01  0.51100000000E-03 0. -1.
</event>
<event>
 8    1  0.1993226E+004  0.1043930E+01  0.7957747E-01            NaN
         13   -1    0    0    0    0  0.00000000000E+00  0.00000000000E+00  0.74505805969E-08  0.10566000000E+00  0.10566000000E+00 0. -1.
     999900   -1    0    0    0    0 -0.00000000000E+00 -0.00000000000E+00 -0.74505805969E-08  0.93827000000E+00  0.93827000000E+00 0. -1.
     999902    2    1    2    0    0  0.11195977518E-01  0.34021917716E-02 -0.72259681785E-02  0.10301772026E+01  0.10300853990E+01 0.  0.
     999903    2    3    3    0    0  0.41875778591E-01  0.12001931610E+00 -0.31104265445E-01  0.14163290036E+00  0.54168127783E-01 0.  0.
         14    1    1    2    0    0 -0.11195977518E-01 -0.34021917716E-02  0.72259681785E-02  0.13752797445E-01  0.00000000000E+00 0. -1.
     999901    1    3    3    0    0 -0.30679801073E-01 -0.11661712432E+00  0.23878297266E-01  0.88854430219E+00  0.88000000000E+00 0. -1.
        -11    1    4    4    0    0  0.22061699560E-01  0.95922972699E-01 -0.44071429985E-01  0.10784473720E+00  0.51100000000E-03 0.  1.
         11    1    4    4    0    0  0.19814079032E-01  0.24096343396E-01  0.12967164540E-01  0.33788163166E-01  0.51100000000E-03 0. -1.
</event>
<event>
 7    1  0.1993226E+004  0.1043930E+01  0.7957747E-01            NaN
         13   -1    0    0    0    0  0.00000000000E+00  0.00000000000E+00  0.74505805969E-08  0.10566000000E+00  0.10566000000E+00 0.  1.
     999900   -1    0    0    0    0 -0.00000000000E+00 -0.00000000000E+00 -0.74505805969E-08  0.93827000000E+00  0.93827000000E+00 0.  1.
     999903    2    1    2    0    0 -0.56068937967E-01 -0.34945614273E-01 -0.68204596019E-01  0.10539219633E+00  0.45724461363E-01 0.  0.
         14    1    1    2    0    0 -0.16782505762E-01 -0.40807434059E-01 -0.18925671998E-01  0.48011251126E-01  0.00000000000E+00 0. -1.
     999901    1    1    2    0    0  0.72851443729E-01  0.75753048332E-01  0.87130268017E-01  0.89052655255E+00  0.88000000000E+00 0. -1.
        -11    1    3    3    0    0 -0.82963879177E-02  0.17976549085E-02  0.55413585269E-02  0.10150339451E-01  0.51100000000E-03 0. -1.
         11    1    3    3    0    0 -0.47772550049E-01 -0.36743269182E-01 -0.73745954546E-01  0.95241856876E-01  0.51100000000E-03 0.  1.
</event>
<event>
 8    1  0.1993226E+004  0.1043930E+01  0.7957747E-01            NaN
         13   -1    0    0    0    0  0.00000000000E+00  0.00000000000E+00  0.74505805969E-08  0.10566000000E+00  0.10566000000E+00 0.  1.
     999900   -1    0    0    0    0 -0.00000000000E+00 -0.00000000000E+00 -0.74505805969E-08  0.93827000000E+00  0.93827000000E+00 0. -1.
     999902    2    1    2    0    0  0.98861944954E-02  0.69508508383E-02 -0.56816987486E-02  0.10305758669E+01  0.10304893423E+01 0.  0.
     999903    2    3    3    0    0 -0.10945215902E+00 -0.49792411299E-01 -0.53352175721E-01  0.13943395075E+00  0.46220262128E-01 0.  0.
         14    1    1    2    0    0 -0.98861944954E-02 -0.69508508383E-02  0.56816987486E-02  0.13354133055E-01  0.00000000000E+00 0.  1.
     999901    1    3    3    0    0  0.11933835352E+00  0.56743262138E-01  0.47670476973E-01  0.89114191619E+00  0.88000000000E+00 0. -1.
        -11    1    4    4    0    0 -0.98741662710E-02 -0.17598038170E-02 -0.22518447827E-01  0.24656392326E-01  0.51100000000E-03 0.  1.
         11    1    4    4    0    0 -0.99577992751E-01 -0.48032607482E-01 -0.30833727895E-01  0.11477755843E+00  0.51100000000E-03 0. -1.
</event>
<event>
 8    1  0.1993226E+004  0.1043930E+01  0.7957747E-01            NaN
         13   -1    0    0    0    0  0.00000000000E+00  0.00000000000E+00  0.74505805969E-08  0.10566000000E+00  0.10566000000E+00 0.  1.
     999900   -1    0    0    0    0 -0.00000000000E+00 -0.00000000000E+00 -0.74505805969E-08  0.93827000000E+00  0.93827000000E+00 0.  1.
     999902    2    1    2    0    0  0.11989007810E-01 -0.42213444994E-03  0.79415460030E-02  0.10295431081E+01  0.10294425816E+01 0.  0.
     999903    2    3    3    0    0  0.91961383578E-01  0.76967598631E-01 -0.54872779959E-01  0.14031288413E+00  0.47914258454E-01 0.  0.
         14    1    1    2    0    0 -0.11989007810E-01  0.42213444994E-03 -0.79415460030E-02  0.14386891904E-01  0.00000000000E+00 0.  1.
     999901    1    3    3    0    0 -0.79972375768E-01 -0.77389733081E-01  0.62814325962E-01  0.88923022397E+00  0.88000000000E+00 0. -1.
        -11    1    4    4    0    0  0.42227622311E-01  0.61465310132E-01 -0.18681724847E-01  0.76879284596E-01  0.51100000000E-03 0.  1.
         11    1    4    4    0    0  0.49733761267E-01  0.15502288499E-01 -0.36191055111E-01  0.63433599532E-01  0.51100000000E-03 0. -1.
</event>
<event>
 8    1  0.1993226E+004  0.1043930E+01  0.7957747E-01            NaN
         13   -1    0    0    0    0  0.00000000000E+00  0.00000000000E+00  0.74505805969E-08  0.10566000000E+00  0.10566000000E+00 0.  1.
     999900   -1    0    0    0    0 -0.00000000000E+00 -0.00000000000E+00 -0.74505805969E-08  0.93827000000E+00  0.93827000000E+00 0.  1.
     999902    2    1    2    0    0  0.31798118682E-02 -0.13066292086E-01  0.23195866082E-02  0.10302837670E+01  0.10301933901E+01 0.  0.
     999903    2    3    3    0    0  0.59015370077E-01 -0.87533938146E-01 -0.83193484914E-01  0.14125310092E+00  0.43431306163E-01 0.  0.
         14    1    1    2    0    0 -0.31798118682E-02  0.13066292086E-01 -0.23195866082E-02  0.13646232976E-01  0.00000000000E+00 0. -1.
     999901    1    3    3    0    0 -0.55835558209E-01  0.74467646059E-01  0.85513071522E-01  0.88903066610E+00  0.88000000000E+00 0. -1.
        -11    1    4    4    0    0  0.22669040909E-01 -0.35407755821E-01 -0.79959406462E-02  0.42799424948E-01  0.51100000000E-03 0. -1.
         11    1    4    4    0    0  0.36346329168E-01 -0.52126182325E-01 -0.75197544268E-01  0.98453675973E-01  0.51100000000E-03 0.  1.
</event>
<event>
 8    1  0.1993226E+004  0.1043930E+01  0.7957747E-01            NaN
         13   -1    0    0    0    0  0.00000000000E+00  0.00000000000E+00  0.74505805969E-08  0.10566000000E+00  0.10566000000E+00 0. -1.
     999900   -1    0    0    0    0 -0.00000000000E+00 -0.00000000000E+00 -0.74505805969E-08  0.93827000000E+00  0.93827000000E+00 0.  1.
     999902    2    1    2    0    0 -0.99558856305E-02  0.77558426069E-02  0.31742837608E-02  0.10309165904E+01  0.10308344520E+01 0.  0.
     999903    2    3    3    0    0  0.10149806189E+00  0.82151807489E-01  0.24430030983E-01  0.14051861821E+00  0.45802615735E-01 0.  0.
         14    1    1    2    0    0  0.99558856305E-02 -0.77558426069E-02 -0.31742837608E-02  0.13013409646E-01  0.00000000000E+00 0. -1.
     999901    1    3    3    0    0 -0.11145394752E+00 -0.74395964882E-01 -0.21255747222E-01  0.89039797214E+00  0.88000000000E+00 0.  1.
        -11    1    4    4    0    0  0.78847545947E-01  0.35422492060E-01  0.14617129664E-01  0.87667611159E-01  0.51100000000E-03 0. -1.
         11    1    4    4    0    0  0.22650515945E-01  0.46729315428E-01  0.98129013189E-02  0.52851007050E-01  0.51100000000E-03 0.  1.
</event>
<event>
 8    1  0.1993226E+004  0.1043930E+01  0.7957747E-01            NaN
         13   -1    0    0    0    0  0.00000000000E+00  0.00000000000E+00  0.74505805969E-08  0.10566000000E+00  0.10566000000E+00 0. -1.
     999900   -1    0    0    0    0 -0.00000000000E+00 -0.00000000000E+00 -0.74505805969E-08  0.93827000000E+00  0.93827000000E+00 0.  1.
     999902    2    1    2    0    0  0.18962034223E-02  0.10783508831E-01 -0.79385678289E-02  0.10304059285E+01  0.10303171730E+01 0.  0.
     999903    2    3    3    0    0  0.89626565777E-01  0.26226367379E-02 -0.99242653381E-01  0.14130545481E+00  0.45588680544E-01 0.  0.
         14    1    1    2    0    0 -0.18962034223E-02 -0.10783508831E-01  0.79385678289E-02  0.13524071476E-01  0.00000000000E+00 0. -1.
     999901    1    3    3    0    0 -0.87730362355E-01  0.81608720928E-02  0.91304085552E-01  0.88910047371E+00  0.88000000000E+00 0. -1.
        -11    1    4    4    0    0  0.26770794188E-01  0.22029410654E-01 -0.37710565485E-01  0.51228099959E-01  0.51100000000E-03 0.  1.
         11    1    4    4    0    0  0.62855771589E-01 -0.19406773916E-01 -0.61532087896E-01  0.90077354855E-01  0.51100000000E-03 0. -1.
</event>
<event>
 8    1  0.1993226E+004  0.1043930E+01  0.7957747E-01            NaN
         13   -1    0    0    0    0  0.00000000000E+00  0.00000000000E+00  0.74505805969E-08  0.10566000000E+00  0.10566000000E+00 0.  1.
     999900   -1    0    0    0    0 -0.00000000000E+00 -0.00000000000E+00 -0.74505805969E-08  0.93827000000E+00  0.93827000000E+00 0.  1.
     999902    2    1    2    0    0 -0.81687357140E-02  0.10661869340E-01  0.27914179562E-02  0.10302115557E+01  0.10301202132E+01 0.  0.
     999903    2    3    3    0    0  0.11605070422E+00  0.11238467799E-01  0.61666499482E-01  0.13953929441E+00  0.45545454436E-01 0.  0.
         14    1    1    2    0    0  0.81687357140E-02 -0.10661869340E-01 -0.27914179562E-02  0.13718444343E-01  0.00000000000E+00 0. -1.
     999901    1    3    3    0    0 -0.12421943993E+00 -0.57659845824E-03 -0.58875081526E-01  0.89067226124E+00  0.88000000000E+00 0. -1.
        -11    1    4    4    0    0  0.72461733061E-01 -0.10515653198E-01  0.52161947216E-01  0.89902233447E-01  0.51100000000E-03 0. -1.
         11    1    4    4    0    0  0.43588971155E-01  0.21754120996E-01  0.95045522657E-02  0.49637060967E-01  0.51100000000E-03 0.  1.
</event>
<event>
 8    1  0.1993226E+004  0.1043930E+01  0.7957747E-01            NaN
         13   -1    0    0    0    0  0.00000000000E+00  0.00000000000E+00  0.74505805969E-08  0.10566000000E+00  0.10566000000E+00 0.  1.
     999900   -1    0    0    0    0 -0.00000000000E+00 -0.00000000000E+00 -0.74505805969E-08  0.93827000000E+00  0.93827000000E+00 0. -1.
     999902    2    1    2    0    0 -0.36656999909E-02 -0.87224911735E-03 -0.12530828714E-01  0.10308449000E+01  0.10307618483E+01 0.  0.
     999903    2    3    3    0    0 -0.74181881357E-01 -0.37456321870E-01  0.10241879810E+00  0.13982057766E+00  0.46413965182E-01 0.  0.
         14    1    1    2    0    0  0.36656999909E-02  0.87224911735E-03  0.12530828714E-01  0.13085100046E-01  0.00000000000E+00 0.  1.
     999901    1    3    3    0    0  0.70516181366E-01  0.36584072753E-01 -0.11494962681E+00  0.89102432229E+00  0.88000000000E+00 0. -1.
        -11    1    4    4    0    0 -0.40623677408E-01 -0.44888237586E-01  0.70275157198E-01  0.92758265831E-01  0.51100000000E-03 0.  1.
         11    1    4    4    0    0 -0.33558203949E-01  0.74319157158E-02  0.32143640901E-01  0.47062311830E-01  0.51100000000E-03 0. -1.
</event>
<event>
 8    1  0.1993226E+004  0.1043930E+01  0.7957747E-01            NaN
         13   -1    0    0    0    0  0.00000000000E+00  0.00000000000E+00  0.74505805969E-08  0.10566000000E+00  0.10566000000E+00 0. -1.
     999900   -1    0    0    0    0 -0.00000000000E+00 -0.00000000000E+00 -0.74505805969E-08  0.93827000000E+00  0.93827000000E+00 0. -1.
     999902    2    1    2    0    0  0.80001292654E-04  0.61292872477E-02 -0.11727803952E-01  0.10306968618E+01  0.10306119080E+01 0.  0.
     999903    2    3    3    0    0 -0.69017752129E-01 -0.19975044679E-01 -0.11367481798E+00  0.14173728486E+00  0.44777685946E-01 0.  0.
         14    1    1    2    0    0 -0.80001292654E-04 -0.61292872477E-02  0.11727803952E-01  0.13233138248E-01  0.00000000000E+00 0. -1.
     999901    1    3    3    0    0  0.69097753422E-01  0.26104331927E-01  0.10194701403E+00  0.88895957689E+00  0.88000000000E+00 0.  1.
        -11    1    4    4    0    0 -0.53278255203E-01  0.27361898827E-02 -0.53678317887E-01  0.75681451788E-01  0.51100000000E-03 0.  1.
         11    1    4    4    0    0 -0.15739496926E-01 -0.22711234562E-01 -0.59996500093E-01  0.66055833075E-01  0.51100000000E-03 0. -1.
</event>
<event>
 8    1  0.1993226E+004  0.1043930E+01  0.7957747E-01            NaN
         13   -1    0    0    0    0  0.00000000000E+00  0.00000000000E+00  0.74505805969E-08  0.10566000000E+00  0.10566000000E+00 0.  1.
     999900   -1    0    0    0    0 -0.00000000000E+00 -0.00000000000E+00 -0.74505805969E-08  0.93827000000E+00  0.93827000000E+00 0.  1.
     999902    2    1    2    0    0  0.50673995199E-02  0.12804247484E-01 -0.36132560741E-02  0.10296933251E+01  0.10295949014E+01 0.  0.
     999903    2    3    3    0    0  0.53751518443E-01  0.33140896527E-01 -0.11779122674E+00  0.14074994578E+00  0.44138751467E-01 0.  0.
         14    1    1    2    0    0 -0.50673995199E-02 -0.12804247484E-01  0.36132560741E-02  0.14236674857E-01  0.00000000000E+00 0.  1.
     999901    1    3    3    0    0 -0.48684118923E-01 -0.20336649043E-01  0.11417797067E+00  0.88894337936E+00  0.88000000000E+00 0. -1.
        -11    1    4    4    0    0  0.52365266861E-01  0.21522788068E-01 -0.62923524966E-01  0.84646220794E-01  0.51100000000E-03 0. -1.
         11    1    4    4    0    0  0.13862515823E-02  0.11618108459E-01 -0.54867701779E-01  0.56103724984E-01  0.51100000000E-03 0.  1.
</event>
<event>
 8    1  0.1993226E+004  0.1043930E+01  0.7957747E-01            NaN
         13   -1    0    0    0    0  0.00000000000E+00  0.00000000000E+00  0.74505805969E-08  0.10566000000E+00  0.10566000000E+00 0. -1.
     999900   -1    0    0    0    0 -0.00000000000E+00 -0.00000000000E+00 -0.74505805969E-08  0.93827000000E+00  0.93827000000E+00 0. -1.
     999902    2    1    2    0    0 -0.10337297097E-01  0.14214171961E-03  0.48243227198E-02  0.10325214942E+01  0.10324584650E+01 0.  0.
     999903    2    3    3    0    0  0.28075554587E-01  0.16881436487E-02 -0.13081280573E+00  0.14130021530E+00  0.45416672120E-01 0.  0.
         14    1    1    2    0    0  0.10337297097E-01 -0.14214171961E-03 -0.48243227198E-02  0.11408505829E-01  0.00000000000E+00 0.  1.
     999901    1    3    3    0    0 -0.38412851685E-01 -0.15460019291E-02  0.13563712845E+00  0.89122127887E+00  0.88000000000E+00 0.  1.
        -11    1    4    4    0    0  0.26975962247E-01  0.20839548641E-01 -0.78712378082E-01  0.85778137722E-01  0.51100000000E-03 0.  1.
         11    1    4    4    0    0  0.10995923407E-02 -0.19151404992E-01 -0.52100427649E-01  0.55522077579E-01  0.51100000000E-03 0. -1.
</event>
<event>
 8    1  0.1993226E+004  0.1043930E+01  0.7957747E-01            NaN
         13   -1    0    0    0    0  0.00000000000E+00  0.00000000000E+00  0.74505805969E-08  0.10566000000E+00  0.10566000000E+00 0.  1.
     999900   -1    0    0    0    0 -0.00000000000E+00 -0.00000000000E+00 -0.74505805969E-08  0.93827000000E+00  0.93827000000E+00 0. -1.
     999902    2    1    2    0    0  0.56010861848E-02 -0.11836171518E-01 -0.45338852137E-02  0.10300727550E+01  0.10299795422E+01 0.  0.
     999903    2    3    3    0    0 -0.49470724992E-01  0.53209527617E-01 -0.11043375787E+00  0.13963542969E+00  0.44987019090E-01 0.  0.
         14    1    1    2    0    0 -0.56010861848E-02  0.11836171518E-01  0.45338852137E-02  0.13857244957E-01  0.00000000000E+00 0. -1.
     999901    1    3    3    0    0  0.55071811177E-01 -0.65045699135E-01  0.10589987265E+00  0.89043732536E+00  0.88000000000E+00 0.  1.
        -11    1    4    4    0    0 -0.22770889068E-01  0.31361435121E-01 -0.93469344076E-01  0.10118711580E+00  0.51100000000E-03 0.  1.
         11    1    4    4    0    0 -0.26699835924E-01  0.21848092496E-01 -0.16964413790E-01  0.38448313882E-01  0.51100000000E-03 0. -1.
</event>
<event>
 8    1  0.1993226E+004  0.1043930E+01  0.7957747E-01            NaN
         13   -1    0    0    0    0  0.00000000000E+00  0.00000000000E+00  0.74505805969E-08  0.10566000000E+00  0.10566000000E+00 0.  1.
     999900   -1    0    0    0    0 -0.00000000000E+00 -0.00000000000E+00 -0.74505805969E-08  0.93827000000E+00  0.93827000000E+00 0. -1.
     999902    2    1    2    0    0 -0.13149474272E-01 -0.30311392721E-02  0.19474815309E-02  0.10302958824E+01  0.10302056669E+01 0.  0.
     999903    2    3    3    0    0 -0.11072177646E+00  0.63052338803E-01  0.44375308970E-01  0.14142721898E+00  0.42397889243E-01 0.  0.
         14    1    1    2    0    0  0.13149474272E-01  0.30311392721E-02 -0.19474815309E-02  0.13634117618E-01  0.00000000000E+00 0.  1.
     999901    1    3    3    0    0  0.97572302188E-01 -0.66083478075E-01 -0.42427827439E-01  0.88886866340E+00  0.88000000000E+00 0. -1.
        -11    1    4    4    0    0 -0.26887072059E-01 -0.30855797888E-02  0.13625721426E-01  0.30304403177E-01  0.51100000000E-03 0. -1.
         11    1    4    4    0    0 -0.83834704402E-01  0.66137918592E-01  0.30749587544E-01  0.11112281581E+00  0.51100000000E-03 0.  1.
</event>
<event>
 8    1  0.1993226E+004  0.1043930E+01  0.7957747E-01            NaN
         13   -1    0    0    0    0  0.00000000000E+00  0.00000000000E+00  0.74505805969E-08  0.10566000000E+00  0.10566000000E+00 0. -1.
     999900   -1    0    0    0    0 -0.00000000000E+00 -0.00000000000E+00 -0.74505805969E-08  0.93827000000E+00  0.93827000000E+00 0. -1.
     999902    2    1    2    0    0 -0.25397719991E-02 -0.13675464964E-01  0.27732527492E-02  0.10297469215E+01  0.10296492426E+01 0.  0.
     999903    2    3    3    0    0 -0.11070125098E+00 -0.67380971305E-01  0.33293398198E-01  0.14097548510E+00  0.44392282815E-01 0.  0.
         14    1    1    2    0    0  0.25397719991E-02  0.13675464964E-01 -0.27732527492E-02  0.14183078460E-01  0.00000000000E+00 0.  1.
     999901    1    3    3    0    0  0.10816147898E+00  0.53705506341E-01 -0.30520145449E-01  0.88877143644E+00  0.88000000000E+00 0. -1.
        -11    1    4    4    0    0 -0.85155854775E-01 -0.52758458503E-01  0.52438535430E-02  0.10031317793E+00  0.51100000000E-03 0. -1.
         11    1    4    4    0    0 -0.25545396207E-01 -0.14622512802E-01  0.28049544655E-01  0.40662307170E-01  0.51100000000E-03 0.  1.
</event>
<event>
 8    1  0.1993226E+004  0.1043930E+01  0.7957747E-01            NaN
         13   -1    0    0    0    0  0.00000000000E+00  0.00000000000E+00  0.74505805969E-08  0.10566000000E+00  0.10566000000E+00 0. -1.
     999900   -1    0    0    0    0 -0.00000000000E+00 -0.00000000000E+00 -0.74505805969E-08  0.93827000000E+00  0.93827000000E+00 0. -1.
     999902    2    1    2    0    0  0.10095087874E-01  0.12494488340E-01  0.81909674679E-02  0.10258990548E+01  0.10257405888E+01 0.  0.
     999903    2    3    3    0    0 -0.88413442859E-02 -0.33967527579E-01  0.12418148284E+00  0.13687087352E+00  0.45613956646E-01 0.  0.
         14    1    1    2    0    0 -0.10095087874E-01 -0.12494488340E-01 -0.81909674679E-02  0.18030945237E-01  0.00000000000E+00 0.  1.
     999901    1    3    3    0    0  0.18936432159E-01  0.46462015919E-01 -0.11599051537E+00  0.88902818124E+00  0.88000000000E+00 0. -1.
        -11    1    4    4    0    0 -0.20061426588E-02 -0.42690598339E-01  0.73806272580E-01  0.85288561883E-01  0.51100000000E-03 0. -1.
         11    1    4    4    0    0 -0.68352016271E-02  0.87230707602E-02  0.50375210255E-01  0.51582311639E-01  0.51100000000E-03 0.  1.
</event>
<event>
 8    1  0.1993226E+004  0.1043930E+01  0.7957747E-01            NaN
         13   -1    0    0    0    0  0.00000000000E+00  0.00000000000E+00  0.74505805969E-08  0.10566000000E+00  0.10566000000E+00 0. -1.
     999900   -1    0    0    0    0 -0.00000000000E+00 -0.00000000000E+00 -0.74505805969E-08  0.93827000000E+00  0.93827000000E+00 0. -1.
     999902    2    1    2    0    0 -0.44347654037E-02  0.10052627240E-01  0.92767067902E-02  0.10295501618E+01  0.10294497345E+01 0.  0.
     999903    2    3    3    0    0  0.66897478620E-01  0.10762160611E+00 -0.39168958427E-01  0.13996881240E+00  0.44714409231E-01 0.  0.
         14    1    1    2    0    0  0.44347654037E-02 -0.10052627240E-01 -0.92767067902E-02  0.14379838229E-01  0.00000000000E+00 0.  1.
     999901    1    3    3    0    0 -0.71332244024E-01 -0.97568978867E-01  0.48445665218E-01  0.88958134937E+00  0.88000000000E+00 0. -1.
        -11    1    4    4    0    0  0.45581342212E-01  0.41805686014E-01 -0.34028605514E-01  0.70594484595E-01  0.51100000000E-03 0. -1.
         11    1    4    4    0    0  0.21316136408E-01  0.65815920093E-01 -0.51403529137E-02  0.69374327803E-01  0.51100000000E-03 0.  1.
</event>
<event>
 8    1  0.1993226E+004  0.1043930E+01  0.7957747E-01            NaN
         13   -1    0    0    0    0  0.00000000000E+00  0.00000000000E+00  0.74505805969E-08  0.10566000000E+00  0.10566000000E+00 0.  1.
     999900   -1    0    0    0    0 -0.00000000000E+00 -0.00000000000E+00 -0.74505805969E-08  0.93827000000E+00  0.93827000000E+00 0. -1.
     999902    2    1    2    0    0 -0.10833942877E-01  0.84583509475E-02  0.34938349495E-02  0.10297481489E+01  0.10296504869E+01 0.  0.
     999903    2    3    3    0    0 -0.38701902826E-01  0.60091983699E-01 -0.11220911817E+00  0.14023714354E+00  0.44347338607E-01 0.  0.
         14    1    1    2    0    0  0.10833942877E-01 -0.84583509475E-02 -0.34938349495E-02  0.14181851137E-01  0.00000000000E+00 0.  1.
     999901    1    3    3    0    0  0.27867959949E-01 -0.51633632752E-01  0.11570295312E+00  0.88951100532E+00  0.88000000000E+00 0.  1.
        -11    1    4    4    0    0 -0.88346451616E-02  0.23348903954E-01 -0.77781582926E-01  0.81691235971E-01  0.51100000000E-03 0.  1.
         11    1    4    4    0    0 -0.29867257664E-01  0.36743079745E-01 -0.34427535245E-01  0.58545907573E-01  0.51100000000E-03 0. -1.
</event>
<event>
 8    1  0.1993226E+004  0.1043930E+01  0.7957747E-01            NaN
         13   -1    0    0    0    0  0.00000000000E+00  0.00000000000E+00  0.74505805969E-08  0.10566000000E+00  0.10566000000E+00 0. -1.
     999900   -1    0    0    0    0 -0.00000000000E+00 -0.00000000000E+00 -0.74505805969E-08  0.93827000000E+00  0.93827000000E+00 0.  1.
     999902    2    1    2    0    0 -0.67778353477E-02 -0.11640191960E-01 -0.45898603858E-02  0.10296997527E+01  0.10296014184E+01 0.  0.
     999903    2    3    3    0    0 -0.10310759574E+00 -0.80281167448E-01  0.28593413093E-01  0.14116605275E+00  0.45100210968E-01 0.  0.
         14    1    1    2    0    0  0.67778353477E-02  0.11640191960E-01  0.45898603858E-02  0.14230247336E-01  0.00000000000E+00 0.  1.
     999901    1    3    3    0    0  0.96329760392E-01  0.68640975488E-01 -0.33183273479E-01  0.88853369992E+00  0.88000000000E+00 0.  1.
        -11    1    4    4    0    0 -0.82137747999E-01 -0.51017955637E-01  0.38097077222E-01  0.10392829190E+00  0.51100000000E-03 0.  1.
         11    1    4    4    0    0 -0.20969847741E-01 -0.29263211811E-01 -0.95036641293E-02  0.37237760844E-01  0.51100000000E-03 0. -1.
</event>
<event>
 8    1  0.1993226E+004  0.1043930E+01  0.7957747E-01            NaN
         13   -1    0    0    0    0  0.00000000000E+00  0.00000000000E+00  0.74505805969E-08  0.10566000000E+00  0.10566000000E+00 0.  1.
     999900   -1    0    0    0    0 -0.00000000000E+00 -0.00000000000E+00 -0.74505805969E-08  0.93827000000E+00  0.93827000000E+00 0.  1.
     999902    2    1    2    0    0  0.12250667880E-01  0.68541993256E-02 -0.26103475094E-02  0.10296515958E+01  0.10295525902E+01 0.  0.
     999903    2    3    3    0    0 -0.31413870006E-01  0.11934180576E+00  0.48635404750E-01  0.13994030523E+00  0.44593593731E-01 0.  0.
         14    1    1    2    0    0 -0.12250667880E-01 -0.68541993256E-02  0.26103475094E-02  0.14278404183E-01  0.00000000000E+00 0.  1.
     999901    1    3    3    0    0  0.43664537886E-01 -0.11248760644E+00 -0.51245752260E-01  0.88971129059E+00  0.88000000000E+00 0.  1.
        -11    1    4    4    0    0 -0.16391861177E-01  0.80462146542E-01  0.53449380167E-01  0.97979321799E-01  0.51100000000E-03 0. -1.
         11    1    4    4    0    0 -0.15022008829E-01  0.38879659220E-01 -0.48139754168E-02  0.41960983432E-01  0.51100000000E-03 0.  1.
</event>
<event>
 8    1  0.1993226E+004  0.1043930E+01  0.7957747E-01            NaN
         13   -1    0    0    0    0  0.00000000000E+00  0.00000000000E+00  0.74505805969E-08  0.10566000000E+00  0.10566000000E+00 0. -1.
     999900   -1    0    0    0    0 -0.00000000000E+00 -0.00000000000E+00 -0.74505805969E-08  0.93827000000E+00  0.93827000000E+00 0. -1.
     999902    2    1    2    0    0 -0.11762986825E-01  0.73773889005E-02  0.23959027564E-03  0.10300429150E+01  0.10299492976E+01 0.  0.
     999903    2    3    3    0    0  0.88043092765E-01  0.16289165362E-01 -0.96460034373E-01  0.13909314612E+00  0.45004910549E-01 0.  0.
         14    1    1    2    0    0  0.11762986825E-01 -0.73773889005E-02 -0.23959027564E-03  0.13887084990E-01  0.00000000000E+00 0. -1.
     999901    1    3    3    0    0 -0.99806079590E-01 -0.89117764614E-02  0.96699624649E-01  0.89094976889E+00  0.88000000000E+00 0.  1.
        -11    1    4    4    0    0  0.49394284620E-01  0.14186667836E-01 -0.23524319592E-01  0.56521780145E-01  0.51100000000E-03 0.  1.
         11    1    4    4    0    0  0.38648808145E-01  0.21024975259E-02 -0.72935714781E-01  0.82571365972E-01  0.51100000000E-03 0. -1.
</event>
<event>
 8    1  0.1993226E+004  0.1043930E+01  0.7957747E-01            NaN
         13   -1    0    0    0    0  0.00000000000E+00  0.00000000000E+00  0.74505805969E-08  0.10566000000E+00  0.10566000000E+00 0. -1.
     999900   -1    0    0    0    0 -0.00000000000E+00 -0.00000000000E+00 -0.74505805969E-08  0.93827000000E+00  0.93827000000E+00 0. -1.
     999902    2    1    2    0    0  0.12132868055E-01 -0.37776046786E-03  0.58065861750E-02  0.10304739369E+01  0.10303860777E+01 0.  0.
     999903    2    3    3    0    0  0.66793510916E-01  0.97463028442E-01 -0.62867304235E-01  0.14071177260E+00  0.43440649093E-01 0.  0.
         14    1    1    2    0    0 -0.12132868055E-01  0.37776046786E-03 -0.58065861750E-02  0.13456063066E-01  0.00000000000E+00 0.  1.
     999901    1    3    3    0    0 -0.54660642860E-01 -0.97840788910E-01  0.68673890410E-01  0.88976216433E+00  0.88000000000E+00 0. -1.
        -11    1    4    4    0    0 -0.24504676998E-02  0.19067547370E-01 -0.11561663534E-02  0.19265876473E-01  0.51100000000E-03 0. -1.
         11    1    4    4    0    0  0.69243978615E-01  0.78395481072E-01 -0.61711137882E-01  0.12144589613E+00  0.51100000000E-03 0.  1.
</event>
<event>
 8    1  0.1993226E+004  0.1043930E+01  0.7957747E-01            NaN
         13   -1    0    0    0    0  0.00000000000E+00  0.00000000000E+00  0.74505805969E-08  0.10566000000E+00  0.10566000000E+00 0. -1.
     999900   -1    0    0    0    0 -0.00000000000E+00 -0.00000000000E+00 -0.74505805969E-08  0.93827000000E+00  0.93827000000E+00 0.  1.
     999902    2    1    2    0    0 -0.14256322639E-01 -0.11479434286E-02 -0.50185545875E-02  0.10287726124E+01  0.10286609459E+01 0.  0.
     999903    2    3    3    0    0  0.82845545129E-01  0.92236051239E-01 -0.40454889275E-01  0.13781521890E+00  0.44559656618E-01 0.  0.
         14    1    1    2    0    0  0.14256322639E-01  0.11479434286E-02  0.50185545875E-02  0.15157387620E-01  0.00000000000E+00 0. -1.
     999901    1    3    3    0    0 -0.97101867768E-01 -0.93383994667E-01  0.35436334688E-01  0.89095739348E+00  0.88000000000E+00 0. -1.
        -11    1    4    4    0    0  0.36482683121E-01  0.51369416263E-01  0.16516159923E-02  0.63030088460E-01  0.51100000000E-03 0. -1.
         11    1    4    4    0    0  0.46362862008E-01  0.40866634976E-01 -0.42106505267E-01  0.74785130438E-01  0.51100000000E-03 0.  1.
</event>
<event>
 8    1  0.1993226E+004  0.1043930E+01  0.7957747E-01            NaN
         13   -1    0    0    0    0  0.00000000000E+00  0.00000000000E+00  0.74505805969E-08  0.10566000000E+00  0.10566000000E+00 0.  1.
     999900   -1    0    0    0    0 -0.00000000000E+00 -0.00000000000E+00 -0.74505805969E-08  0.93827000000E+00  0.93827000000E+00 0.  1.
     999902    2    1    2    0    0 -0.11199278555E-01 -0.13280967998E-02 -0.74836964230E-02  0.10303951046E+01  0.10303062060E+01 0.  0.
     999903    2    3    3    0    0 -0.38109489835E-01  0.96820389140E-01  0.82387587023E-01  0.13998276622E+00  0.44507745094E-01 0.  0.
         14    1    1    2    0    0  0.11199278555E-01  0.13280967998E-02  0.74836964230E-02  0.13534895397E-01  0.00000000000E+00 0.  1.
     999901    1    3    3    0    0  0.26910211281E-01 -0.98148485940E-01 -0.89871283446E-01  0.89041233839E+00  0.88000000000E+00 0.  1.
        -11    1    4    4    0    0  0.33910593288E-02  0.22656481864E-01  0.20030471296E-02  0.23001929759E-01  0.51100000000E-03 0.  1.
         11    1    4    4    0    0 -0.41500549164E-01  0.74163907276E-01  0.80384539893E-01  0.11698083646E+00  0.51100000000E-03 0. -1.
</event>
<event>
 8    1  0.1993226E+004  0.1043930E+01  0.7957747E-01            NaN
         13   -1    0    0    0    0  0.00000000000E+00  0.00000000000E+00  0.74505805969E-08  0.10566000000E+00  0.10566000000E+00 0. -1.
     999900   -1    0    0    0    0 -0.00000000000E+00 -0.00000000000E+00 -0.74505805969E-08  0.93827000000E+00  0.93827000000E+00 0.  1.
     999902    2    1    2    0    0 -0.49698612880E-02  0.12709097478E-01  0.20151822430E-02  0.10301357389E+01  0.10300433772E+01 0.  0.
     999903    2    3    3    0    0 -0.45742322631E-01  0.12483672905E+00  0.88556415856E-02  0.14205815712E+00  0.49249656002E-01 0.  0.
         14    1    1    2    0    0  0.49698612880E-02 -0.12709097478E-01 -0.20151822430E-02  0.13794261104E-01  0.00000000000E+00 0. -1.
     999901    1    3    3    0    0  0.40772461343E-01 -0.11212763158E+00 -0.68404593427E-02  0.88807758177E+00  0.88000000000E+00 0. -1.
        -11    1    4    4    0    0 -0.12587177376E-01  0.95241067867E-01  0.14844535052E-01  0.97210695834E-01  0.51100000000E-03 0. -1.
         11    1    4    4    0    0 -0.33155145254E-01  0.29595661187E-01 -0.59888934667E-02  0.44847461287E-01  0.51100000000E-03 0.  1.
</event>
<event>
 8    1  0.1993226E+004  0.1043930E+01  0.7957747E-01            NaN
         13   -1    0    0    0    0  0.00000000000E+00  0.00000000000E+00  0.74505805969E-08  0.10566000000E+00  0.10566000000E+00 0.  1.
     999900   -1    0    0    0    0 -0.00000000000E+00 -0.00000000000E+00 -0.74505805969E-08  0.93827000000E+00  0.93827000000E+00 0. -1.
     999902    2    1    2    0    0  0.10202426168E-01  0.51273934968E-02 -0.65642838899E-02  0.10307592184E+01  0.10306750685E+01 0.  0.
     999903    2    3    3    0    0  0.23467696407E-01  0.10858113892E+00 -0.73492561219E-01  0.14207590075E+00  0.49434891691E-01 0.  0.
         14    1    1    2    0    0 -0.10202426168E-01 -0.51273934968E-02  0.65642838899E-02  0.13170781555E-01  0.00000000000E+00 0. -1.
     999901    1    3    3    0    0 -0.13265270239E-01 -0.10345374542E+00  0.66928277329E-01  0.88868331769E+00  0.88000000000E+00 0.  1.
        -11    1    4    4    0    0  0.34097971149E-01  0.44729526846E-01 -0.41296947672E-01  0.69778945366E-01  0.51100000000E-03 0. -1.
         11    1    4    4    0    0 -0.10630274742E-01  0.63851612075E-01 -0.32195613546E-01  0.72296955388E-01  0.51100000000E-03 0.  1.
</event>
<event>
 8    1  0.1993226E+004  0.1043930E+01  0.7957747E-01            NaN
         13   -1    0    0    0    0  0.00000000000E+00  0.00000000000E+00  0.74505805969E-08  0.10566000000E+00  0.10566000000E+00 0. -1.
     999900   -1    0    0    0    0 -0.00000000000E+00 -0.00000000000E+00 -0.74505805969E-08  0.93827000000E+00  0.93827000000E+00 0.  1.
     999902    2    1    2    0    0  0.21079457341E-02 -0.82050306010E-02  0.85257219842E-02  0.10319111025E+01  0.10318411067E+01 0.  0.
     999903    2    3    3    0    0 -0.17695192697E-01  0.13194186748E+00 -0.85940174498E-04  0.14055961285E+00  0.45113425256E-01 0.  0.
         14    1    1    2    0    0 -0.21079457341E-02  0.82050306010E-02 -0.85257219842E-02  0.12018897526E-01  0.00000000000E+00 0.  1.
     999901    1    3    3    0    0  0.19803138431E-01 -0.14014689809E+00  0.86116621587E-02  0.89135148963E+00  0.88000000000E+00 0.  1.
        -11    1    4    4    0    0 -0.10247204012E-01  0.78651134517E-01 -0.22224655454E-01  0.82372341122E-01  0.51100000000E-03 0.  1.
         11    1    4    4    0    0 -0.74479886849E-02  0.53290732967E-01  0.22138715279E-01  0.58187271725E-01  0.51100000000E-03 0. -1.
</event>
<event>
 8    1  0.1993226E+004  0.1043930E+01  0.7957747E-01            NaN
         13   -1    0    0    0    0  0.00000000000E+00  0.00000000000E+00  0.74505805969E-08  0.10566000000E+00  0.10566000000E+00 0. -1.
     999900   -1    0    0    0    0 -0.00000000000E+00 -0.00000000000E+00 -0.74505805969E-08  0.93827000000E+00  0.93827000000E+00 0.  1.
     999902    2    1    2    0    0 -0.95471863122E-02 -0.26478099302E-02 -0.49462048973E-02  0.10328564005E+01  0.10327970369E+01 0.  0.
     999903    2    3    3    0    0 -0.48437031022E-01  0.11864073899E+00 -0.48198642617E-01  0.14263502041E+00  0.39998362171E-01 0.  0.
         14    1    1    2    0    0  0.95471863122E-02  0.26478099302E-02  0.49462048973E-02  0.11073599541E-01  0.00000000000E+00 0. -1.
     999901    1    3    3    0    0  0.38889844710E-01 -0.12128854892E+00  0.43252437720E-01  0.89022138004E+00  0.88000000000E+00 0. -1.
        -11    1    4    4    0    0 -0.55069476950E-01  0.10527310527E+00 -0.38760429868E-01  0.12497082071E+00  0.51100000000E-03 0. -1.
         11    1    4    4    0    0  0.66324459283E-02  0.13367633721E-01 -0.94382127494E-02  0.17664199704E-01  0.51100000000E-03 0.  1.
</event>
<event>
 8    1  0.1993226E+004  0.1043930E+01  0.7957747E-01            NaN
         13   -1    0    0    0    0  0.00000000000E+00  0.00000000000E+00  0.74505805969E-08  0.10566000000E+00  0.10566000000E+00 0.  1.
     999900   -1    0    0    0    0 -0.00000000000E+00 -0.00000000000E+00 -0.74505805969E-08  0.93827000000E+00  0.93827000000E+00 0. -1.
     999902    2    1    2    0    0 -0.27562216333E-02  0.70623556945E-02 -0.10871129781E-01  0.10306765066E+01  0.10305912895E+01 0.  0.
     999903    2    3    3    0    0 -0.59602395921E-01  0.85068272163E-01  0.83092361427E-01  0.14042623376E+00  0.45012554613E-01 0.  0.
         14    1    1    2    0    0  0.27562216333E-02 -0.70623556945E-02  0.10871129781E-01  0.13253493440E-01  0.00000000000E+00 0.  1.
     999901    1    3    3    0    0  0.56846174288E-01 -0.78005916469E-01 -0.93963491209E-01  0.89025027280E+00  0.88000000000E+00 0. -1.
        -11    1    4    4    0    0 -0.45962386987E-01  0.60619868713E-01  0.32760752763E-01  0.82830172902E-01  0.51100000000E-03 0.  1.
         11    1    4    4    0    0 -0.13640008935E-01  0.24448403450E-01  0.50331608664E-01  0.57596060861E-01  0.51100000000E-03 0. -1.
</event>
<event>
 8    1  0.1993226E+004  0.1043930E+01  0.7957747E-01            NaN
         13   -1    0    0    0    0  0.00000000000E+00  0.00000000000E+00  0.74505805969E-08  0.10566000000E+00  0.10566000000E+00 0.  1.
     999900   -1    0    0    0    0 -0.00000000000E+00 -0.00000000000E+00 -0.74505805969E-08  0.93827000000E+00  0.93827000000E+00 0. -1.
     999902    2    1    2    0    0  0.12766679832E-01 -0.61662164186E-02  0.14589103666E-02  0.10296773245E+01  0.10295786778E+01 0.  0.
     999903    2    3    3    0    0  0.97380566309E-01  0.47026956425E-01  0.76890206262E-01  0.14081349703E+00  0.47136268431E-01 0.  0.
         14    1    1    2    0    0 -0.12766679832E-01  0.61662164186E-02 -0.14589103666E-02  0.14252675479E-01  0.00000000000E+00 0. -1.
     999901    1    3    3    0    0 -0.84613886478E-01 -0.53193172843E-01 -0.75431295895E-01  0.88886382749E+00  0.88000000000E+00 0. -1.
        -11    1    4    4    0    0  0.58683820567E-01  0.23998905699E-01  0.16562167857E-01  0.65530945333E-01  0.51100000000E-03 0.  1.
         11    1    4    4    0    0  0.38696745742E-01  0.23028050725E-01  0.60328038405E-01  0.75282551697E-01  0.51100000000E-03 0. -1.
</event>
<event>
 8    1  0.1993226E+004  0.1043930E+01  0.7957747E-01            NaN
         13   -1    0    0    0    0  0.00000000000E+00  0.00000000000E+00  0.74505805969E-08  0.10566000000E+00  0.10566000000E+00 0. -1.
     999900   -1    0    0    0    0 -0.00000000000E+00 -0.00000000000E+00 -0.74505805969E-08  0.93827000000E+00  0.93827000000E+00 0. -1.
     999902    2    1    2    0    0 -0.90284169678E-02  0.56263037994E-02  0.78021414044E-02  0.10307375394E+01  0.10306531104E+01 0.  0.
     999903    2    3    3    0    0 -0.11372826961E+00 -0.24705903499E-01 -0.65114886525E-01  0.14101904741E+00  0.45846726273E-01 0.  0.
         14    1    1    2    0    0  0.90284169678E-02 -0.56263037994E-02 -0.78021414044E-02  0.13192460645E-01  0.00000000000E+00 0.  1.
     999901    1    3    3    0    0  0.10469985264E+00  0.30332207299E-01  0.72917027929E-01  0.88971849194E+00  0.88000000000E+00 0.  1.
        -11    1    4    4    0    0 -0.83711558018E-01 -0.12908309561E-01 -0.68018675434E-01  0.10863264118E+00  0.51100000000E-03 0. -1.
         11    1    4    4    0    0 -0.30016711590E-01 -0.11797593938E-01  0.29037889089E-02  0.32386406229E-01  0.51100000000E-03 0.  1.
</event>
<event>
 7    1  0.1993226E+004  0.1043930E+01  0.7957747E-01            NaN
         13   -1    0    0    0    0  0.00000000000E+00  0.00000000000E+00  0.74505805969E-08  0.10566000000E+00  0.10566000000E+00 0. -1.
     999900   -1    0    0    0    0 -0.00000000000E+00 -0.00000000000E+00 -0.74505805969E-08  0.93827000000E+00  0.93827000000E+00 0.  1.
     999903    2    1    2    0    0  0.92294090923E-01  0.27278690158E-01  0.19716178100E-01  0.10908282722E+00  0.47413177066E-01 0.  0.
         14    1    1    2    0    0 -0.21576725984E-01  0.35629580404E-01  0.25111112006E-01  0.48637331857E-01  0.00000000000E+00 0. -1.
     999901    1    1    2    0    0 -0.70717364940E-01 -0.62908270562E-01 -0.44827290107E-01  0.88620984092E+00  0.88000000000E+00 0.  1.
        -11    1    3    3    0    0  0.20931769850E-03  0.85667271874E-02  0.12060073927E-01  0.14803348700E-01  0.51100000000E-03 0.  1.
         11    1    3    3    0    0  0.92084773225E-01  0.18711962971E-01  0.76561041732E-02  0.94279478521E-01  0.51100000000E-03 0. -1.
</event>
<event>
 8    1  0.1993226E+004  0.1043930E+01  0.7957747E-01            NaN
         13   -1    0    0    0    0  0.00000000000E+00  0.00000000000E+00  0.74505805969E-08  0.10566000000E+00  0.10566000000E+00 0.  1.
     999900   -1    0    0    0    0 -0.00000000000E+00 -0.00000000000E+00 -0.74505805969E-08  0.93827000000E+00  0.93827000000E+00 0.  1.
     999902    2    1    2    0    0 -0.84668535102E-02  0.42182198338E-02  0.95915213454E-02  0.10304586130E+01  0.10303705522E+01 0.  0.
     999903    2    3    3    0    0 -0.39043908701E-01 -0.73069775244E-01  0.10534327720E+00  0.14137099679E+00  0.44999264665E-01 0.  0.
         14    1    1    2    0    0  0.84668535102E-02 -0.42182198338E-02 -0.95915213454E-02  0.13471387035E-01  0.00000000000E+00 0. -1.
     999901    1    3    3    0    0  0.30577055191E-01  0.77287995078E-01 -0.95751755857E-01  0.88908761618E+00  0.88000000000E+00 0.  1.
        -11    1    4    4    0    0  0.51665363686E-02 -0.31781246355E-01  0.24829503400E-01  0.40663325959E-01  0.51100000000E-03 0. -1.
         11    1    4    4    0    0 -0.44210445070E-01 -0.41288528889E-01  0.80513773803E-01  0.10070767083E+00  0.51100000000E-03 0.  1.
</event>
<event>
 8    1  0.1993226E+004  0.1043930E+01  0.7957747E-01            NaN
         13   -1    0    0    0    0  0.00000000000E+00  0.00000000000E+00  0.74505805969E-08  0.10566000000E+00  0.10566000000E+00 0. -1.
     999900   -1    0    0    0    0 -0.00000000000E+00 -0.00000000000E+00 -0.74505805969E-08  0.93827000000E+00  0.93827000000E+00 0.  1.
     999902    2    1    2    0    0 -0.36319869871E-02 -0.58572554827E-02  0.12723414371E-01  0.10294598913E+01  0.10293581903E+01 0.  0.
     999903    2    3    3    0    0 -0.13773794190E-01  0.72428563539E-01 -0.10670251609E+00  0.13789156610E+00  0.46829935273E-01 0.  0.
         14    1    1    2    0    0  0.36319869871E-02  0.58572554827E-02 -0.12723414371E-01  0.14470108656E-01  0.00000000000E+00 0.  1.
     999901    1    3    3    0    0  0.10141807203E-01 -0.78285819022E-01  0.11942593046E+00  0.89156832525E+00  0.88000000000E+00 0.  1.
        -11    1    4    4    0    0 -0.25935287579E-01  0.27391754784E-01 -0.65798794572E-01  0.75846488780E-01  0.51100000000E-03 0. -1.
         11    1    4    4    0    0  0.12161493389E-01  0.45036808754E-01 -0.40903721521E-01  0.62045077319E-01  0.51100000000E-03 0.  1.
</event>
<event>
 8    1  0.1993226E+004  0.1043930E+01  0.7957747E-01            NaN
         13   -1    0    0    0    0  0.00000000000E+00  0.00000000000E+00  0.74505805969E-08  0.10566000000E+00  0.10566000000E+00 0. -1.
     999900   -1    0    0    0    0 -0.00000000000E+00 -0.00000000000E+00 -0.74505805969E-08  0.93827000000E+00  0.93827000000E+00 0. -1.
     999902    2    1    2    0    0  0.27760761224E-03  0.70178239160E-02  0.13150753896E-01  0.10290213030E+01  0.10289132970E+01 0.  0.
     999903    2    3    3    0    0  0.27497758077E-02 -0.11989713143E+00  0.54449563313E-01  0.13895439024E+00  0.44279614168E-01 0.  0.
         14    1    1    2    0    0 -0.27760761224E-03 -0.70178239160E-02 -0.13150753896E-01  0.14908697010E-01  0.00000000000E+00 0.  1.
     999901    1    3    3    0    0 -0.24721681955E-02  0.12691495535E+00 -0.41298809417E-01  0.89006691275E+00  0.88000000000E+00 0. -1.
        -11    1    4    4    0    0  0.16755277065E-01 -0.94043724994E-01  0.53596064661E-01  0.10953429047E+00  0.51100000000E-03 0. -1.
         11    1    4    4    0    0 -0.14005501257E-01 -0.25853406436E-01  0.85349865178E-03  0.29420099775E-01  0.51100000000E-03 0.  1.
</event>
<event>
 8    1  0.1993226E+004  0.1043930E+01  0.7957747E-01            NaN
         13   -1    0    0    0    0  0.00000000000E+00  0.00000000000E+00  0.74505805969E-08  0.10566000000E+00  0.10566000000E+00 0.  1.
     999900   -1    0    0    0    0 -0.00000000000E+00 -0.00000000000E+00 -0.74505805969E-08  0.93827000000E+00  0.93827000000E+00 0.  1.
     999902    2    1    2    0    0  0.12338029092E-01 -0.44423797764E-02 -0.19835255442E-02  0.10306674183E+01  0.10305820836E+01 0.  0.
     999903    2    3    3    0    0 -0.91372944699E-01  0.92822955094E-01 -0.21564287463E-01  0.13903973944E+00  0.43610946282E-01 0.  0.
         14    1    1    2    0    0 -0.12338029092E-01  0.44423797764E-02  0.19835255442E-02  0.13262581707E-01  0.00000000000E+00 0.  1.
     999901    1    3    3    0    0  0.10371097379E+00 -0.97265334870E-01  0.19580761919E-01  0.89162767885E+00  0.88000000000E+00 0. -1.
        -11    1    4    4    0    0 -0.21711548977E-01  0.17898128990E-01  0.13070063494E-01  0.31029374165E-01  0.51100000000E-03 0.  1.
         11    1    4    4    0    0 -0.69661395722E-01  0.74924826103E-01 -0.34634350957E-01  0.10801036528E+00  0.51100000000E-03 0. -1.
</event>
<event>
 8    1  0.1993226E+004  0.1043930E+01  0.7957747E-01            NaN
         13   -1    0    0    0    0  0.00000000000E+00  0.00000000000E+00  0.74505805969E-08  0.10566000000E+00  0.10566000000E+00 0. -1.
     999900   -1    0    0    0    0 -0.00000000000E+00 -0.00000000000E+00 -0.74505805969E-08  0.93827000000E+00  0.93827000000E+00 0.  1.
     999902    2    1    2    0    0 -0.71664690142E-02  0.28545091687E-02  0.11263806069E-01  0.10302779002E+01  0.10301874450E+01 0.  0.
     999903    2    3    3    0    0  0.74286625513E-01 -0.79768676027E-01 -0.72970145333E-01  0.13867453780E+00  0.44993787567E-01 0.  0.
         14    1    1    2    0    0  0.71664690142E-02 -0.28545091687E-02 -0.11263806069E-01  0.13652099761E-01  0.00000000000E+00 0.  1.
     999901    1    3    3    0    0 -0.81453094527E-01  0.82623185196E-01  0.84233951401E-01  0.89160336244E+00  0.88000000000E+00 0. -1.
        -11    1    4    4    0    0  0.34917263664E-01 -0.27593885006E-01 -0.55258763896E-01  0.70953716603E-01  0.51100000000E-03 0. -1.
         11    1    4    4    0    0  0.39369361849E-01 -0.52174791021E-01 -0.17711381437E-01  0.67720821199E-01  0.51100000000E-03 0.  1.
</event>
<event>
 8    1  0.1993226E+004  0.1043930E+01  0.7957747E-01            NaN
         13   -1    0    0    0    0  0.00000000000E+00  0.00000000000E+00  0.74505805969E-08  0.10566000000E+00  0.10566000000E+00 0. -1.
     999900   -1    0    0    0    0 -0.00000000000E+00 -0.00000000000E+00 -0.74505805969E-08  0.93827000000E+00  0.93827000000E+00 0.  1.
     999902    2    1    2    0    0 -0.35937062720E-02  0.95328993723E-02 -0.93745314999E-02  0.10300854077E+01  0.10299923662E+01 0.  0.
     999903    2    3    3    0    0  0.44272924241E-01 -0.35981641553E-02  0.12303475422E+00  0.13879653304E+00  0.46410001424E-01 0.  0.
         14    1    1    2    0    0  0.35937062720E-02 -0.95328993723E-02  0.93745314999E-02  0.13844592304E-01  0.00000000000E+00 0. -1.
     999901    1    3    3    0    0 -0.47866630513E-01  0.13131063528E-01 -0.13240928572E+00  0.89128887466E+00  0.88000000000E+00 0.  1.
        -11    1    4    4    0    0  0.18485582066E-01 -0.36585948368E-02  0.10650816634E+00  0.10816354598E+00  0.51100000000E-03 0.  1.
         11    1    4    4    0    0  0.25787342174E-01  0.60430681433E-04  0.16526587874E-01  0.30632987057E-01  0.51100000000E-03 0. -1.
</event>
<event>
 8    1  0.1993226E+004  0.1043930E+01  0.7957747E-01            NaN
         13   -1    0    0    0    0  0.00000000000E+00  0.00000000000E+00  0.74505805969E-08  0.10566000000E+00  0.10566000000E+00 0.  1.
     999900   -1    0    0    0    0 -0.00000000000E+00 -0.00000000000E+00 -0.74505805969E-08  0.93827000000E+00  0.93827000000E+00 0.  1.
     999902    2    1    2    0    0  0.63884362543E-02  0.13036581607E-01  0.10813116248E-02  0.10293720533E+01  0.10292691049E+01 0.  0.
     999903    2    3    3    0    0 -0.64827985048E-01  0.62338052599E-01 -0.96597027995E-01  0.13974096585E+00  0.45911341415E-01 0.  0.
         14    1    1    2    0    0 -0.63884362543E-02 -0.13036581607E-01 -0.10813116248E-02  0.14557946717E-01  0.00000000000E+00 0.  1.
     999901    1    3    3    0    0  0.71216421303E-01 -0.49301470992E-01  0.97678339620E-01  0.88963108744E+00  0.88000000000E+00 0.  1.
        -11    1    4    4    0    0 -0.12022134725E-01  0.48752545464E-02 -0.43378749592E-01  0.45279983077E-01  0.51100000000E-03 0.  1.
         11    1    4    4    0    0 -0.52805850323E-01  0.57462798053E-01 -0.53218278403E-01  0.94460982769E-01  0.51100000000E-03 0. -1.
</event>
<event>
 8    1  0.1993226E+004  0.1043930E+01  0.7957747E-01            NaN
         13   -1    0    0    0    0  0.00000000000E+00  0.00000000000E+00  0.74505805969E-08  0.10566000000E+00  0.10566000000E+00 0.  1.
     999900   -1    0    0    0    0 -0.00000000000E+00 -0.00000000000E+00 -0.74505805969E-08  0.93827000000E+00  0.93827000000E+00 0.  1.
     999902    2    1    2    0    0 -0.39379204941E-02 -0.90986566728E-02 -0.74944355634E-02  0.10315018330E+01  0.10314269592E+01 0.  0.
     999903    2    3    3    0    0 -0.94596380769E-01 -0.92330534983E-01  0.12534033772E-01  0.14271184565E+00  0.52308373541E-01 0.  0.
         14    1    1    2    0    0  0.39379204941E-02  0.90986566728E-02  0.74944355634E-02  0.12428167020E-01  0.00000000000E+00 0.  1.
     999901    1    3    3    0    0  0.90658460275E-01  0.83231878310E-01 -0.20028469336E-01  0.88878998733E+00  0.88000000000E+00 0.  1.
        -11    1    4    4    0    0 -0.33835170688E-01 -0.44633617256E-02  0.11031205543E-01  0.35870447308E-01  0.51100000000E-03 0. -1.
         11    1    4    4    0    0 -0.60761210081E-01 -0.87867173258E-01  0.15028282296E-02  0.10684139835E+00  0.51100000000E-03 0.  1.
</event>
<event>
 8    1  0.1993226E+004  0.1043930E+01  0.7957747E-01            NaN
         13   -1    0    0    0    0  0.00000000000E+00  0.00000000000E+00  0.74505805969E-08  0.10566000000E+00  0.10566000000E+00 0.  1.
     999900   -1    0    0    0    0 -0.00000000000E+00 -0.00000000000E+00 -0.74505805969E-08  0.93827000000E+00  0.93827000000E+00 0.  1.
     999902    2    1    2    0    0 -0.39265153664E-04  0.12107370866E-01 -0.10576377280E-01  0.10278536283E+01  0.10277278976E+01 0.  0.
     999903    2    3    3    0    0 -0.59052819081E-01  0.10366442671E+00 -0.57162614367E-01  0.13991468247E+00  0.45552223668E-01 0.  0.
         14    1    1    2    0    0  0.39265153664E-04 -0.12107370866E-01  0.10576377280E-01  0.16076371711E-01  0.00000000000E+00 0. -1.
     999901    1    3    3    0    0  0.59013553927E-01 -0.91557055848E-01  0.46586237088E-01  0.88793894582E+00  0.88000000000E+00 0.  1.
        -11    1    4    4    0    0 -0.23522707691E-01  0.79686115721E-01 -0.48415504040E-01  0.96164010774E-01  0.51100000000E-03 0. -1.
         11    1    4    4    0    0 -0.35530111389E-01  0.23978310993E-01 -0.87471103274E-02  0.43750671692E-01  0.51100000000E-03 0.  1.
</event>
<event>
 8    1  0.1993226E+004  0.1043930E+01  0.7957747E-01            NaN
         13   -1    0    0    0    0  0.00000000000E+00  0.00000000000E+00  0.74505805969E-08  0.10566000000E+00  0.10566000000E+00 0. -1.
     999900   -1    0    0    0    0 -0.00000000000E+00 -0.00000000000E+00 -0.74505805969E-08  0.93827000000E+00  0.93827000000E+00 0.  1.
     999902    2    1    2    0    0  0.78480049245E-02  0.10259883899E-01  0.55252653470E-02  0.10298806244E+01  0.10297847908E+01 0.  0.
     999903    2    3    3    0    0  0.37420163514E-01  0.24252960518E-01 -0.12423336939E+00  0.13976399040E+00  0.45951803112E-01 0.  0.
         14    1    1    2    0    0 -0.78480049245E-02 -0.10259883899E-01 -0.55252653470E-02  0.14049375647E-01  0.00000000000E+00 0.  1.
     999901    1    3    3    0    0 -0.29572158589E-01 -0.13993076619E-01  0.12975863474E+00  0.89011663396E+00  0.88000000000E+00 0. -1.
        -11    1    4    4    0    0  0.76925256956E-03 -0.10962386955E-01 -0.39028596710E-01  0.40549453257E-01  0.51100000000E-03 0.  1.
         11    1    4    4    0    0  0.36650910944E-01  0.35215347473E-01 -0.85204772683E-01  0.99214537139E-01  0.51100000000E-03 0. -1.
</event>
<event>
 8    1  0.1993226E+004  0.1043930E+01  0.7957747E-01            NaN
         13   -1    0    0    0    0  0.00000000000E+00  0.00000000000E+00  0.74505805969E-08  0.10566000000E+00  0.10566000000E+00 0. -1.
     999900   -1    0    0    0    0 -0.00000000000E+00 -0.00000000000E+00 -0.74505805969E-08  0.93827000000E+00  0.93827000000E+00 0. -1.
     999902    2    1    2    0    0  0.91300673679E-02 -0.83824715566E-02  0.86922031823E-02  0.10287913622E+01  0.10286799738E+01 0.  0.
     999903    2    3    3    0    0 -0.12693863097E+00 -0.27689514164E-01 -0.11520717769E-01  0.13789517587E+00  0.44746255308E-01 0.  0.
         14    1    1    2    0    0 -0.91300673679E-02  0.83824715566E-02 -0.86922031823E-02  0.15138637842E-01  0.00000000000E+00 0.  1.
     999901    1    3    3    0    0  0.13606869834E+00  0.19307042608E-01  0.20212920951E-01  0.89089618628E+00  0.88000000000E+00 0.  1.
        -11    1    4    4    0    0 -0.54427506252E-01 -0.50025444526E-02  0.16212182970E-01  0.57012936124E-01  0.51100000000E-03 0.  1.
         11    1    4    4    0    0 -0.72511124719E-01 -0.22686969711E-01 -0.27732900738E-01  0.80882239750E-01  0.51100000000E-03 0. -1.
</event>
<event>
 8    1  0.1993226E+004  0.1043930E+01  0.7957747E-01            NaN
         13   -1    0    0    0    0  0.00000000000E+00  0.00000000000E+00  0.74505805969E-08  0.10566000000E+00  0.10566000000E+00 0. -1.
     999900   -1    0    0    0    0 -0.00000000000E+00 -0.00000000000E+00 -0.74505805969E-08  0.93827000000E+00  0.93827000000E+00 0. -1.
     999902    2    1    2    0    0 -0.63828592638E-02  0.69338330886E-02 -0.97619391043E-02  0.10303611243E+01  0.10302717758E+01 0.  0.
     999903    2    3    3    0    0 -0.22182312473E-01 -0.14911477848E-01 -0.13177645277E+00  0.14153359213E+00  0.44185031823E-01 0.  0.
         14    1    1    2    0    0  0.63828592638E-02 -0.69338330886E-02  0.97619391043E-02  0.13568875737E-01  0.00000000000E+00 0. -1.
     999901    1    3    3    0    0  0.15799453209E-01  0.21845310937E-01  0.12201451367E+00  0.88882753213E+00  0.88000000000E+00 0.  1.
        -11    1    4    4    0    0 -0.31326162587E-01 -0.69379819473E-03 -0.58871189902E-01  0.66692487882E-01  0.51100000000E-03 0.  1.
         11    1    4    4    0    0  0.91438501142E-02 -0.14217679654E-01 -0.72905262872E-01  0.74841104248E-01  0.51100000000E-03 0. -1.
</event>
<event>
 8    1  0.1993226E+004  0.1043930E+01  0.7957747E-01            NaN
         13   -1    0    0    0    0  0.00000000000E+00  0.00000000000E+00  0.74505805969E-08  0.10566000000E+00  0.10566000000E+00 0.  1.
     999900   -1    0    0    0    0 -0.00000000000E+00 -0.00000000000E+00 -0.74505805969E-08  0.93827000000E+00  0.93827000000E+00 0. -1.
     999902    2    1    2    0    0 -0.74458883916E-02  0.10435564858E-01  0.53021948481E-02  0.10300571655E+01  0.10299637414E+01 0.  0.
     999903    2    3    3    0    0  0.62627097109E-01 -0.23900035981E-01 -0.11299790934E+00  0.13871880579E+00  0.44508589642E-01 0.  0.
         14    1    1    2    0    0  0.74458883916E-02 -0.10435564858E-01 -0.53021948481E-02  0.13872834536E-01  0.00000000000E+00 0. -1.
     999901    1    3    3    0    0 -0.70072985501E-01  0.34335600839E-01  0.11830010419E+00  0.89133835968E+00  0.88000000000E+00 0.  1.
        -11    1    4    4    0    0  0.22646609782E-01 -0.57606254596E-02 -0.76594660252E-02  0.24596387562E-01  0.51100000000E-03 0. -1.
         11    1    4    4    0    0  0.39980487327E-01 -0.18139410522E-01 -0.10533844331E+00  0.11412241823E+00  0.51100000000E-03 0.  1.
</event>
<event>
 8    1  0.1993226E+004  0.1043930E+01  0.7957747E-01            NaN
         13   -1    0    0    0    0  0.00000000000E+00  0.00000000000E+00  0.74505805969E-08  0.10566000000E+00  0.10566000000E+00 0.  1.
     999900   -1    0    0    0    0 -0.00000000000E+00 -0.00000000000E+00 -0.74505805969E-08  0.93827000000E+00  0.93827000000E+00 0.  1.
     999902    2    1    2    0    0 -0.33742471730E-02 -0.23996344917E-01  0.82864395337E-02  0.10183199396E+01  0.10179978508E+01 0.  0.
     999903    2    3    3    0    0 -0.11462909194E+00  0.41107239804E-01  0.13229205820E-02  0.12890181081E+00  0.42240890479E-01 0.  0.
         14    1    1    2    0    0  0.33742471730E-02  0.23996344917E-01 -0.82864395337E-02  0.25610060396E-01  0.00000000000E+00 0. -1.
     999901    1    3    3    0    0  0.11125484477E+00 -0.65103584721E-01  0.69635189517E-02  0.88941812879E+00  0.88000000000E+00 0.  1.
        -11    1    4    4    0    0 -0.39307849750E-01  0.66041615105E-02 -0.18142483924E-01  0.43796493526E-01  0.51100000000E-03 0.  1.
         11    1    4    4    0    0 -0.75321242190E-01  0.34503078294E-01  0.19465404506E-01  0.85105317287E-01  0.51100000000E-03 0. -1.
</event>
<event>
 8    1  0.1993226E+004  0.1043930E+01  0.7957747E-01            NaN
         13   -1    0    0    0    0  0.00000000000E+00  0.00000000000E+00  0.74505805969E-08  0.10566000000E+00  0.10566000000E+00 0. -1.
     999900   -1    0    0    0    0 -0.00000000000E+00 -0.00000000000E+00 -0.74505805969E-08  0.93827000000E+00  0.93827000000E+00 0. -1.
     999902    2    1    2    0    0 -0.23363590081E-02  0.50113794357E-02 -0.12222093250E-01  0.10305153788E+01  0.10304280635E+01 0.  0.
     999903    2    3    3    0    0  0.36105866967E-01 -0.28481698247E-01 -0.12629235343E+00  0.14168940305E+00  0.44847381626E-01 0.  0.
         14    1    1    2    0    0  0.23363590081E-02 -0.50113794357E-02  0.12222093250E-01  0.13414621153E-01  0.00000000000E+00 0. -1.
     999901    1    3    3    0    0 -0.38442225975E-01  0.33493077683E-01  0.11407026018E+00  0.88882597579E+00  0.88000000000E+00 0. -1.
        -11    1    4    4    0    0 -0.83885993982E-02 -0.90829847149E-02 -0.48002954615E-01  0.49572310658E-01  0.51100000000E-03 0.  1.
         11    1    4    4    0    0  0.44494466365E-01 -0.19398713532E-01 -0.78289398813E-01  0.92117092395E-01  0.51100000000E-03 0. -1.
</event>
<event>
 8    1  0.1993226E+004  0.1043930E+01  0.7957747E-01            NaN
         13   -1    0    0    0    0  0.00000000000E+00  0.00000000000E+00  0.74505805969E-08  0.10566000000E+00  0.10566000000E+00 0. -1.
     999900   -1    0    0    0    0 -0.00000000000E+00 -0.00000000000E+00 -0.74505805969E-08  0.93827000000E+00  0.93827000000E+00 0. -1.
     999902    2    1    2    0    0 -0.47332711396E-02 -0.13398071868E-01  0.17856972013E-02  0.10296086558E+01  0.10295090496E+01 0.  0.
     999903    2    3    3    0    0  0.12660827726E-02 -0.80783742499E-01 -0.10556461682E+00  0.14050747439E+00  0.45506549149E-01 0.  0.
         14    1    1    2    0    0  0.47332711396E-02  0.13398071868E-01 -0.17856972013E-02  0.14321344209E-01  0.00000000000E+00 0. -1.
     999901    1    3    3    0    0 -0.59993539122E-02  0.67385670630E-01  0.10735031403E+00  0.88910118140E+00  0.88000000000E+00 0.  1.
        -11    1    4    4    0    0 -0.13321327251E-01 -0.76218567187E-01 -0.86242385510E-01  0.11586517131E+00  0.51100000000E-03 0. -1.
         11    1    4    4    0    0  0.14587410023E-01 -0.45651753114E-02 -0.19322231315E-01  0.24642303074E-01  0.51100000000E-03 0.  1.
</event>
<event>
 8    1  0.1993226E+004  0.1043930E+01  0.7957747E-01            NaN
         13   -1    0    0    0    0  0.00000000000E+00  0.00000000000E+00  0.74505805969E-08  0.10566000000E+00  0.10566000000E+00 0.  1.
     999900   -1    0    0    0    0 -0.00000000000E+00 -0.00000000000E+00 -0.74505805969E-08  0.93827000000E+00  0.93827000000E+00 0. -1.
     999902    2    1    2    0    0  0.10859425583E-01 -0.53068788139E-02 -0.57930381704E-02  0.10305266654E+01  0.10304394979E+01 0.  0.
     999903    2    3    3    0    0  0.11361125384E+00 -0.54440030636E-01 -0.48436749714E-01  0.14216272482E+00  0.44641770471E-01 0.  0.
         14    1    1    2    0    0 -0.10859425583E-01  0.53068788139E-02  0.57930381704E-02  0.13403334585E-01  0.00000000000E+00 0.  1.
     999901    1    3    3    0    0 -0.10275182825E+00  0.49133151822E-01  0.42643711544E-01  0.88836394060E+00  0.88000000000E+00 0.  1.
        -11    1    4    4    0    0  0.62629926762E-01 -0.11424067040E-01 -0.39339411954E-01  0.74838943658E-01  0.51100000000E-03 0. -1.
         11    1    4    4    0    0  0.50981327076E-01 -0.43015963596E-01 -0.90973377603E-02  0.67323781161E-01  0.51100000000E-03 0.  1.
</event>
<event>
 8    1  0.1993226E+004  0.1043930E+01  0.7957747E-01            NaN
         13   -1    0    0    0    0  0.00000000000E+00  0.00000000000E+00  0.74505805969E-08  0.10566000000E+00  0.10566000000E+00 0. -1.
     999900   -1    0    0    0    0 -0.00000000000E+00 -0.00000000000E+00 -0.74505805969E-08  0.93827000000E+00  0.93827000000E+00 0. -1.
     999902    2    1    2    0    0 -0.11517147900E-01 -0.26262472570E-03  0.74538386793E-02  0.10302087253E+01  0.10301173450E+01 0.  0.
     999903    2    3    3    0    0 -0.16511153089E-01 -0.11787996954E+00 -0.58418642724E-01  0.13992901440E+00  0.44711137954E-01 0.  0.
         14    1    1    2    0    0  0.11517147900E-01  0.26262472570E-03 -0.74538386793E-02  0.13721274669E-01  0.00000000000E+00 0.  1.
     999901    1    3    3    0    0  0.49940051895E-02  0.11761734482E+00  0.65872481404E-01  0.89027971093E+00  0.88000000000E+00 0.  1.
        -11    1    4    4    0    0 -0.30630302465E-01 -0.64386893292E-01 -0.26590639139E-01  0.76100004387E-01  0.51100000000E-03 0. -1.
         11    1    4    4    0    0  0.14119149376E-01 -0.53493076252E-01 -0.31828003586E-01  0.63829010013E-01  0.51100000000E-03 0.  1.
</event>
<event>
 8    1  0.1993226E+004  0.1043930E+01  0.7957747E-01            NaN
         13   -1    0    0    0    0  0.00000000000E+00  0.00000000000E+00  0.74505805969E-08  0.10566000000E+00  0.10566000000E+00 0. -1.
     999900   -1    0    0    0    0 -0.00000000000E+00 -0.00000000000E+00 -0.74505805969E-08  0.93827000000E+00  0.93827000000E+00 0.  1.
     999902    2    1    2    0    0  0.85060283518E-02  0.51738931862E-02 -0.61470175650E-02  0.10322292516E+01  0.10321629330E+01 0.  0.
     999903    2    3    3    0    0 -0.33371586835E-01 -0.11652486158E+00 -0.56763599453E-01  0.14142828618E+00  0.45696255152E-01 0.  0.
         14    1    1    2    0    0 -0.85060283518E-02 -0.51738931862E-02  0.61470175650E-02  0.11700748436E-01  0.00000000000E+00 0. -1.
     999901    1    3    3    0    0  0.41877615187E-01  0.12169875477E+00  0.50616581888E-01  0.89080096538E+00  0.88000000000E+00 0. -1.
        -11    1    4    4    0    0 -0.18034813863E-01 -0.46099672366E-01  0.28590414162E-03  0.49505324618E-01  0.51100000000E-03 0. -1.
         11    1    4    4    0    0 -0.15336772972E-01 -0.70425189215E-01 -0.57049503595E-01  0.91922961563E-01  0.51100000000E-03 0.  1.
</event>
<event>
 8    1  0.1993226E+004  0.1043930E+01  0.7957747E-01            NaN
         13   -1    0    0    0    0  0.00000000000E+00  0.00000000000E+00  0.74505805969E-08  0.10566000000E+00  0.10566000000E+00 0.  1.
     999900   -1    0    0    0    0 -0.00000000000E+00 -0.00000000000E+00 -0.74505805969E-08  0.93827000000E+00  0.93827000000E+00 0.  1.
     999902    2    1    2    0    0 -0.80521641728E-02  0.17612883569E-02  0.91266086080E-02  0.10316322576E+01  0.10315589563E+01 0.  0.
     999903    2    3    3    0    0  0.97375364046E-01 -0.44111530564E-01  0.79487820368E-01  0.14136826337E+00  0.47316843193E-01 0.  0.
         14    1    1    2    0    0  0.80521641728E-02 -0.17612883569E-02 -0.91266086080E-02  0.12297742444E-01  0.00000000000E+00 0. -1.
     999901    1    3    3    0    0 -0.10542752822E+00  0.45872818921E-01 -0.70361211760E-01  0.89026399419E+00  0.88000000000E+00 0. -1.
        -11    1    4    4    0    0  0.31404513461E-01 -0.39812039899E-01  0.37131364525E-01  0.62850945411E-01  0.51100000000E-03 0. -1.
         11    1    4    4    0    0  0.65970850585E-01 -0.42994906654E-02  0.42356455843E-01  0.78517317959E-01  0.51100000000E-03 0.  1.
</event>
<event>
 8    1  0.2260049E+004  0.1043930E+01  0.7957747E-01            NaN
         13   -1    0    0    0    0  0.00000000000E+00  0.00000000000E+00  0.74505805969E-08  0.10566000000E+00  0.10566000000E+00 0. -1.
     999900   -1    0    0    0    0 -0.00000000000E+00 -0.00000000000E+00 -0.74505805969E-08  0.93827000000E+00  0.93827000000E+00 0. -1.
     999902    2    1    2    0    0  0.81472663462E-02  0.11163230169E-01  0.14359829166E-02  0.10300354794E+01  0.10299417610E+01 0.  0.
     999903    2    3    3    0    0  0.56375727319E-01  0.11570523757E+00  0.39627181329E-01  0.14171482589E+00  0.44123165610E-01 0.  0.
         14    1    1    2    0    0 -0.81472663462E-02 -0.11163230169E-01 -0.14359829166E-02  0.13894520634E-01  0.00000000000E+00 0.  1.
     999901    1    3    3    0    0 -0.48228460973E-01 -0.10454200740E+00 -0.38191198413E-01  0.88832065348E+00  0.88000000000E+00 0. -1.
        -11    1    4    4    0    0  0.23732321749E-01  0.63151361876E-01  0.42574531442E-01  0.79775744753E-01  0.51100000000E-03 0.  1.
         11    1    4    4    0    0  0.32643405570E-01  0.52553875698E-01 -0.29473501130E-02  0.61939081134E-01  0.51100000000E-03 0. -1.
</event>
<event>
 8    1  0.1993226E+004  0.1043930E+01  0.7957747E-01            NaN
         13   -1    0    0    0    0  0.00000000000E+00  0.00000000000E+00  0.74505805969E-08  0.10566000000E+00  0.10566000000E+00 0.  1.
     999900   -1    0    0    0    0 -0.00000000000E+00 -0.00000000000E+00 -0.74505805969E-08  0.93827000000E+00  0.93827000000E+00 0. -1.
     999902    2    1    2    0    0  0.50571653310E-02  0.14484003417E-01 -0.46667913476E-04  0.10285884403E+01  0.10284740230E+01 0.  0.
     999903    2    3    3    0    0  0.27608226121E-01 -0.12649780687E+00 -0.10028399304E-02  0.13708110133E+00  0.45014590520E-01 0.  0.
         14    1    1    2    0    0 -0.50571653310E-02 -0.14484003417E-01  0.46667913476E-04  0.15341559701E-01  0.00000000000E+00 0. -1.
     999901    1    3    3    0    0 -0.22551060790E-01  0.14098181029E+00  0.95617201690E-03  0.89150733897E+00  0.88000000000E+00 0.  1.
        -11    1    4    4    0    0  0.35389312288E-01 -0.81900705529E-01  0.11884117194E-01  0.90009012620E-01  0.51100000000E-03 0. -1.
         11    1    4    4    0    0 -0.77810861669E-02 -0.44597101345E-01 -0.12886957124E-01  0.47072088707E-01  0.51100000000E-03 0.  1.
</event>
<event>
 8    1  0.1993226E+004  0.1043930E+01  0.7957747E-01            NaN
         13   -1    0    0    0    0  0.00000000000E+00  0.00000000000E+00  0.74505805969E-08  0.10566000000E+00  0.10566000000E+00 0. -1.
     999900   -1    0    0    0    0 -0.00000000000E+00 -0.00000000000E+00 -0.74505805969E-08  0.93827000000E+00  0.93827000000E+00 0. -1.
     999902    2    1    2    0    0 -0.10252694685E-01  0.90415014167E-02  0.22372067651E-02  0.10300782279E+01  0.10299850892E+01 0.  0.
     999903    2    3    3    0    0  0.42151525423E-01 -0.90004007117E-02 -0.12423595281E+00  0.13931048454E+00  0.45990007862E-01 0.  0.
         14    1    1    2    0    0  0.10252694685E-01 -0.90415014167E-02 -0.22372067651E-02  0.13851772099E-01  0.00000000000E+00 0.  1.
     999901    1    3    3    0    0 -0.52404220108E-01  0.18041902128E-01  0.12647315958E+00  0.89076774336E+00  0.88000000000E+00 0.  1.
        -11    1    4    4    0    0  0.40695521728E-02 -0.14406821725E-01 -0.82262727999E-02  0.17089483675E-01  0.51100000000E-03 0. -1.
         11    1    4    4    0    0  0.38081973251E-01  0.54064210137E-02 -0.11600968001E+00  0.12222100087E+00  0.51100000000E-03 0.  1.
</event>
<event>
 7    1  0.1993226E+004  0.1043930E+01  0.7957747E-01            NaN
         13   -1    0    0    0    0  0.00000000000E+00  0.00000000000E+00  0.74505805969E-08  0.10566000000E+00  0.10566000000E+00 0.  1.
     999900   -1    0    0    0    0 -0.00000000000E+00 -0.00000000000E+00 -0.74505805969E-08  0.93827000000E+00  0.93827000000E+00 0. -1.
     999903    2    1    2    0    0 -0.11155011238E+00  0.28004719212E-01  0.21576636541E-01  0.12411484798E+00  0.41367286263E-01 0.  0.
         14    1    1    2    0    0  0.31358351977E-01 -0.13901740635E-01 -0.10899985743E-01  0.35991864645E-01  0.00000000000E+00 0.  1.
     999901    1    1    2    0    0  0.80191760406E-01 -0.14102978578E-01 -0.10676650798E-01  0.88382328738E+00  0.88000000000E+00 0. -1.
        -11    1    3    3    0    0 -0.19812467071E-01 -0.10817156611E-01  0.29077478809E-02  0.22765343119E-01  0.51100000000E-03 0.  1.
         11    1    3    3    0    0 -0.91737645312E-01  0.38821875824E-01  0.18668888660E-01  0.10134950486E+00  0.51100000000E-03 0. -1.
</event>
<event>
 8    1  0.2483860E+004  0.1043930E+01  0.7957747E-01            NaN
         13   -1    0    0    0    0  0.00000000000E+00  0.00000000000E+00  0.74505805969E-08  0.10566000000E+00  0.10566000000E+00 0. -1.
     999900   -1    0    0    0    0 -0.00000000000E+00 -0.00000000000E+00 -0.74505805969E-08  0.93827000000E+00  0.93827000000E+00 0.  1.
     999902    2    1    2    0    0  0.19830200487E-02 -0.13446265714E-01 -0.31536033992E-02  0.10299772352E+01  0.10298827241E+01 0.  0.
     999903    2    3    3    0    0 -0.12698862428E-01 -0.12684902861E+00  0.42293760109E-01  0.14141592213E+00  0.44246623832E-01 0.  0.
         14    1    1    2    0    0 -0.19830200487E-02  0.13446265714E-01  0.31536033992E-02  0.13952764764E-01  0.00000000000E+00 0. -1.
     999901    1    3    3    0    0  0.14681882476E-01  0.11340276289E+00 -0.45447363508E-01  0.88856131311E+00  0.88000000000E+00 0.  1.
        -11    1    4    4    0    0 -0.10573272277E-01 -0.78830578754E-01  0.48173823129E-01  0.92989421921E-01  0.51100000000E-03 0. -1.
         11    1    4    4    0    0 -0.21255901505E-02 -0.48018449855E-01 -0.58800630200E-02  0.48426500205E-01  0.51100000000E-03 0.  1.
</event>
<event>
 8    1  0.1993226E+004  0.1043930E+01  0.7957747E-01            NaN
         13   -1    0    0    0    0  0.00000000000E+00  0.00000000000E+00  0.74505805969E-08  0.10566000000E+00  0.10566000000E+00 0. -1.
     999900   -1    0    0    0    0 -0.00000000000E+00 -0.00000000000E+00 -0.74505805969E-08  0.93827000000E+00  0.93827000000E+00 0. -1.
     999902    2    1    2    0    0  0.10375307539E-01 -0.92747052665E-02  0.24733929021E-02  0.10297954736E+01  0.10296984668E+01 0.  0.
     999903    2    3    3    0    0 -0.94533088588E-01 -0.56797058473E-01 -0.71364458616E-01  0.13922477233E+00  0.46132858003E-01 0.  0.
         14    1    1    2    0    0 -0.10375307539E-01  0.92747052665E-02 -0.24733929021E-02  0.14134526407E-01  0.00000000000E+00 0.  1.
     999901    1    3    3    0    0  0.10490839613E+00  0.47522353207E-01  0.73837851518E-01  0.89057070126E+00  0.88000000000E+00 0.  1.
        -11    1    4    4    0    0 -0.34508088342E-01 -0.40775077328E-01 -0.50968261658E-01  0.73833866955E-01  0.51100000000E-03 0. -1.
         11    1    4    4    0    0 -0.60025000246E-01 -0.16021981146E-01 -0.20396196958E-01  0.65390905374E-01  0.51100000000E-03 0.  1.
</event>
<event>
 8    1  0.1993226E+004  0.1043930E+01  0.7957747E-01            NaN
         13   -1    0    0    0    0  0.00000000000E+00  0.00000000000E+00  0.74505805969E-08  0.10566000000E+00  0.10566000000E+00 0. -1.
     999900   -1    0    0    0    0 -0.00000000000E+00 -0.00000000000E+00 -0.74505805969E-08  0.93827000000E+00  0.93827000000E+00 0. -1.
     999902    2    1    2    0    0 -0.14283772804E-01 -0.68658896764E-02  0.40229478810E-02  0.10275791371E+01  0.10274490413E+01 0.  0.
     999903    2    3    3    0    0 -0.10215968491E+00  0.45306958453E-01 -0.69167032053E-01  0.13864665648E+00  0.44153089656E-01 0.  0.
         14    1    1    2    0    0  0.14283772804E-01  0.68658896764E-02 -0.40229478810E-02  0.16350862858E-01  0.00000000000E+00 0.  1.
     999901    1    3    3    0    0  0.87875912103E-01 -0.52172848129E-01  0.73189979934E-01  0.88893248066E+00  0.88000000000E+00 0.  1.
        -11    1    4    4    0    0 -0.57663392001E-01  0.35785219725E-01 -0.18086273692E-01  0.70235483517E-01  0.51100000000E-03 0. -1.
         11    1    4    4    0    0 -0.44496292906E-01  0.95217387279E-02 -0.51080758360E-01  0.68411172965E-01  0.51100000000E-03 0.  1.
</event>
<event>
 8    1  0.1993226E+004  0.1043930E+01  0.7957747E-01            NaN
         13   -1    0    0    0    0  0.00000000000E+00  0.00000000000E+00  0.74505805969E-08  0.10566000000E+00  0.10566000000E+00 0. -1.
     999900   -1    0    0    0    0 -0.00000000000E+00 -0.00000000000E+00 -0.74505805969E-08  0.93827000000E+00  0.93827000000E+00 0.  1.
     999902    2    1    2    0    0 -0.69151762513E-02 -0.54041866811E-02 -0.13035117981E-01  0.10282157009E+01  0.10280956124E+01 0.  0.
     999903    2    3    3    0    0 -0.11751778570E+00 -0.28300866193E-01  0.51216291641E-01  0.13867343724E+00  0.44674877556E-01 0.  0.
         14    1    1    2    0    0  0.69151762513E-02  0.54041866811E-02  0.13035117981E-01  0.15714299127E-01  0.00000000000E+00 0. -1.
     999901    1    3    3    0    0  0.11060260944E+00  0.22896679512E-01 -0.64251409622E-01  0.88954226363E+00  0.88000000000E+00 0.  1.
        -11    1    4    4    0    0 -0.10141460739E+00 -0.23986751006E-01  0.24301732090E-01  0.10700991599E+00  0.51100000000E-03 0. -1.
         11    1    4    4    0    0 -0.16103178305E-01 -0.43141151874E-02  0.26914559550E-01  0.31663521253E-01  0.51100000000E-03 0.  1.
</event>
<event>
 8    1  0.1993226E+004  0.1043930E+01  0.7957747E-01            NaN
         13   -1    0    0    0    0  0.00000000000E+00  0.00000000000E+00  0.74505805969E-08  0.10566000000E+00  0.10566000000E+00 0. -1.
     999900   -1    0    0    0    0 -0.00000000000E+00 -0.00000000000E+00 -0.74505805969E-08  0.93827000000E+00  0.93827000000E+00 0. -1.
     999902    2    1    2    0    0  0.89736366946E-02 -0.10350982226E-02  0.16657681845E-01  0.10249807006E+01  0.10248055233E+01 0.  0.
     999903    2    3    3    0    0  0.11875725468E+00  0.17144182751E-01  0.47899304029E-01  0.13742283318E+00  0.46834636880E-01 0.  0.
         14    1    1    2    0    0 -0.89736366946E-02  0.10350982226E-02 -0.16657681845E-01  0.18949299414E-01  0.00000000000E+00 0.  1.
     999901    1    3    3    0    0 -0.10978361799E+00 -0.18179280974E-01 -0.31241622185E-01  0.88755786740E+00  0.88000000000E+00 0. -1.
        -11    1    4    4    0    0  0.74007329766E-01  0.15681465151E-01  0.52980058452E-01  0.92358762026E-01  0.51100000000E-03 0. -1.
         11    1    4    4    0    0  0.44749924914E-01  0.14627176000E-02 -0.50807544222E-02  0.45064071155E-01  0.51100000000E-03 0.  1.
</event>
<event>
 7    1  0.1993226E+004  0.1043930E+01  0.7957747E-01            NaN
         13   -1    0    0    0    0  0.00000000000E+00  0.00000000000E+00  0.74505805969E-08  0.10566000000E+00  0.10566000000E+00 0.  1.
     999900   -1    0    0    0    0 -0.00000000000E+00 -0.00000000000E+00 -0.74505805969E-08  0.93827000000E+00  0.93827000000E+00 0.  1.
     999902    2    1    2    0    0 -0.10810611842E-01  0.82287431989E-02  0.41929398378E-02  0.10297116215E+01  0.10296134523E+01 0.  0.
         14    1    1    2    0    0  0.10810611842E-01 -0.82287431989E-02 -0.41929398378E-02  0.14218378512E-01  0.00000000000E+00 0. -1.
     999901    1    3    3    0    0  0.66718582532E-01  0.47999615009E-02  0.10300500487E+00  0.88852936919E+00  0.88000000000E+00 0. -1.
        -11    1    3    3    0    0 -0.35123683512E-01  0.32644026100E-01 -0.36029039661E-01  0.59980483521E-01  0.51100000000E-03 0.  1.
         11    1    3    3    0    0 -0.42405510862E-01 -0.29215244402E-01 -0.62783025369E-01  0.81201768777E-01  0.51100000000E-03 0. -1.
</event>
<event>
 8    1  0.1993226E+004  0.1043930E+01  0.7957747E-01            NaN
         13   -1    0    0    0    0  0.00000000000E+00  0.00000000000E+00  0.74505805969E-08  0.10566000000E+00  0.10566000000E+00 0. -1.
     999900   -1    0    0    0    0 -0.00000000000E+00 -0.00000000000E+00 -0.74505805969E-08  0.93827000000E+00  0.93827000000E+00 0.  1.
     999902    2    1    2    0    0  0.44857357630E-02  0.11856240550E-01  0.42365776684E-02  0.10305643404E+01  0.10304776654E+01 0.  0.
     999903    2    3    3    0    0  0.10226435385E+00  0.32768895252E-01 -0.73216871474E-01  0.14152157765E+00  0.55998643797E-01 0.  0.
         14    1    1    2    0    0 -0.44857357630E-02 -0.11856240550E-01 -0.42365776684E-02  0.13365659567E-01  0.00000000000E+00 0. -1.
     999901    1    3    3    0    0 -0.97778618083E-01 -0.20912654702E-01  0.77453449142E-01  0.88904276279E+00  0.88000000000E+00 0. -1.
        -11    1    4    4    0    0  0.74978856877E-01  0.48335595421E-01 -0.48464207537E-01  0.10152437784E+00  0.51100000000E-03 0.  1.
         11    1    4    4    0    0  0.27285496969E-01 -0.15566700169E-01 -0.24752663937E-01  0.39997199802E-01  0.51100000000E-03 0. -1.
</event>
<event>
 8    1  0.1993226E+004  0.1043930E+01  0.7957747E-01            NaN
         13   -1    0    0    0    0  0.00000000000E+00  0.00000000000E+00  0.74505805969E-08  0.10566000000E+00  0.10566000000E+00 0. -1.
     999900   -1    0    0    0    0 -0.00000000000E+00 -0.00000000000E+00 -0.74505805969E-08  0.93827000000E+00  0.93827000000E+00 0.  1.
     999902    2    1    2    0    0 -0.10334467217E-01 -0.69204647718E-02 -0.55834323013E-02  0.10302966306E+01  0.10302064251E+01 0.  0.
     999903    2    3    3    0    0 -0.12260510964E+00 -0.43972371453E-01  0.31278988226E-01  0.14162549963E+00  0.45976349144E-01 0.  0.
         14    1    1    2    0    0  0.10334467217E-01  0.69204647718E-02  0.55834323013E-02  0.13633369414E-01  0.00000000000E+00 0.  1.
     999901    1    3    3    0    0  0.11227064243E+00  0.37051906682E-01 -0.36862420527E-01  0.88867113095E+00  0.88000000000E+00 0.  1.
        -11    1    4    4    0    0 -0.84044718215E-01 -0.40162178559E-01  0.21970953647E-02  0.93175123265E-01  0.51100000000E-03 0. -1.
         11    1    4    4    0    0 -0.38560391427E-01 -0.38101928941E-02  0.29081892861E-01  0.48450376369E-01  0.51100000000E-03 0.  1.
</event>
<event>
 8    1  0.1993226E+004  0.1043930E+01  0.7957747E-01            NaN
         13   -1    0    0    0    0  0.00000000000E+00  0.00000000000E+00  0.74505805969E-08  0.10566000000E+00  0.10566000000E+00 0. -1.
     999900   -1    0    0    0    0 -0.00000000000E+00 -0.00000000000E+00 -0.74505805969E-08  0.93827000000E+00  0.93827000000E+00 0.  1.
     999902    2    1    2    0    0 -0.11524529325E-01  0.55234738727E-02 -0.63785401405E-02  0.10296468171E+01  0.10295477447E+01 0.  0.
     999903    2    3    3    0    0  0.84636477752E-01 -0.98088454449E-01 -0.16091938631E-01  0.13831258063E+00  0.45680862613E-01 0.  0.
         14    1    1    2    0    0  0.11524529325E-01 -0.55234738727E-02  0.63785401405E-02  0.14283182912E-01  0.00000000000E+00 0.  1.
     999901    1    3    3    0    0 -0.96161007077E-01  0.10361192832E+00  0.97133984904E-02  0.89133423646E+00  0.88000000000E+00 0.  1.
        -11    1    4    4    0    0  0.63161540520E-01 -0.96304459058E-01 -0.85928543892E-02  0.11549037753E+00  0.51100000000E-03 0. -1.
         11    1    4    4    0    0  0.21474937232E-01 -0.17839953907E-02 -0.74990842417E-02  0.22822203096E-01  0.51100000000E-03 0.  1.
</event>
<event>
 8    1  0.1993226E+004  0.1043930E+01  0.7957747E-01            NaN
         13   -1    0    0    0    0  0.00000000000E+00  0.00000000000E+00  0.74505805969E-08  0.10566000000E+00  0.10566000000E+00 0. -1.
     999900   -1    0    0    0    0 -0.00000000000E+00 -0.00000000000E+00 -0.74505805969E-08  0.93827000000E+00  0.93827000000E+00 0.  1.
     999902    2    1    2    0    0  0.14070812076E-01 -0.25139930011E-02 -0.15439905387E-02  0.10295532194E+01  0.10294528351E+01 0.  0.
     999903    2    3    3    0    0  0.28365149826E-01 -0.12946664343E+00  0.26327207865E-02  0.14031829631E+00  0.46001082317E-01 0.  0.
         14    1    1    2    0    0 -0.14070812076E-01  0.25139930011E-02  0.15439905387E-02  0.14376780588E-01  0.00000000000E+00 0. -1.
     999901    1    3    3    0    0 -0.14294337750E-01  0.12695265043E+00 -0.41767113253E-02  0.88923492310E+00  0.88000000000E+00 0.  1.
        -11    1    4    4    0    0  0.36427289464E-01 -0.77865307448E-01  0.13359745466E-01  0.86998261141E-01  0.51100000000E-03 0.  1.
         11    1    4    4    0    0 -0.80621396383E-02 -0.51601335986E-01 -0.10727024679E-01  0.53320035171E-01  0.51100000000E-03 0. -1.
</event>
<event>
 8    1  0.1993226E+004  0.1043930E+01  0.7957747E-01            NaN
         13   -1    0    0    0    0  0.00000000000E+00  0.00000000000E+00  0.74505805969E-08  0.10566000000E+00  0.10566000000E+00 0.  1.
     999900   -1    0    0    0    0 -0.00000000000E+00 -0.00000000000E+00 -0.74505805969E-08  0.93827000000E+00  0.93827000000E+00 0.  1.
     999902    2    1    2    0    0 -0.72155999225E-02 -0.11415036954E-01  0.13668904769E-02  0.10303566312E+01  0.10302672232E+01 0.  0.
     999903    2    3    3    0    0  0.60502310648E-02 -0.94120691197E-01 -0.94860315384E-01  0.14115705706E+00  0.45072447403E-01 0.  0.
         14    1    1    2    0    0  0.72155999225E-02  0.11415036954E-01 -0.13668904769E-02  0.13573368796E-01  0.00000000000E+00 0.  1.
     999901    1    3    3    0    0 -0.13265830987E-01  0.82705654244E-01  0.96227205861E-01  0.88919957415E+00  0.88000000000E+00 0. -1.
        -11    1    4    4    0    0 -0.13394451290E-01 -0.69930912642E-01 -0.78811600956E-01  0.10621333925E+00  0.51100000000E-03 0. -1.
         11    1    4    4    0    0  0.19444682354E-01 -0.24189778555E-01 -0.16048714428E-01  0.34943717807E-01  0.51100000000E-03 0.  1.
</event>
<event>
 8    1  0.2670175E+004  0.1043930E+01  0.7957747E-01            NaN
         13   -1    0    0    0    0  0.00000000000E+00  0.00000000000E+00  0.74505805969E-08  0.10566000000E+00  0.10566000000E+00 0.  1.
     999900   -1    0    0    0    0 -0.00000000000E+00 -0.00000000000E+00 -0.74505805969E-08  0.93827000000E+00  0.93827000000E+00 0. -1.
     999902    2    1    2    0    0 -0.10764529432E-01  0.76798145175E-02  0.83369711914E-02  0.10282979901E+01  0.10281791657E+01 0.  0.
     999903    2    3    3    0    0 -0.69111005082E-01 -0.24835033222E-01  0.11029196684E+00  0.13989698397E+00  0.44874695297E-01 0.  0.
         14    1    1    2    0    0  0.10764529432E-01 -0.76798145175E-02 -0.83369711914E-02  0.15632009902E-01  0.00000000000E+00 0. -1.
     999901    1    3    3    0    0  0.58346475650E-01  0.32514847739E-01 -0.10195499565E+00  0.88840100612E+00  0.88000000000E+00 0. -1.
        -11    1    4    4    0    0 -0.26149897799E-01 -0.33043332985E-01  0.49603433040E-01  0.65087945889E-01  0.51100000000E-03 0. -1.
         11    1    4    4    0    0 -0.42961107283E-01  0.82082997632E-02  0.60688533796E-01  0.74809038086E-01  0.51100000000E-03 0.  1.
</event>
<event>
 8    1  0.1993226E+004  0.1043930E+01  0.7957747E-01            NaN
         13   -1    0    0    0    0  0.00000000000E+00  0.00000000000E+00  0.74505805969E-08  0.10566000000E+00  0.10566000000E+00 0.  1.
     999900   -1    0    0    0    0 -0.00000000000E+00 -0.00000000000E+00 -0.74505805969E-08  0.93827000000E+00  0.93827000000E+00 0.  1.
     999902    2    1    2    0    0 -0.13978816282E-01 -0.32454204237E-02 -0.40226411168E-02  0.10290262522E+01  0.10289183184E+01 0.  0.
     999903    2    3    3    0    0  0.36674306728E-01  0.93960233340E-01  0.83250646567E-01  0.13794191005E+00  0.43860804500E-01 0.  0.
         14    1    1    2    0    0  0.13978816282E-01  0.32454204237E-02  0.40226411168E-02  0.14903747848E-01  0.00000000000E+00 0.  1.
     999901    1    3    3    0    0 -0.50653123010E-01 -0.97205653763E-01 -0.87273287684E-01  0.89108434210E+00  0.88000000000E+00 0.  1.
        -11    1    4    4    0    0  0.28319986880E-01  0.39836989733E-01  0.16479080884E-01  0.51583220486E-01  0.51100000000E-03 0.  1.
         11    1    4    4    0    0  0.83543198481E-02  0.54123243606E-01  0.66771565684E-01  0.86358689566E-01  0.51100000000E-03 0. -1.
</event>
<event>
 8    1  0.1993226E+004  0.1043930E+01  0.7957747E-01            NaN
         13   -1    0    0    0    0  0.00000000000E+00  0.00000000000E+00  0.74505805969E-08  0.10566000000E+00  0.10566000000E+00 0. -1.
     999900   -1    0    0    0    0 -0.00000000000E+00 -0.00000000000E+00 -0.74505805969E-08  0.93827000000E+00  0.93827000000E+00 0. -1.
     999902    2    1    2    0    0  0.11129948265E-01  0.56438300899E-02  0.61050610531E-02  0.10300375439E+01  0.10299438536E+01 0.  0.
     999903    2    3    3    0    0 -0.12667097327E+00 -0.28779939518E-01  0.18604349163E-01  0.13856105956E+00  0.44488482005E-01 0.  0.
         14    1    1    2    0    0 -0.11129948265E-01 -0.56438300899E-02 -0.61050610531E-02  0.13892456116E-01  0.00000000000E+00 0.  1.
     999901    1    3    3    0    0  0.13780092154E+00  0.34423769608E-01 -0.12499288110E-01  0.89147648432E+00  0.88000000000E+00 0. -1.
        -11    1    4    4    0    0 -0.65047106303E-01  0.75496488489E-02  0.44497886881E-02  0.65636765433E-01  0.51100000000E-03 0. -1.
         11    1    4    4    0    0 -0.61623866971E-01 -0.36329588367E-01  0.14154560475E-01  0.72924294132E-01  0.51100000000E-03 0.  1.
</event>
<event>
 8    1  0.1993226E+004  0.1043930E+01  0.7957747E-01            NaN
         13   -1    0    0    0    0  0.00000000000E+00  0.00000000000E+00  0.74505805969E-08  0.10566000000E+00  0.10566000000E+00 0. -1.
     999900   -1    0    0    0    0 -0.00000000000E+00 -0.00000000000E+00 -0.74505805969E-08  0.93827000000E+00  0.93827000000E+00 0.  1.
     999902    2    1    2    0    0  0.17570765656E-02 -0.13677920781E-01  0.66943009948E-02  0.10286007306E+01  0.10284864979E+01 0.  0.
     999903    2    3    3    0    0 -0.11693962099E+00 -0.52419117866E-01  0.29929307988E-01  0.13948338630E+00  0.46229997852E-01 0.  0.
         14    1    1    2    0    0 -0.17570765656E-02  0.13677920781E-01 -0.66943009948E-02  0.15329269414E-01  0.00000000000E+00 0.  1.
     999901    1    3    3    0    0  0.11869669756E+00  0.38741197085E-01 -0.23235006993E-01  0.88911734429E+00  0.88000000000E+00 0.  1.
        -11    1    4    4    0    0 -0.39603228145E-01 -0.85333507529E-02  0.30247175887E-01  0.50560721165E-01  0.51100000000E-03 0. -1.
         11    1    4    4    0    0 -0.77336392846E-01 -0.43885767113E-01 -0.31786789897E-03  0.88922665134E-01  0.51100000000E-03 0.  1.
</event>
<event>
 8    1  0.1993226E+004  0.1043930E+01  0.7957747E-01            NaN
         13   -1    0    0    0    0  0.00000000000E+00  0.00000000000E+00  0.74505805969E-08  0.10566000000E+00  0.10566000000E+00 0.  1.
     999900   -1    0    0    0    0 -0.00000000000E+00 -0.00000000000E+00 -0.74505805969E-08  0.93827000000E+00  0.93827000000E+00 0. -1.
     999902    2    1    2    0    0 -0.32269985827E-02 -0.26525857688E-02  0.13336050719E-01  0.10299550231E+01  0.10298602088E+01 0.  0.
     999903    2    3    3    0    0 -0.85255008244E-01  0.50140200262E-01  0.89793821086E-01  0.14126977887E+00  0.45953933502E-01 0.  0.
         14    1    1    2    0    0  0.32269985827E-02  0.26525857688E-02 -0.13336050719E-01  0.13974976919E-01  0.00000000000E+00 0. -1.
     999901    1    3    3    0    0  0.82028009661E-01 -0.52792786031E-01 -0.76457770367E-01  0.88868524421E+00  0.88000000000E+00 0. -1.
        -11    1    4    4    0    0 -0.38826138797E-01  0.52534379834E-02  0.13802658611E-01  0.41543256615E-01  0.51100000000E-03 0.  1.
         11    1    4    4    0    0 -0.46428869447E-01  0.44886762279E-01  0.75991162475E-01  0.99726522256E-01  0.51100000000E-03 0. -1.
</event>
<event>
 8    1  0.1993226E+004  0.1043930E+01  0.7957747E-01            NaN
         13   -1    0    0    0    0  0.00000000000E+00  0.00000000000E+00  0.74505805969E-08  0.10566000000E+00  0.10566000000E+00 0. -1.
     999900   -1    0    0    0    0 -0.00000000000E+00 -0.00000000000E+00 -0.74505805969E-08  0.93827000000E+00  0.93827000000E+00 0. -1.
     999902    2    1    2    0    0 -0.92351073684E-02  0.10231233230E-01  0.22842907159E-02  0.10299591974E+01  0.10298644401E+01 0.  0.
     999903    2    3    3    0    0 -0.62617475051E-01  0.24671870633E-01  0.11539586282E+00  0.14099776013E+00  0.45105585293E-01 0.  0.
         14    1    1    2    0    0  0.92351073684E-02 -0.10231233230E-01 -0.22842907159E-02  0.13970802611E-01  0.00000000000E+00 0.  1.
     999901    1    3    3    0    0  0.53382367683E-01 -0.14440637403E-01 -0.11311157210E+00  0.88896143726E+00  0.88000000000E+00 0. -1.
        -11    1    4    4    0    0 -0.86942456139E-02 -0.10887192922E-01  0.92137037546E-02  0.16711503056E-01  0.51100000000E-03 0. -1.
         11    1    4    4    0    0 -0.53923229437E-01  0.35559063554E-01  0.10618215906E+00  0.12428625708E+00  0.51100000000E-03 0.  1.
</event>
<event>
 8    1  0.1993226E+004  0.1043930E+01  0.7957747E-01            NaN
         13   -1    0    0    0    0  0.00000000000E+00  0.00000000000E+00  0.74505805969E-08  0.10566000000E+00  0.10566000000E+00 0.  1.
     999900   -1    0    0    0    0 -0.00000000000E+00 -0.00000000000E+00 -0.74505805969E-08  0.93827000000E+00  0.93827000000E+00 0.  1.
     999902    2    1    2    0    0  0.11099642909E-02 -0.22153366937E-01  0.14393054069E-01  0.10174882963E+01  0.10171446650E+01 0.  0.
     999903    2    3    3    0    0  0.11065287358E+00  0.19911308748E-01  0.46071797914E-01  0.12913440923E+00  0.43732898798E-01 0.  0.
         14    1    1    2    0    0 -0.11099642909E-02  0.22153366937E-01 -0.14393054069E-01  0.26441703667E-01  0.00000000000E+00 0. -1.
     999901    1    3    3    0    0 -0.10954290929E+00 -0.42064675685E-01 -0.31678743845E-01  0.88835388710E+00  0.88000000000E+00 0.  1.
        -11    1    4    4    0    0  0.51086249837E-01 -0.38331406026E-03  0.41883921935E-01  0.66064180081E-01  0.51100000000E-03 0.  1.
         11    1    4    4    0    0  0.59566623742E-01  0.20294622808E-01  0.41878759791E-02  0.63070229151E-01  0.51100000000E-03 0. -1.
</event>
<event>
 8    1  0.1993226E+004  0.1043930E+01  0.7957747E-01            NaN
         13   -1    0    0    0    0  0.00000000000E+00  0.00000000000E+00  0.74505805969E-08  0.10566000000E+00  0.10566000000E+00 0.  1.
     999900   -1    0    0    0    0 -0.00000000000E+00 -0.00000000000E+00 -0.74505805969E-08  0.93827000000E+00  0.93827000000E+00 0.  1.
     999902    2    1    2    0    0  0.17698482905E-02 -0.55925512585E-02  0.14278172513E-01  0.10284938346E+01  0.10283779911E+01 0.  0.
     999903    2    3    3    0    0  0.58425349176E-01 -0.99460004171E-01  0.60788705732E-01  0.14047121426E+00  0.52259749670E-01 0.  0.
         14    1    1    2    0    0 -0.17698482905E-02  0.55925512585E-02 -0.14278172513E-01  0.15436165420E-01  0.00000000000E+00 0. -1.
     999901    1    3    3    0    0 -0.56655500886E-01  0.93867452913E-01 -0.46510533219E-01  0.88802262032E+00  0.88000000000E+00 0. -1.
        -11    1    4    4    0    0  0.14856262488E-01 -0.43664970580E-01  0.51394474176E-01  0.69057883602E-01  0.51100000000E-03 0. -1.
         11    1    4    4    0    0  0.43569086689E-01 -0.55795033592E-01  0.93942315559E-02  0.71413330660E-01  0.51100000000E-03 0.  1.
</event>
<event>
 8    1  0.1993226E+004  0.1043930E+01  0.7957747E-01            NaN
         13   -1    0    0    0    0  0.00000000000E+00  0.00000000000E+00  0.74505805969E-08  0.10566000000E+00  0.10566000000E+00 0. -1.
     999900   -1    0    0    0    0 -0.00000000000E+00 -0.00000000000E+00 -0.74505805969E-08  0.93827000000E+00  0.93827000000E+00 0. -1.
     999902    2    1    2    0    0 -0.10439050475E-01  0.60930176140E-02 -0.69991374448E-02  0.10299626608E+01  0.10298679508E+01 0.  0.
     999903    2    3    3    0    0  0.52450278648E-02  0.13019576105E+00 -0.35298355731E-01  0.14066612593E+00  0.39528958418E-01 0.  0.
         14    1    1    2    0    0  0.10439050475E-01 -0.60930176140E-02  0.69991374448E-02  0.13967339168E-01  0.00000000000E+00 0. -1.
     999901    1    3    3    0    0 -0.15684078339E-01 -0.12410274343E+00  0.28299218287E-01  0.88929653491E+00  0.88000000000E+00 0. -1.
        -11    1    4    4    0    0  0.21269211627E-01  0.90669402783E-01 -0.29045082723E-01  0.97556127002E-01  0.51100000000E-03 0.  1.
         11    1    4    4    0    0 -0.16024183762E-01  0.39526358264E-01 -0.62532730087E-02  0.43109998923E-01  0.51100000000E-03 0. -1.
</event>
<event>
 8    1  0.1993226E+004  0.1043930E+01  0.7957747E-01            NaN
         13   -1    0    0    0    0  0.00000000000E+00  0.00000000000E+00  0.74505805969E-08  0.10566000000E+00  0.10566000000E+00 0. -1.
     999900   -1    0    0    0    0 -0.00000000000E+00 -0.00000000000E+00 -0.74505805969E-08  0.93827000000E+00  0.93827000000E+00 0. -1.
     999902    2    1    2    0    0 -0.10696096165E-01  0.49813043255E-02 -0.70931341333E-02  0.10301629227E+01  0.10300709271E+01 0.  0.
     999903    2    3    3    0    0  0.86014297494E-01  0.84633031333E-01 -0.54945985421E-01  0.14000159279E+00  0.44946360309E-01 0.  0.
         14    1    1    2    0    0  0.10696096165E-01 -0.49813043255E-02  0.70931341333E-02  0.13767077315E-01  0.00000000000E+00 0. -1.
     999901    1    3    3    0    0 -0.96710393659E-01 -0.79651727008E-01  0.47852851288E-01  0.89016132989E+00  0.88000000000E+00 0.  1.
        -11    1    4    4    0    0  0.78348767559E-01  0.54209370709E-01 -0.51849934131E-01  0.10847055841E+00  0.51100000000E-03 0. -1.
         11    1    4    4    0    0  0.76655299348E-02  0.30423660624E-01 -0.30960512899E-02  0.31531034388E-01  0.51100000000E-03 0.  1.
</event>
<event>
 8    1  0.1993226E+004  0.1043930E+01  0.7957747E-01            NaN
         13   -1    0    0    0    0  0.00000000000E+00  0.00000000000E+00  0.74505805969E-08  0.10566000000E+00  0.10566000000E+00 0. -1.
     999900   -1    0    0    0    0 -0.00000000000E+00 -0.00000000000E+00 -0.74505805969E-08  0.93827000000E+00  0.93827000000E+00 0. -1.
     999902    2    1    2    0    0  0.38449398284E-02  0.10734752255E-01 -0.72038436208E-02  0.10304424564E+01  0.10303541829E+01 0.  0.
     999903    2    3    3    0    0 -0.49754039005E-01  0.12335928627E+00  0.16383070322E-01  0.14133420730E+00  0.44877335632E-01 0.  0.
         14    1    1    2    0    0 -0.38449398284E-02 -0.10734752255E-01  0.72038436208E-02  0.13487543556E-01  0.00000000000E+00 0. -1.
     999901    1    3    3    0    0  0.53598978833E-01 -0.11262453401E+00 -0.23586913943E-01  0.88910824915E+00  0.88000000000E+00 0. -1.
        -11    1    4    4    0    0 -0.15201980488E-01  0.84717341252E-01  0.22954057253E-01  0.89080177284E-01  0.51100000000E-03 0.  1.
         11    1    4    4    0    0 -0.34552058517E-01  0.38641945014E-01 -0.65709869313E-02  0.52254030012E-01  0.51100000000E-03 0. -1.
</event>
<event>
 8    1  0.1993226E+004  0.1043930E+01  0.7957747E-01            NaN
         13   -1    0    0    0    0  0.00000000000E+00  0.00000000000E+00  0.74505805969E-08  0.10566000000E+00  0.10566000000E+00 0. -1.
     999900   -1    0    0    0    0 -0.00000000000E+00 -0.00000000000E+00 -0.74505805969E-08  0.93827000000E+00  0.93827000000E+00 0.  1.
     999902    2    1    2    0    0 -0.56152641660E-02  0.37820638628E-02  0.12037920380E-01  0.10301188912E+01  0.10300263022E+01 0.  0.
     999903    2    3    3    0    0  0.66414464885E-02 -0.69317507428E-01  0.11436228349E+00  0.14109467919E+00  0.44496639914E-01 0.  0.
         14    1    1    2    0    0  0.56152641660E-02 -0.37820638628E-02 -0.12037920380E-01  0.13811108783E-01  0.00000000000E+00 0.  1.
     999901    1    3    3    0    0 -0.12256710655E-01  0.73099571291E-01 -0.10232436311E+00  0.88902421202E+00  0.88000000000E+00 0.  1.
        -11    1    4    4    0    0  0.84089464678E-03 -0.63966519762E-01  0.11649392240E+00  0.13290416785E+00  0.51100000000E-03 0. -1.
         11    1    4    4    0    0  0.58005518417E-02 -0.53509876658E-02 -0.21316389076E-02  0.81905113455E-02  0.51100000000E-03 0.  1.
</event>
<event>
 8    1  0.1993226E+004  0.1043930E+01  0.7957747E-01            NaN
         13   -1    0    0    0    0  0.00000000000E+00  0.00000000000E+00  0.74505805969E-08  0.10566000000E+00  0.10566000000E+00 0.  1.
     999900   -1    0    0    0    0 -0.00000000000E+00 -0.00000000000E+00 -0.74505805969E-08  0.93827000000E+00  0.93827000000E+00 0. -1.
     999902    2    1    2    0    0  0.28618554450E-02 -0.12984815782E-01 -0.24803844637E-03  0.10306312339E+01  0.10305454299E+01 0.  0.
     999903    2    3    3    0    0 -0.10842417117E+00  0.55576857648E-01 -0.51325964670E-01  0.13951158010E+00  0.44548157472E-01 0.  0.
         14    1    1    2    0    0 -0.28618554450E-02  0.12984815782E-01  0.24803844637E-03  0.13298766128E-01  0.00000000000E+00 0.  1.
     999901    1    3    3    0    0  0.11128602661E+00 -0.68561673429E-01  0.51077926224E-01  0.89111965377E+00  0.88000000000E+00 0. -1.
        -11    1    4    4    0    0 -0.39215609346E-01  0.12301830294E-02 -0.28808782634E-01  0.48678377587E-01  0.51100000000E-03 0. -1.
         11    1    4    4    0    0 -0.69208561823E-01  0.54346674618E-01 -0.22517182036E-01  0.90833202517E-01  0.51100000000E-03 0.  1.
</event>
<event>
 8    1  0.1993226E+004  0.1043930E+01  0.7957747E-01            NaN
         13   -1    0    0    0    0  0.00000000000E+00  0.00000000000E+00  0.74505805969E-08  0.10566000000E+00  0.10566000000E+00 0. -1.
     999900   -1    0    0    0    0 -0.00000000000E+00 -0.00000000000E+00 -0.74505805969E-08  0.93827000000E+00  0.93827000000E+00 0.  1.
     999902    2    1    2    0    0  0.95521955730E-03 -0.96557551159E-02  0.90482521111E-02  0.10306628633E+01  0.10305774696E+01 0.  0.
     999903    2    3    3    0    0  0.43268306514E-01 -0.79203103331E-01 -0.97850291948E-01  0.14046371155E+00  0.44834101992E-01 0.  0.
         14    1    1    2    0    0 -0.95521955730E-03  0.96557551159E-02 -0.90482521111E-02  0.13267136749E-01  0.00000000000E+00 0.  1.
     999901    1    3    3    0    0 -0.42313086957E-01  0.69547348215E-01  0.10689854406E+00  0.89019915170E+00  0.88000000000E+00 0. -1.
        -11    1    4    4    0    0  0.11775093606E-01 -0.60756432754E-01 -0.46265207530E-01  0.77270482717E-01  0.51100000000E-03 0. -1.
         11    1    4    4    0    0  0.31493212908E-01 -0.18446670577E-01 -0.51585084417E-01  0.63193228830E-01  0.51100000000E-03 0.  1.
</event>
<event>
 8    1  0.1993226E+004  0.1043930E+01  0.7957747E-01            NaN
         13   -1    0    0    0    0  0.00000000000E+00  0.00000000000E+00  0.74505805969E-08  0.10566000000E+00  0.10566000000E+00 0.  1.
     999900   -1    0    0    0    0 -0.00000000000E+00 -0.00000000000E+00 -0.74505805969E-08  0.93827000000E+00  0.93827000000E+00 0. -1.
     999902    2    1    2    0    0 -0.73027245601E-02  0.11810301293E-01 -0.21735496218E-02  0.10298752029E+01  0.10297792949E+01 0.  0.
     999903    2    3    3    0    0 -0.63864347524E-01 -0.63435191694E-01 -0.96869861374E-01  0.13980301886E+00  0.45369985770E-01 0.  0.
         14    1    1    2    0    0  0.73027245601E-02 -0.11810301293E-01  0.21735496218E-02  0.14054797067E-01  0.00000000000E+00 0.  1.
     999901    1    3    3    0    0  0.56561622964E-01  0.75245492988E-01  0.94696311752E-01  0.89007218408E+00  0.88000000000E+00 0.  1.
        -11    1    4    4    0    0 -0.38947198746E-01 -0.10088657086E-01 -0.27116404603E-01  0.48520364916E-01  0.51100000000E-03 0. -1.
         11    1    4    4    0    0 -0.24917148779E-01 -0.53346534609E-01 -0.69753456771E-01  0.91282653941E-01  0.51100000000E-03 0.  1.
</event>
<event>
 8    1  0.1993226E+004  0.1043930E+01  0.7957747E-01            NaN
         13   -1    0    0    0    0  0.00000000000E+00  0.00000000000E+00  0.74505805969E-08  0.10566000000E+00  0.10566000000E+00 0. -1.
     999900   -1    0    0    0    0 -0.00000000000E+00 -0.00000000000E+00 -0.74505805969E-08  0.93827000000E+00  0.93827000000E+00 0.  1.
     999902    2    1    2    0    0 -0.19447601414E-02  0.14141397471E-01  0.18583327066E-03  0.10296542952E+01  0.10295553272E+01 0.  0.
     999903    2    3    3    0    0  0.17714275631E-01  0.12855177367E+00  0.33954824396E-01  0.14138825584E+00  0.44702960905E-01 0.  0.
         14    1    1    2    0    0  0.19447601414E-02 -0.14141397471E-01 -0.18583327066E-03  0.14275704832E-01  0.00000000000E+00 0. -1.
     999901    1    3    3    0    0 -0.19659035772E-01 -0.11441037620E+00 -0.33768991125E-01  0.88826603933E+00  0.88000000000E+00 0.  1.
        -11    1    4    4    0    0  0.20234037857E-01  0.99001659912E-01  0.69720566293E-02  0.10128976082E+00  0.51100000000E-03 0. -1.
         11    1    4    4    0    0 -0.25197622262E-02  0.29550113758E-01  0.26982767766E-01  0.40098495011E-01  0.51100000000E-03 0.  1.
</event>
<event>
 8    1  0.1993226E+004  0.1043930E+01  0.7957747E-01            NaN
         13   -1    0    0    0    0  0.00000000000E+00  0.00000000000E+00  0.74505805969E-08  0.10566000000E+00  0.10566000000E+00 0. -1.
     999900   -1    0    0    0    0 -0.00000000000E+00 -0.00000000000E+00 -0.74505805969E-08  0.93827000000E+00  0.93827000000E+00 0.  1.
     999902    2    1    2    0    0  0.61056319896E-02 -0.11371021556E-01 -0.49259610188E-02  0.10301153713E+01  0.10300227348E+01 0.  0.
     999903    2    3    3    0    0 -0.10630504296E+00 -0.79886970380E-01 -0.41803923247E-02  0.14032261403E+00  0.44612443689E-01 0.  0.
         14    1    1    2    0    0 -0.61056319896E-02  0.11371021556E-01  0.49259610188E-02  0.13814628666E-01  0.00000000000E+00 0. -1.
     999901    1    3    3    0    0  0.11241067495E+00  0.68515948824E-01 -0.74556869410E-03  0.88979275731E+00  0.88000000000E+00 0.  1.
        -11    1    4    4    0    0 -0.68256498451E-01 -0.41413582818E-01 -0.22908789784E-01  0.83060870408E-01  0.51100000000E-03 0. -1.
         11    1    4    4    0    0 -0.38048544509E-01 -0.38473387562E-01  0.18728397459E-01  0.57261743618E-01  0.51100000000E-03 0.  1.
</event>
<event>
 8    1  0.1993226E+004  0.1043930E+01  0.7957747E-01            NaN
         13   -1    0    0    0    0  0.00000000000E+00  0.00000000000E+00  0.74505805969E-08  0.10566000000E+00  0.10566000000E+00 0. -1.
     999900   -1    0    0    0    0 -0.00000000000E+00 -0.00000000000E+00 -0.74505805969E-08  0.93827000000E+00  0.93827000000E+00 0. -1.
     999902    2    1    2    0    0 -0.52316060558E-02 -0.12391268450E-01 -0.34878979336E-02  0.10300347250E+01  0.10299409964E+01 0.  0.
     999903    2    3    3    0    0  0.93638981904E-01  0.37493314365E-01 -0.84664102518E-01  0.13938696018E+00  0.45680486627E-01 0.  0.
         14    1    1    2    0    0  0.52316060558E-02  0.12391268450E-01  0.34878979336E-02  0.13895275014E-01  0.00000000000E+00 0. -1.
     999901    1    3    3    0    0 -0.98870587960E-01 -0.49884582815E-01  0.81176204585E-01  0.89064776481E+00  0.88000000000E+00 0.  1.
        -11    1    4    4    0    0  0.16276047575E-01  0.28475464547E-01 -0.26744472004E-01  0.42323630629E-01  0.51100000000E-03 0. -1.
         11    1    4    4    0    0  0.77362934328E-01  0.90178498174E-02 -0.57919630515E-01  0.97063329549E-01  0.51100000000E-03 0.  1.
</event>
<event>
 8    1  0.1993226E+004  0.1043930E+01  0.7957747E-01            NaN
         13   -1    0    0    0    0  0.00000000000E+00  0.00000000000E+00  0.74505805969E-08  0.10566000000E+00  0.10566000000E+00 0. -1.
     999900   -1    0    0    0    0 -0.00000000000E+00 -0.00000000000E+00 -0.74505805969E-08  0.93827000000E+00  0.93827000000E+00 0.  1.
     999902    2    1    2    0    0 -0.61673427479E-02  0.60639551687E-02  0.11618331516E-01  0.10294457570E+01  0.10293438557E+01 0.  0.
     999903    2    3    3    0    0  0.22856466148E-01  0.93313900099E-01  0.93593030973E-01  0.14086554916E+00  0.43052822160E-01 0.  0.
         14    1    1    2    0    0  0.61673427479E-02 -0.60639551687E-02 -0.11618331516E-01  0.14484243027E-01  0.00000000000E+00 0.  1.
     999901    1    3    3    0    0 -0.29023808896E-01 -0.87249944930E-01 -0.81974699457E-01  0.88858020782E+00  0.88000000000E+00 0.  1.
        -11    1    4    4    0    0 -0.82917546161E-02  0.22558620997E-01  0.40442442070E-01  0.47047814163E-01  0.51100000000E-03 0.  1.
         11    1    4    4    0    0  0.31148220764E-01  0.70755279102E-01  0.53150588902E-01  0.93817734993E-01  0.51100000000E-03 0. -1.
</event>
<event>
 8    1  0.1993226E+004  0.1043930E+01  0.7957747E-01            NaN
         13   -1    0    0    0    0  0.00000000000E+00  0.00000000000E+00  0.74505805969E-08  0.10566000000E+00  0.10566000000E+00 0.  1.
     999900   -1    0    0    0    0 -0.00000000000E+00 -0.00000000000E+00 -0.74505805969E-08  0.93827000000E+00  0.93827000000E+00 0. -1.
     999902    2    1    2    0    0 -0.12219204497E-01 -0.63488527507E-02 -0.83055950381E-02  0.10278489615E+01  0.10277231572E+01 0.  0.
     999903    2    3    3    0    0  0.60053842895E-01  0.82386789557E-02 -0.11535581890E+00  0.13830079537E+00  0.46322836380E-01 0.  0.
         14    1    1    2    0    0  0.12219204497E-01  0.63488527507E-02  0.83055950381E-02  0.16081038484E-01  0.00000000000E+00 0.  1.
     999901    1    3    3    0    0 -0.72273047393E-01 -0.14587531706E-01  0.10705022386E+00  0.88954816614E+00  0.88000000000E+00 0.  1.
        -11    1    4    4    0    0  0.56622739540E-02 -0.14193731761E-01 -0.39107432613E-01  0.41990186642E-01  0.51100000000E-03 0. -1.
         11    1    4    4    0    0  0.54391568941E-01  0.22432410717E-01 -0.76248386282E-01  0.96310608730E-01  0.51100000000E-03 0.  1.
</event>
<event>
 8    1  0.1993226E+004  0.1043930E+01  0.7957747E-01            NaN
         13   -1    0    0    0    0  0.00000000000E+00  0.00000000000E+00  0.74505805969E-08  0.10566000000E+00  0.10566000000E+00 0. -1.
     999900   -1    0    0    0    0 -0.00000000000E+00 -0.00000000000E+00 -0.74505805969E-08  0.93827000000E+00  0.93827000000E+00 0. -1.
     999902    2    1    2    0    0  0.21750127954E-03  0.51250668812E-02 -0.10477438911E-01  0.10322642234E+01  0.10321983029E+01 0.  0.
     999903    2    3    3    0    0 -0.67516116126E-01 -0.74927755284E-01  0.86405951246E-01  0.14075836894E+00  0.46629771258E-01 0.  0.
         14    1    1    2    0    0 -0.21750127954E-03 -0.51250668812E-02  0.10477438911E-01  0.11665776591E-01  0.00000000000E+00 0. -1.
     999901    1    3    3    0    0  0.67733617405E-01  0.80052822165E-01 -0.96883390157E-01  0.89150585447E+00  0.88000000000E+00 0. -1.
        -11    1    4    4    0    0 -0.29435564035E-01 -0.34976748571E-02  0.17310181925E-01  0.34330593917E-01  0.51100000000E-03 0.  1.
         11    1    4    4    0    0 -0.38080552091E-01 -0.71430080427E-01  0.69095769321E-01  0.10642777502E+00  0.51100000000E-03 0. -1.
</event>
<event>
 8    1  0.1993226E+004  0.1043930E+01  0.7957747E-01            NaN
         13   -1    0    0    0    0  0.00000000000E+00  0.00000000000E+00  0.74505805969E-08  0.10566000000E+00  0.10566000000E+00 0.  1.
     999900   -1    0    0    0    0 -0.00000000000E+00 -0.00000000000E+00 -0.74505805969E-08  0.93827000000E+00  0.93827000000E+00 0.  1.
     999902    2    1    2    0    0 -0.11079822937E-02 -0.82833368269E-02 -0.11954032739E-01  0.10293443841E+01  0.10292410412E+01 0.  0.
     999903    2    3    3    0    0 -0.45190895437E-02  0.11413743506E+00 -0.64666091056E-01  0.13930110301E+00  0.46640301409E-01 0.  0.
         14    1    1    2    0    0  0.11079822937E-02  0.82833368269E-02  0.11954032739E-01  0.14585615944E-01  0.00000000000E+00 0.  1.
     999901    1    3    3    0    0  0.34111072500E-02 -0.12242077189E+00  0.52712058317E-01  0.89004328105E+00  0.88000000000E+00 0. -1.
        -11    1    4    4    0    0  0.18780736881E-01  0.36880460911E-01 -0.31685543667E-01  0.52125994218E-01  0.51100000000E-03 0.  1.
         11    1    4    4    0    0 -0.23299826425E-01  0.77256974148E-01 -0.32980547389E-01  0.87175108792E-01  0.51100000000E-03 0. -1.
</event>
<event>
 8    1  0.1993226E+004  0.1043930E+01  0.7957747E-01            NaN
         13   -1    0    0    0    0  0.00000000000E+00  0.00000000000E+00  0.74505805969E-08  0.10566000000E+00  0.10566000000E+00 0.  1.
     999900   -1    0    0    0    0 -0.00000000000E+00 -0.00000000000E+00 -0.74505805969E-08  0.93827000000E+00  0.93827000000E+00 0. -1.
     999902    2    1    2    0    0  0.73423048523E-02 -0.18861329651E-02 -0.12022241950E-01  0.10297172860E+01  0.10296191955E+01 0.  0.
     999903    2    3    3    0    0  0.11860912619E+00  0.31712755613E-01  0.54622923437E-01  0.13957641572E+00  0.37737095523E-01 0.  0.
         14    1    1    2    0    0 -0.73423048523E-02  0.18861329651E-02  0.12022241950E-01  0.14212714013E-01  0.00000000000E+00 0.  1.
     999901    1    3    3    0    0 -0.11126682133E+00 -0.33598888578E-01 -0.66645165387E-01  0.89014087026E+00  0.88000000000E+00 0. -1.
        -11    1    4    4    0    0  0.58682646582E-01  0.17695848935E-01  0.47648247956E-01  0.77636413709E-01  0.51100000000E-03 0.  1.
         11    1    4    4    0    0  0.59926479604E-01  0.14016906678E-01  0.69746754813E-02  0.61940002015E-01  0.51100000000E-03 0. -1.
</event>
<event>
 8    1  0.1993226E+004  0.1043930E+01  0.7957747E-01            NaN
         13   -1    0    0    0    0  0.00000000000E+00  0.00000000000E+00  0.74505805969E-08  0.10566000000E+00  0.10566000000E+00 0. -1.
     999900   -1    0    0    0    0 -0.00000000000E+00 -0.00000000000E+00 -0.74505805969E-08  0.93827000000E+00  0.93827000000E+00 0.  1.
     999902    2    1    2    0    0  0.38425549199E-02 -0.67839743536E-02 -0.47843214098E-02  0.10347824720E+01  0.10347420390E+01 0.  0.
     999903    2    3    3    0    0  0.19533094868E-01  0.65141155898E-01  0.11779058117E+00  0.14324221824E+00  0.44931059285E-01 0.  0.
         14    1    1    2    0    0 -0.38425549199E-02  0.67839743536E-02  0.47843214098E-02  0.91475279554E-02  0.00000000000E+00 0.  1.
     999901    1    3    3    0    0 -0.15690539949E-01 -0.71925130252E-01 -0.12257490258E+00  0.89154025380E+00  0.88000000000E+00 0.  1.
        -11    1    4    4    0    0  0.12820663120E-01  0.24749296553E-02  0.45476738820E-01  0.47316905798E-01  0.51100000000E-03 0. -1.
         11    1    4    4    0    0  0.67124317485E-02  0.62666226243E-01  0.72313842349E-01  0.95925312445E-01  0.51100000000E-03 0.  1.
</event>
<event>
 8    1  0.1993226E+004  0.1043930E+01  0.7957747E-01            NaN
         13   -1    0    0    0    0  0.00000000000E+00  0.00000000000E+00  0.74505805969E-08  0.10566000000E+00  0.10566000000E+00 0. -1.
     999900   -1    0    0    0    0 -0.00000000000E+00 -0.00000000000E+00 -0.74505805969E-08  0.93827000000E+00  0.93827000000E+00 0. -1.
     999902    2    1    2    0    0  0.21608458702E-02 -0.12086172907E-01  0.75388646825E-02  0.10295223870E+01  0.10294215687E+01 0.  0.
     999903    2    3    3    0    0 -0.11166085717E+00 -0.55588539872E-01  0.47226723218E-01  0.14024011345E+00  0.43343895118E-01 0.  0.
         14    1    1    2    0    0 -0.21608458702E-02  0.12086172907E-01 -0.75388646825E-02  0.14407612957E-01  0.00000000000E+00 0.  1.
     999901    1    3    3    0    0  0.11382170304E+00  0.43502366965E-01 -0.39687858536E-01  0.88928227360E+00  0.88000000000E+00 0. -1.
        -11    1    4    4    0    0 -0.98567239652E-01 -0.58179040878E-01  0.52443549314E-01  0.12590031182E+00  0.51100000000E-03 0.  1.
         11    1    4    4    0    0 -0.13093617522E-01  0.25905010064E-02 -0.52168260956E-02  0.14339801630E-01  0.51100000000E-03 0. -1.
</event>
<event>
 8    1  0.1993226E+004  0.1043930E+01  0.7957747E-01            NaN
         13   -1    0    0    0    0  0.00000000000E+00  0.00000000000E+00  0.74505805969E-08  0.10566000000E+00  0.10566000000E+00 0. -1.
     999900   -1    0    0    0    0 -0.00000000000E+00 -0.00000000000E+00 -0.74505805969E-08  0.93827000000E+00  0.93827000000E+00 0.  1.
     999902    2    1    2    0    0  0.11238029995E-01 -0.70554424989E-02 -0.49851827909E-02  0.10297552113E+01  0.10296576473E+01 0.  0.
     999903    2    3    3    0    0  0.26628838727E-01 -0.10373863220E+00  0.77238980743E-01  0.14051658797E+00  0.48044276322E-01 0.  0.
         14    1    1    2    0    0 -0.11238029995E-01  0.70554424989E-02  0.49851827909E-02  0.14174788693E-01  0.00000000000E+00 0.  1.
     999901    1    3    3    0    0 -0.15390808732E-01  0.96683189696E-01 -0.82224163533E-01  0.88923862334E+00  0.88000000000E+00 0.  1.
        -11    1    4    4    0    0  0.40667602733E-01 -0.72642672813E-01  0.53983558904E-01  0.99223472920E-01  0.51100000000E-03 0. -1.
         11    1    4    4    0    0 -0.14038764006E-01 -0.31095959382E-01  0.23255421839E-01  0.41293115051E-01  0.51100000000E-03 0.  1.
</event>
<event>
 8    1  0.1993226E+004  0.1043930E+01  0.7957747E-01            NaN
         13   -1    0    0    0    0  0.00000000000E+00  0.00000000000E+00  0.74505805969E-08  0.10566000000E+00  0.10566000000E+00 0. -1.
     999900   -1    0    0    0    0 -0.00000000000E+00 -0.00000000000E+00 -0.74505805969E-08  0.93827000000E+00  0.93827000000E+00 0.  1.
     999902    2    1    2    0    0  0.11081024855E-01  0.22049129977E-02 -0.68202534458E-02  0.10307327802E+01  0.10306482900E+01 0.  0.
     999903    2    3    3    0    0 -0.27562308243E-01 -0.23514187379E-01 -0.12855978711E+00  0.14114001193E+00  0.45610155262E-01 0.  0.
         14    1    1    2    0    0 -0.11081024855E-01 -0.22049129977E-02  0.68202534458E-02  0.13197219792E-01  0.00000000000E+00 0. -1.
     999901    1    3    3    0    0  0.38643333098E-01  0.25719100377E-01  0.12173953366E+00  0.88959276828E+00  0.88000000000E+00 0. -1.
        -11    1    4    4    0    0  0.32618039050E-02 -0.29736392897E-02 -0.79704148186E-01  0.79827903984E-01  0.51100000000E-03 0. -1.
         11    1    4    4    0    0 -0.30824112148E-01 -0.20540548090E-01 -0.48855638920E-01  0.61312107946E-01  0.51100000000E-03 0.  1.
</event>
<event>
 8    1  0.1993226E+004  0.1043930E+01  0.7957747E-01            NaN
         13   -1    0    0    0    0  0.00000000000E+00  0.00000000000E+00  0.74505805969E-08  0.10566000000E+00  0.10566000000E+00 0.  1.
     999900   -1    0    0    0    0 -0.00000000000E+00 -0.00000000000E+00 -0.74505805969E-08  0.93827000000E+00  0.93827000000E+00 0.  1.
     999902    2    1    2    0    0 -0.13102612963E-01 -0.31943771684E-02  0.25444613749E-02  0.10302056860E+01  0.10301142648E+01 0.  0.
     999903    2    3    3    0    0  0.10566356233E+00  0.65924990777E-01 -0.39824084822E-01  0.13853423015E+00  0.45769885049E-01 0.  0.
         14    1    1    2    0    0  0.13102612963E-01  0.31943771684E-02 -0.25444613749E-02  0.13724314031E-01  0.00000000000E+00 0. -1.
     999901    1    3    3    0    0 -0.11876617529E+00 -0.69119367945E-01  0.42368546197E-01  0.89167145582E+00  0.88000000000E+00 0. -1.
        -11    1    4    4    0    0  0.71024712936E-01  0.26681490893E-01 -0.57834783604E-02  0.76092848198E-01  0.51100000000E-03 0.  1.
         11    1    4    4    0    0  0.34638849395E-01  0.39243499884E-01 -0.34040606462E-01  0.62441381950E-01  0.51100000000E-03 0. -1.
</event>
<event>
 8    1  0.1993226E+004  0.1043930E+01  0.7957747E-01            NaN
         13   -1    0    0    0    0  0.00000000000E+00  0.00000000000E+00  0.74505805969E-08  0.10566000000E+00  0.10566000000E+00 0. -1.
     999900   -1    0    0    0    0 -0.00000000000E+00 -0.00000000000E+00 -0.74505805969E-08  0.93827000000E+00  0.93827000000E+00 0. -1.
     999902    2    1    2    0    0  0.11383725507E-01 -0.83980032010E-02 -0.47683881945E-05  0.10297837748E+01  0.10296866063E+01 0.  0.
     999903    2    3    3    0    0 -0.98788015347E-01 -0.58141958577E-01  0.64955629081E-01  0.13914797562E+00  0.44758977260E-01 0.  0.
         14    1    1    2    0    0 -0.11383725507E-01  0.83980032010E-02  0.47683881945E-05  0.14146225183E-01  0.00000000000E+00 0. -1.
     999901    1    3    3    0    0  0.11017174085E+00  0.49743955376E-01 -0.64960397469E-01  0.89063579920E+00  0.88000000000E+00 0. -1.
        -11    1    4    4    0    0 -0.17541573879E-01 -0.11887981321E-01  0.35102472016E-01  0.41005799305E-01  0.51100000000E-03 0.  1.
         11    1    4    4    0    0 -0.81246441468E-01 -0.46253977257E-01  0.29853157065E-01  0.98142176311E-01  0.51100000000E-03 0. -1.
</event>
<event>
 8    1  0.1993226E+004  0.1043930E+01  0.7957747E-01            NaN
         13   -1    0    0    0    0  0.00000000000E+00  0.00000000000E+00  0.74505805969E-08  0.10566000000E+00  0.10566000000E+00 0. -1.
     999900   -1    0    0    0    0 -0.00000000000E+00 -0.00000000000E+00 -0.74505805969E-08  0.93827000000E+00  0.93827000000E+00 0.  1.
     999902    2    1    2    0    0  0.67682675549E-02 -0.11988046400E-01 -0.96604059881E-03  0.10301294226E+01  0.10300369757E+01 0.  0.
     999903    2    3    3    0    0 -0.10126001958E+00 -0.75574502437E-01 -0.41368894563E-01  0.14032846799E+00  0.44895395165E-01 0.  0.
         14    1    1    2    0    0 -0.67682675549E-02  0.11988046400E-01  0.96604059881E-03  0.13800577401E-01  0.00000000000E+00 0. -1.
     999901    1    3    3    0    0  0.10802828714E+00  0.63586456038E-01  0.40402853964E-01  0.88980095461E+00  0.88000000000E+00 0.  1.
        -11    1    4    4    0    0 -0.27805049977E-01 -0.13360922423E-01 -0.30619635660E-01  0.43467899204E-01  0.51100000000E-03 0.  1.
         11    1    4    4    0    0 -0.73454969604E-01 -0.62213580014E-01 -0.10749258903E-01  0.96860568787E-01  0.51100000000E-03 0. -1.
</event>
<event>
 8    1  0.1993226E+004  0.1043930E+01  0.7957747E-01            NaN
         13   -1    0    0    0    0  0.00000000000E+00  0.00000000000E+00  0.74505805969E-08  0.10566000000E+00  0.10566000000E+00 0. -1.
     999900   -1    0    0    0    0 -0.00000000000E+00 -0.00000000000E+00 -0.74505805969E-08  0.93827000000E+00  0.93827000000E+00 0. -1.
     999902    2    1    2    0    0  0.20593916954E-02  0.44435289742E-02 -0.12188887466E-01  0.10307939800E+01  0.10307102765E+01 0.  0.
     999903    2    3    3    0    0 -0.72036612126E-01  0.11083558295E+00  0.17685716411E-01  0.14079286826E+00  0.45122580308E-01 0.  0.
         14    1    1    2    0    0 -0.20593916954E-02 -0.44435289742E-02  0.12188887466E-01  0.13136020004E-01  0.00000000000E+00 0. -1.
     999901    1    3    3    0    0  0.74096003821E-01 -0.10639205398E+00 -0.29874603877E-01  0.89000111173E+00  0.88000000000E+00 0. -1.
        -11    1    4    4    0    0 -0.32580594936E-01  0.69752275702E-01  0.29801870226E-01  0.82554755902E-01  0.51100000000E-03 0. -1.
         11    1    4    4    0    0 -0.39456017189E-01  0.41083307248E-01 -0.12116153815E-01  0.58238112359E-01  0.51100000000E-03 0.  1.
</event>
<event>
 8    1  0.1993226E+004  0.1043930E+01  0.7957747E-01            NaN
         13   -1    0    0    0    0  0.00000000000E+00  0.00000000000E+00  0.74505805969E-08  0.10566000000E+00  0.10566000000E+00 0.  1.
     999900   -1    0    0    0    0 -0.00000000000E+00 -0.00000000000E+00 -0.74505805969E-08  0.93827000000E+00  0.93827000000E+00 0.  1.
     999902    2    1    2    0    0  0.99028778135E-02  0.86524898209E-02  0.42579153323E-02  0.10301074672E+01  0.10300147240E+01 0.  0.
     999903    2    3    3    0    0  0.64325998608E-01 -0.10507931413E+00 -0.47078874300E-01  0.13964002523E+00  0.45863055774E-01 0.  0.
         14    1    1    2    0    0 -0.99028778135E-02 -0.86524898209E-02 -0.42579153323E-02  0.13822532766E-01  0.00000000000E+00 0.  1.
     999901    1    3    3    0    0 -0.54423120795E-01  0.11373180395E+00  0.51336789633E-01  0.89046744201E+00  0.88000000000E+00 0. -1.
        -11    1    4    4    0    0  0.25993720091E-02 -0.39563011037E-01 -0.25272366888E-01  0.47020657442E-01  0.51100000000E-03 0.  1.
         11    1    4    4    0    0  0.61726626599E-01 -0.65516303092E-01 -0.21806507413E-01  0.92619367784E-01  0.51100000000E-03 0. -1.
</event>
<event>
 8    1  0.1993226E+004  0.1043930E+01  0.7957747E-01            NaN
         13   -1    0    0    0    0  0.00000000000E+00  0.00000000000E+00  0.74505805969E-08  0.10566000000E+00  0.10566000000E+00 0. -1.
     999900   -1    0    0    0    0 -0.00000000000E+00 -0.00000000000E+00 -0.74505805969E-08  0.93827000000E+00  0.93827000000E+00 0.  1.
     999902    2    1    2    0    0 -0.11916282868E-01 -0.48859883492E-02 -0.22081835243E-02  0.10308629899E+01  0.10307801691E+01 0.  0.
     999903    2    3    3    0    0 -0.44057169556E-02  0.71139955656E-01 -0.11263761951E+00  0.14067704687E+00  0.44972153111E-01 0.  0.
         14    1    1    2    0    0  0.11916282868E-01  0.48859883492E-02  0.22081835243E-02  0.13067010141E-01  0.00000000000E+00 0. -1.
     999901    1    3    3    0    0 -0.75105659126E-02 -0.76025944005E-01  0.11042943598E+00  0.89018594299E+00  0.88000000000E+00 0. -1.
        -11    1    4    4    0    0  0.14502922224E-01  0.43797294410E-01 -0.87769477137E-01  0.99157853892E-01  0.51100000000E-03 0.  1.
         11    1    4    4    0    0 -0.18908639180E-01  0.27342661246E-01 -0.24868142371E-01  0.41519192979E-01  0.51100000000E-03 0. -1.
</event>
<event>
 8    1  0.1993226E+004  0.1043930E+01  0.7957747E-01            NaN
         13   -1    0    0    0    0  0.00000000000E+00  0.00000000000E+00  0.74505805969E-08  0.10566000000E+00  0.10566000000E+00 0.  1.
     999900   -1    0    0    0    0 -0.00000000000E+00 -0.00000000000E+00 -0.74505805969E-08  0.93827000000E+00  0.93827000000E+00 0.  1.
     999902    2    1    2    0    0  0.27010267303E-02 -0.71416573391E-02 -0.10259569713E-01  0.10311410366E+01  0.10310617245E+01 0.  0.
     999903    2    3    3    0    0  0.54134588982E-01  0.10866737909E+00 -0.55533484613E-01  0.14091248635E+00  0.45091106596E-01 0.  0.
         14    1    1    2    0    0 -0.27010267303E-02  0.71416573391E-02  0.10259569713E-01  0.12788963431E-01  0.00000000000E+00 0.  1.
     999901    1    3    3    0    0 -0.51433562251E-01 -0.11580903643E+00  0.45273914900E-01  0.89022855021E+00  0.88000000000E+00 0. -1.
        -11    1    4    4    0    0  0.15316622915E-01  0.34511114833E-01 -0.41382628119E-01  0.56021415687E-01  0.51100000000E-03 0.  1.
         11    1    4    4    0    0  0.38817966067E-01  0.74156264261E-01 -0.14150856495E-01  0.84891070668E-01  0.51100000000E-03 0. -1.
</event>
<event>
 8    1  0.1993226E+004  0.1043930E+01  0.7957747E-01            NaN
         13   -1    0    0    0    0  0.00000000000E+00  0.00000000000E+00  0.74505805969E-08  0.10566000000E+00  0.10566000000E+00 0.  1.
     999900   -1    0    0    0    0 -0.00000000000E+00 -0.00000000000E+00 -0.74505805969E-08  0.93827000000E+00  0.93827000000E+00 0.  1.
     999902    2    1    2    0    0 -0.38065513422E-02  0.30496736990E-03 -0.12317577120E-01  0.10310340493E+01  0.10309533963E+01 0.  0.
     999903    2    3    3    0    0  0.15965420358E-01  0.11439769139E+00 -0.67684652383E-01  0.14172330858E+00  0.46503307241E-01 0.  0.
         14    1    1    2    0    0  0.38065513422E-02 -0.30496736990E-03  0.12317577120E-01  0.12895950695E-01  0.00000000000E+00 0.  1.
     999901    1    3    3    0    0 -0.19771971701E-01 -0.11409272402E+00  0.55367075262E-01  0.88931074072E+00  0.88000000000E+00 0. -1.
        -11    1    4    4    0    0  0.30662152548E-01  0.54461185760E-01 -0.38975213938E-01  0.73658107333E-01  0.51100000000E-03 0.  1.
         11    1    4    4    0    0 -0.14696732190E-01  0.59936505632E-01 -0.28709438445E-01  0.68065201250E-01  0.51100000000E-03 0. -1.
</event>
<event>
 8    1  0.1993226E+004  0.1043930E+01  0.7957747E-01            NaN
         13   -1    0    0    0    0  0.00000000000E+00  0.00000000000E+00  0.74505805969E-08  0.10566000000E+00  0.10566000000E+00 0.  1.
     999900   -1    0    0    0    0 -0.00000000000E+00 -0.00000000000E+00 -0.74505805969E-08  0.93827000000E+00  0.93827000000E+00 0.  1.
     999902    2    1    2    0    0 -0.14497910631E-01  0.51775083129E-02  0.29441743163E-02  0.10282563225E+01  0.10281368589E+01 0.  0.
     999903    2    3    3    0    0 -0.12402260541E+00  0.30407763275E-01 -0.35544575204E-01  0.14027343503E+00  0.45901863022E-01 0.  0.
         14    1    1    2    0    0  0.14497910631E-01 -0.51775083129E-02 -0.29441743163E-02  0.15673677533E-01  0.00000000000E+00 0.  1.
     999901    1    3    3    0    0  0.10952469478E+00 -0.25230254962E-01  0.38488749520E-01  0.88798288743E+00  0.88000000000E+00 0. -1.
        -11    1    4    4    0    0 -0.44328247319E-01  0.34051270138E-01 -0.13562761375E-01  0.57521231954E-01  0.51100000000E-03 0. -1.
         11    1    4    4    0    0 -0.79694358095E-01 -0.36435068634E-02 -0.21981813829E-01  0.82752203081E-01  0.51100000000E-03 0.  1.
</event>
<event>
 8    1  0.1993226E+004  0.1043930E+01  0.7957747E-01            NaN
         13   -1    0    0    0    0  0.00000000000E+00  0.00000000000E+00  0.74505805969E-08  0.10566000000E+00  0.10566000000E+00 0.  1.
     999900   -1    0    0    0    0 -0.00000000000E+00 -0.00000000000E+00 -0.74505805969E-08  0.93827000000E+00  0.93827000000E+00 0. -1.
     999902    2    1    2    0    0  0.63084421505E-02 -0.76109335343E-02 -0.10747855628E-01  0.10293272896E+01  0.10292237025E+01 0.  0.
     999903    2    3    3    0    0  0.90623743926E-01  0.95904243172E-01 -0.16266710614E-02  0.13921063545E+00  0.44347132272E-01 0.  0.
         14    1    1    2    0    0 -0.63084421505E-02  0.76109335343E-02  0.10747855628E-01  0.14602710441E-01  0.00000000000E+00 0.  1.
     999901    1    3    3    0    0 -0.84315301775E-01 -0.10351517671E+00 -0.91211845666E-02  0.89011665411E+00  0.88000000000E+00 0. -1.
        -11    1    4    4    0    0  0.48994239506E-01  0.21210986573E-01 -0.50535369264E-02  0.53629663551E-01  0.51100000000E-03 0. -1.
         11    1    4    4    0    0  0.41629504420E-01  0.74693256599E-01  0.34268658650E-02  0.85580971894E-01  0.51100000000E-03 0.  1.
</event>
<event>
 8    1  0.1993226E+004  0.1043930E+01  0.7957747E-01            NaN
         13   -1    0    0    0    0  0.00000000000E+00  0.00000000000E+00  0.74505805969E-08  0.10566000000E+00  0.10566000000E+00 0. -1.
     999900   -1    0    0    0    0 -0.00000000000E+00 -0.00000000000E+00 -0.74505805969E-08  0.93827000000E+00  0.93827000000E+00 0. -1.
     999902    2    1    2    0    0  0.39861397573E-02 -0.13403965444E-01  0.45042418549E-02  0.10292383767E+01  0.10291335153E+01 0.  0.
     999903    2    3    3    0    0  0.10338749333E+00  0.16245938064E-01 -0.79982040720E-01  0.13912732870E+00  0.44792660934E-01 0.  0.
         14    1    1    2    0    0 -0.39861397573E-02  0.13403965444E-01 -0.45042418549E-02  0.14691623276E-01  0.00000000000E+00 0.  1.
     999901    1    3    3    0    0 -0.99401353570E-01 -0.29649903508E-01  0.84486282575E-01  0.89011104802E+00  0.88000000000E+00 0.  1.
        -11    1    4    4    0    0  0.35700165608E-01 -0.10548078221E-01 -0.10960620819E-01  0.38809278637E-01  0.51100000000E-03 0.  1.
         11    1    4    4    0    0  0.67687327720E-01  0.26794016285E-01 -0.69021419901E-01  0.10031805006E+00  0.51100000000E-03 0. -1.
</event>
<event>
 8    1  0.1993226E+004  0.1043930E+01  0.7957747E-01            NaN
         13   -1    0    0    0    0  0.00000000000E+00  0.00000000000E+00  0.74505805969E-08  0.10566000000E+00  0.10566000000E+00 0.  1.
     999900   -1    0    0    0    0 -0.00000000000E+00 -0.00000000000E+00 -0.74505805969E-08  0.93827000000E+00  0.93827000000E+00 0.  1.
     999902    2    1    2    0    0  0.32791224997E-02 -0.27687699641E-02  0.18211215311E-01  0.10252199200E+01  0.10250491780E+01 0.  0.
     999903    2    3    3    0    0 -0.13609829758E-01 -0.66469894114E-01 -0.10616923659E+00  0.13403331396E+00  0.45711575798E-01 0.  0.
         14    1    1    2    0    0 -0.32791224997E-02  0.27687699641E-02 -0.18211215311E-01  0.18710080026E-01  0.00000000000E+00 0. -1.
     999901    1    3    3    0    0  0.16888952258E-01  0.63701124150E-01  0.12438045191E+00  0.89118660602E+00  0.88000000000E+00 0. -1.
        -11    1    4    4    0    0 -0.29685807169E-01 -0.32519287044E-01 -0.52499209127E-01  0.68521378103E-01  0.51100000000E-03 0.  1.
         11    1    4    4    0    0  0.16075977411E-01 -0.33950607070E-01 -0.53670027467E-01  0.65511935855E-01  0.51100000000E-03 0. -1.
</event>
<event>
 8    1  0.1993226E+004  0.1043930E+01  0.7957747E-01            NaN
         13   -1    0    0    0    0  0.00000000000E+00  0.00000000000E+00  0.74505805969E-08  0.10566000000E+00  0.10566000000E+00 0.  1.
     999900   -1    0    0    0    0 -0.00000000000E+00 -0.00000000000E+00 -0.74505805969E-08  0.93827000000E+00  0.93827000000E+00 0. -1.
     999902    2    1    2    0    0  0.96759286093E-02 -0.86901674034E-02 -0.68642004727E-02  0.10292242239E+01  0.10291191589E+01 0.  0.
     999903    2    3    3    0    0 -0.86595236020E-01  0.11398072511E-01  0.96348532901E-01  0.13775098093E+00  0.45427326534E-01 0.  0.
         14    1    1    2    0    0 -0.96759286093E-02  0.86901674034E-02  0.68642004727E-02  0.14705776147E-01  0.00000000000E+00 0.  1.
     999901    1    3    3    0    0  0.96271164629E-01 -0.20088239914E-01 -0.10321273337E+00  0.89147324293E+00  0.88000000000E+00 0. -1.
        -11    1    4    4    0    0 -0.22259782170E-01 -0.21522711156E-03  0.57598459211E-01  0.61752634353E-01  0.51100000000E-03 0.  1.
         11    1    4    4    0    0 -0.64335453850E-01  0.11613299622E-01  0.38750073689E-01  0.75998346575E-01  0.51100000000E-03 0. -1.
</event>
<event>
 8    1  0.1993226E+004  0.1043930E+01  0.7957747E-01            NaN
         13   -1    0    0    0    0  0.00000000000E+00  0.00000000000E+00  0.74505805969E-08  0.10566000000E+00  0.10566000000E+00 0. -1.
     999900   -1    0    0    0    0 -0.00000000000E+00 -0.00000000000E+00 -0.74505805969E-08  0.93827000000E+00  0.93827000000E+00 0.  1.
     999902    2    1    2    0    0 -0.12047872208E-01 -0.50955886535E-02  0.36342224952E-02  0.10303534091E+01  0.10302639583E+01 0.  0.
     999903    2    3    3    0    0 -0.58863769183E-01 -0.11787469163E+00 -0.25264305866E-01  0.14145185139E+00  0.44843671382E-01 0.  0.
         14    1    1    2    0    0  0.12047872208E-01  0.50955886535E-02 -0.36342224952E-02  0.13576590942E-01  0.00000000000E+00 0.  1.
     999901    1    3    3    0    0  0.46815896976E-01  0.11277910297E+00  0.28898528362E-01  0.88890155766E+00  0.88000000000E+00 0. -1.
        -11    1    4    4    0    0 -0.84448830819E-02  0.14054961789E-02 -0.61408017000E-02  0.10548082115E-01  0.51100000000E-03 0.  1.
         11    1    4    4    0    0 -0.50418886102E-01 -0.11928018781E+00 -0.19123504166E-01  0.13090376928E+00  0.51100000000E-03 0. -1.
</event>
<event>
 8    1  0.1993226E+004  0.1043930E+01  0.7957747E-01            NaN
         13   -1    0    0    0    0  0.00000000000E+00  0.00000000000E+00  0.74505805969E-08  0.10566000000E+00  0.10566000000E+00 0.  1.
     999900   -1    0    0    0    0 -0.00000000000E+00 -0.00000000000E+00 -0.74505805969E-08  0.93827000000E+00  0.93827000000E+00 0.  1.
     999902    2    1    2    0    0 -0.54948854390E-02 -0.10317663963E-01 -0.69815202294E-02  0.10303142158E+01  0.10302242443E+01 0.  0.
     999903    2    3    3    0    0 -0.70407495249E-01 -0.24536961865E-01  0.10981111752E+00  0.14011403851E+00  0.44879665461E-01 0.  0.
         14    1    1    2    0    0  0.54948854390E-02  0.10317663963E-01  0.69815202294E-02  0.13615784235E-01  0.00000000000E+00 0. -1.
     999901    1    3    3    0    0  0.64912609810E-01  0.14219297902E-01 -0.11679263775E+00  0.89020017725E+00  0.88000000000E+00 0.  1.
        -11    1    4    4    0    0 -0.20820650942E-01  0.12138514534E-01  0.20904084466E-01  0.31907442848E-01  0.51100000000E-03 0. -1.
         11    1    4    4    0    0 -0.49586844308E-01 -0.36675476398E-01  0.88907033057E-01  0.10820659567E+00  0.51100000000E-03 0.  1.
</event>
<event>
 8    1  0.1993226E+004  0.1043930E+01  0.7957747E-01            NaN
         13   -1    0    0    0    0  0.00000000000E+00  0.00000000000E+00  0.74505805969E-08  0.10566000000E+00  0.10566000000E+00 0.  1.
     999900   -1    0    0    0    0 -0.00000000000E+00 -0.00000000000E+00 -0.74505805969E-08  0.93827000000E+00  0.93827000000E+00 0. -1.
     999902    2    1    2    0    0  0.15013893067E-02  0.26935817160E-02  0.13289530950E-01  0.10302873762E+01  0.10301970473E+01 0.  0.
     999903    2    3    3    0    0 -0.97315533255E-01 -0.46325009896E-02  0.91310447467E-01  0.14129597064E+00  0.46208012565E-01 0.  0.
         14    1    1    2    0    0 -0.15013893067E-02 -0.26935817160E-02 -0.13289530950E-01  0.13642623838E-01  0.00000000000E+00 0. -1.
     999901    1    3    3    0    0  0.98816922562E-01  0.73260827056E-02 -0.78020916517E-01  0.88899140552E+00  0.88000000000E+00 0. -1.
        -11    1    4    4    0    0 -0.90751776783E-01 -0.12893974315E-01  0.63401686271E-01  0.11145480925E+00  0.51100000000E-03 0. -1.
         11    1    4    4    0    0 -0.65637564720E-02  0.82614733254E-02  0.27908761196E-01  0.29841161389E-01  0.51100000000E-03 0.  1.
</event>
<event>
 8    1  0.1993226E+004  0.1043930E+01  0.7957747E-01            NaN
         13   -1    0    0    0    0  0.00000000000E+00  0.00000000000E+00  0.74505805969E-08  0.10566000000E+00  0.10566000000E+00 0.  1.
     999900   -1    0    0    0    0 -0.00000000000E+00 -0.00000000000E+00 -0.74505805969E-08  0.93827000000E+00  0.93827000000E+00 0. -1.
     999902    2    1    2    0    0  0.38605461209E-02  0.10365524338E-01 -0.87389673019E-02  0.10298332819E+01  0.10297367970E+01 0.  0.
     999903    2    3    3    0    0 -0.32074218749E-01  0.12787322450E+00  0.19916908422E-01  0.14083354843E+00  0.45355132790E-01 0.  0.
         14    1    1    2    0    0 -0.38605461209E-02 -0.10365524338E-01  0.87389673019E-02  0.14096718081E-01  0.00000000000E+00 0. -1.
     999901    1    3    3    0    0  0.35934764870E-01 -0.11750770016E+00 -0.28655875724E-01  0.88899973349E+00  0.88000000000E+00 0.  1.
        -11    1    4    4    0    0 -0.46893874968E-02  0.92580933688E-01  0.24615381859E-01  0.95913491140E-01  0.51100000000E-03 0. -1.
         11    1    4    4    0    0 -0.27384831252E-01  0.35292290814E-01 -0.46984734365E-02  0.44920057293E-01  0.51100000000E-03 0.  1.
</event>
<event>
 8    1  0.1993226E+004  0.1043930E+01  0.7957747E-01            NaN
         13   -1    0    0    0    0  0.00000000000E+00  0.00000000000E+00  0.74505805969E-08  0.10566000000E+00  0.10566000000E+00 0. -1.
     999900   -1    0    0    0    0 -0.00000000000E+00 -0.00000000000E+00 -0.74505805969E-08  0.93827000000E+00  0.93827000000E+00 0.  1.
     999902    2    1    2    0    0 -0.31179008639E-02  0.11741118483E-01  0.90612160605E-02  0.10287747763E+01  0.10286631419E+01 0.  0.
     999903    2    3    3    0    0  0.43308545118E-02  0.13019018887E+00  0.28853040995E-01  0.14058708072E+00  0.44316900999E-01 0.  0.
         14    1    1    2    0    0  0.31179008639E-02 -0.11741118483E-01 -0.90612160605E-02  0.15155223705E-01  0.00000000000E+00 0.  1.
     999901    1    3    3    0    0 -0.74487553756E-02 -0.11844907038E+00 -0.19791824934E-01  0.88818769557E+00  0.88000000000E+00 0.  1.
        -11    1    4    4    0    0 -0.86822992991E-02  0.14400174569E-01  0.16246325352E-01  0.23386995472E-01  0.51100000000E-03 0.  1.
         11    1    4    4    0    0  0.13013153811E-01  0.11579001430E+00  0.12606715643E-01  0.11720008525E+00  0.51100000000E-03 0. -1.
</event>
<event>
 8    1  0.1993226E+004  0.1043930E+01  0.7957747E-01            NaN
         13   -1    0    0    0    0  0.00000000000E+00  0.00000000000E+00  0.74505805969E-08  0.10566000000E+00  0.10566000000E+00 0. -1.
     999900   -1    0    0    0    0 -0.00000000000E+00 -0.00000000000E+00 -0.74505805969E-08  0.93827000000E+00  0.93827000000E+00 0.  1.
     999902    2    1    2    0    0  0.86990697572E-02 -0.81549646059E-02 -0.54644773497E-02  0.10308136829E+01  0.10307302319E+01 0.  0.
     999903    2    3    3    0    0  0.24625887306E-01 -0.13001623744E+00  0.22806537518E-01  0.14182375963E+00  0.45641914058E-01 0.  0.
         14    1    1    2    0    0 -0.86990697572E-02  0.81549646059E-02  0.54644773497E-02  0.13116317131E-01  0.00000000000E+00 0. -1.
     999901    1    3    3    0    0 -0.15926817549E-01  0.12186127284E+00 -0.28271014868E-01  0.88898992324E+00  0.88000000000E+00 0. -1.
        -11    1    4    4    0    0  0.29347454730E-01 -0.41492235106E-01  0.25552346958E-02  0.50888790697E-01  0.51100000000E-03 0. -1.
         11    1    4    4    0    0 -0.47215674243E-02 -0.88524002335E-01  0.20251302822E-01  0.90934968936E-01  0.51100000000E-03 0.  1.
</event>
<event>
 7    1  0.1993226E+004  0.1043930E+01  0.7957747E-01            NaN
         13   -1    0    0    0    0  0.00000000000E+00  0.00000000000E+00  0.74505805969E-08  0.10566000000E+00  0.10566000000E+00 0. -1.
     999900   -1    0    0    0    0 -0.00000000000E+00 -0.00000000000E+00 -0.74505805969E-08  0.93827000000E+00  0.93827000000E+00 0. -1.
     999903    2    1    2    0    0  0.18989910995E-01  0.84810972035E-01 -0.69740243566E-01  0.12042995026E+00  0.45674431032E-01 0.  0.
         14    1    1    2    0    0  0.18557906032E-01 -0.32026933634E-01  0.13241207292E-01  0.39312210887E-01  0.00000000000E+00 0. -1.
     999901    1    1    2    0    0 -0.37547817027E-01 -0.52784038401E-01  0.56499036274E-01  0.88418783885E+00  0.88000000000E+00 0.  1.
        -11    1    3    3    0    0  0.29376217447E-01  0.81414270316E-01 -0.66078309013E-01  0.10889375375E+00  0.51100000000E-03 0. -1.
         11    1    3    3    0    0 -0.10386306452E-01  0.33967017187E-02 -0.36619345532E-02  0.11536196512E-01  0.51100000000E-03 0.  1.
</event>
<event>
 8    1  0.1993226E+004  0.1043930E+01  0.7957747E-01            NaN
         13   -1    0    0    0    0  0.00000000000E+00  0.00000000000E+00  0.74505805969E-08  0.10566000000E+00  0.10566000000E+00 0.  1.
     999900   -1    0    0    0    0 -0.00000000000E+00 -0.00000000000E+00 -0.74505805969E-08  0.93827000000E+00  0.93827000000E+00 0. -1.
     999902    2    1    2    0    0  0.13717709841E-01  0.41220559242E-02 -0.31435327400E-02  0.10292654609E+01  0.10291609885E+01 0.  0.
     999903    2    3    3    0    0  0.31037505207E-01 -0.22836246072E-01 -0.12692893929E+00  0.14002446308E+00  0.44844997126E-01 0.  0.
         14    1    1    2    0    0 -0.13717709841E-01 -0.41220559242E-02  0.31435327400E-02  0.14664539080E-01  0.00000000000E+00 0. -1.
     999901    1    3    3    0    0 -0.17319795365E-01  0.26958301996E-01  0.12378540655E+00  0.88924099784E+00  0.88000000000E+00 0.  1.
        -11    1    4    4    0    0  0.18706927698E-03 -0.69773094459E-02 -0.86368450690E-01  0.86651533383E-01  0.51100000000E-03 0. -1.
         11    1    4    4    0    0  0.30850435930E-01 -0.15858936626E-01 -0.40560488605E-01  0.53372929701E-01  0.51100000000E-03 0.  1.
</event>
<event>
 8    1  0.1993226E+004  0.1043930E+01  0.7957747E-01            NaN
         13   -1    0    0    0    0  0.00000000000E+00  0.00000000000E+00  0.74505805969E-08  0.10566000000E+00  0.10566000000E+00 0. -1.
     999900   -1    0    0    0    0 -0.00000000000E+00 -0.00000000000E+00 -0.74505805969E-08  0.93827000000E+00  0.93827000000E+00 0.  1.
     999902    2    1    2    0    0  0.74650186999E-02 -0.11350780714E-01 -0.20723518013E-02  0.10301873158E+01  0.10300956481E+01 0.  0.
     999903    2    3    3    0    0 -0.10555803993E+00 -0.51154258257E-01  0.61542010537E-01  0.13979115919E+00  0.44664204862E-01 0.  0.
         14    1    1    2    0    0 -0.74650186999E-02  0.11350780714E-01  0.20723518013E-02  0.13742684199E-01  0.00000000000E+00 0.  1.
     999901    1    3    3    0    0  0.11302305863E+00  0.39803477542E-01 -0.63614362339E-01  0.89039615661E+00  0.88000000000E+00 0.  1.
        -11    1    4    4    0    0 -0.28883598220E-01 -0.35501184982E-01  0.12534668196E-01  0.47454982974E-01  0.51100000000E-03 0.  1.
         11    1    4    4    0    0 -0.76674441709E-01 -0.15653073274E-01  0.49007342341E-01  0.92336176219E-01  0.51100000000E-03 0. -1.
</event>
<event>
 8    1  0.1993226E+004  0.1043930E+01  0.7957747E-01            NaN
         13   -1    0    0    0    0  0.00000000000E+00  0.00000000000E+00  0.74505805969E-08  0.10566000000E+00  0.10566000000E+00 0. -1.
     999900   -1    0    0    0    0 -0.00000000000E+00 -0.00000000000E+00 -0.74505805969E-08  0.93827000000E+00  0.93827000000E+00 0.  1.
     999902    2    1    2    0    0 -0.66261226696E-02  0.36671050147E-02 -0.12315021201E-01  0.10294727213E+01  0.10293712017E+01 0.  0.
     999903    2    3    3    0    0  0.94626578122E-01  0.93000219724E-02 -0.92472222550E-01  0.14002962805E+00  0.44905512935E-01 0.  0.
         14    1    1    2    0    0  0.66261226696E-02 -0.36671050147E-02  0.12315021201E-01  0.14457278720E-01  0.00000000000E+00 0. -1.
     999901    1    3    3    0    0 -0.10125270079E+00 -0.56329169577E-02  0.80157201349E-01  0.88944309323E+00  0.88000000000E+00 0. -1.
        -11    1    4    4    0    0  0.27708933446E-01 -0.15723874667E-01 -0.41232579678E-01  0.52109614997E-01  0.51100000000E-03 0. -1.
         11    1    4    4    0    0  0.66917644676E-01  0.25023896640E-01 -0.51239642872E-01  0.87920013050E-01  0.51100000000E-03 0.  1.
</event>
<event>
 8    1  0.1993226E+004  0.1043930E+01  0.7957747E-01            NaN
         13   -1    0    0    0    0  0.00000000000E+00  0.00000000000E+00  0.74505805969E-08  0.10566000000E+00  0.10566000000E+00 0. -1.
     999900   -1    0    0    0    0 -0.00000000000E+00 -0.00000000000E+00 -0.74505805969E-08  0.93827000000E+00  0.93827000000E+00 0. -1.
     999902    2    1    2    0    0 -0.69028644648E-02 -0.12349990806E-01 -0.11515390102E-02  0.10297350061E+01  0.10296371618E+01 0.  0.
     999903    2    3    3    0    0  0.12221367150E+00  0.22363873081E-01  0.42737574487E-01  0.13855467275E+00  0.43983778224E-01 0.  0.
         14    1    1    2    0    0  0.69028644648E-02  0.12349990806E-01  0.11515390102E-02  0.14194993935E-01  0.00000000000E+00 0. -1.
     999901    1    3    3    0    0 -0.12911653597E+00 -0.34713863887E-01 -0.43889113497E-01  0.89118033332E+00  0.88000000000E+00 0. -1.
        -11    1    4    4    0    0  0.46159672349E-01  0.14801551342E-01 -0.45301825505E-02  0.48688653180E-01  0.51100000000E-03 0.  1.
         11    1    4    4    0    0  0.76053999151E-01  0.75623217393E-02  0.47267757037E-01  0.89866019569E-01  0.51100000000E-03 0. -1.
</event>
<event>
 7    1  0.1993226E+004  0.1043930E+01  0.7957747E-01            NaN
         13   -1    0    0    0    0  0.00000000000E+00  0.00000000000E+00  0.74505805969E-08  0.10566000000E+00  0.10566000000E+00 0.  1.
     999900   -1    0    0    0    0 -0.00000000000E+00 -0.00000000000E+00 -0.74505805969E-08  0.93827000000E+00  0.93827000000E+00 0.  1.
     999902    2    1    2    0    0  0.23126737872E-02  0.12809030491E-01  0.83834278205E-03  0.10308868968E+01  0.10308043808E+01 0.  0.
         14    1    1    2    0    0 -0.23126737872E-02 -0.12809030491E-01 -0.83834278205E-03  0.13043103189E-01  0.00000000000E+00 0. -1.
     999901    1    3    3    0    0 -0.17437177217E-01 -0.26260691152E-01  0.87836243292E-01  0.88493439570E+00  0.88000000000E+00 0. -1.
        -11    1    3    3    0    0  0.51250852457E-01 -0.28136132329E-02 -0.77087738194E-01  0.92613966538E-01  0.51100000000E-03 0.  1.
         11    1    3    3    0    0 -0.31501001453E-01  0.41883334876E-01 -0.99101623159E-02  0.53338534578E-01  0.51100000000E-03 0. -1.
</event>
<event>
 8    1  0.1993226E+004  0.1043930E+01  0.7957747E-01            NaN
         13   -1    0    0    0    0  0.00000000000E+00  0.00000000000E+00  0.74505805969E-08  0.10566000000E+00  0.10566000000E+00 0.  1.
     999900   -1    0    0    0    0 -0.00000000000E+00 -0.00000000000E+00 -0.74505805969E-08  0.93827000000E+00  0.93827000000E+00 0.  1.
     999902    2    1    2    0    0 -0.88945802276E-03 -0.79711977703E-02 -0.89053460290E-02  0.10319451630E+01  0.10318755657E+01 0.  0.
     999903    2    3    3    0    0  0.83905648815E-01 -0.84287737674E-01  0.63552138609E-01  0.14162807822E+00  0.43301935225E-01 0.  0.
         14    1    1    2    0    0  0.88945802276E-03  0.79711977703E-02  0.89053460290E-02  0.11984836977E-01  0.00000000000E+00 0. -1.
     999901    1    3    3    0    0 -0.84795106838E-01  0.76316539903E-01 -0.72457484638E-01  0.89031708480E+00  0.88000000000E+00 0. -1.
        -11    1    4    4    0    0  0.21792808216E-01 -0.50215563641E-03  0.15741145493E-01  0.26892813774E-01  0.51100000000E-03 0.  1.
         11    1    4    4    0    0  0.62112840599E-01 -0.83785582037E-01  0.47810993116E-01  0.11473526445E+00  0.51100000000E-03 0. -1.
</event>
<event>
 8    1  0.1993226E+004  0.1043930E+01  0.7957747E-01            NaN
         13   -1    0    0    0    0  0.00000000000E+00  0.00000000000E+00  0.74505805969E-08  0.10566000000E+00  0.10566000000E+00 0. -1.
     999900   -1    0    0    0    0 -0.00000000000E+00 -0.00000000000E+00 -0.74505805969E-08  0.93827000000E+00  0.93827000000E+00 0. -1.
     999902    2    1    2    0    0 -0.21171397311E-02 -0.14167621402E-01  0.14909075817E-01  0.10232543061E+01  0.10230454001E+01 0.  0.
     999903    2    3    3    0    0  0.95557289765E-01  0.23691513335E-01  0.79493026021E-01  0.13469103041E+00  0.46152454506E-01 0.  0.
         14    1    1    2    0    0  0.21171397311E-02  0.14167621402E-01 -0.14909075817E-01  0.20675693907E-01  0.00000000000E+00 0.  1.
     999901    1    3    3    0    0 -0.97674429496E-01 -0.37859134737E-01 -0.64583950204E-01  0.88856327568E+00  0.88000000000E+00 0.  1.
        -11    1    4    4    0    0  0.44914942028E-01 -0.79648480463E-02  0.51290894453E-01  0.68642609191E-01  0.51100000000E-03 0.  1.
         11    1    4    4    0    0  0.50642347737E-01  0.31656361381E-01  0.28202131568E-01  0.66048421224E-01  0.51100000000E-03 0. -1.
</event>
<event>
 8    1  0.1993226E+004  0.1043930E+01  0.7957747E-01            NaN
         13   -1    0    0    0    0  0.00000000000E+00  0.00000000000E+00  0.74505805969E-08  0.10566000000E+00  0.10566000000E+00 0. -1.
     999900   -1    0    0    0    0 -0.00000000000E+00 -0.00000000000E+00 -0.74505805969E-08  0.93827000000E+00  0.93827000000E+00 0.  1.
     999902    2    1    2    0    0  0.75414045494E-02 -0.92646135479E-02  0.62058731348E-02  0.10304682502E+01  0.10303803162E+01 0.  0.
     999903    2    3    3    0    0 -0.86691049803E-01  0.23817124139E-02 -0.98723496929E-01  0.13916271050E+00  0.45813976894E-01 0.  0.
         14    1    1    2    0    0 -0.75414045494E-02  0.92646135479E-02 -0.62058731348E-02  0.13461749817E-01  0.00000000000E+00 0. -1.
     999901    1    3    3    0    0  0.94232454352E-01 -0.11646325962E-01  0.10492937006E+00  0.89130553968E+00  0.88000000000E+00 0.  1.
        -11    1    4    4    0    0 -0.68240902186E-01  0.19147167629E-01 -0.85093670228E-01  0.11074578364E+00  0.51100000000E-03 0. -1.
         11    1    4    4    0    0 -0.18450147617E-01 -0.16765455215E-01 -0.13629826700E-01  0.28416926867E-01  0.51100000000E-03 0.  1.
</event>
<event>
 8    1  0.1993226E+004  0.1043930E+01  0.7957747E-01            NaN
         13   -1    0    0    0    0  0.00000000000E+00  0.00000000000E+00  0.74505805969E-08  0.10566000000E+00  0.10566000000E+00 0.  1.
     999900   -1    0    0    0    0 -0.00000000000E+00 -0.00000000000E+00 -0.74505805969E-08  0.93827000000E+00  0.93827000000E+00 0. -1.
     999902    2    1    2    0    0  0.50883853307E-02  0.59787302807E-02 -0.11218345135E-01  0.10302373688E+01  0.10301463721E+01 0.  0.
     999903    2    3    3    0    0 -0.10756328205E+00  0.66968045382E-01  0.37245533538E-01  0.13964271228E+00  0.45368255175E-01 0.  0.
         14    1    1    2    0    0 -0.50883853307E-02 -0.59787302807E-02  0.11218345135E-01  0.13692631179E-01  0.00000000000E+00 0. -1.
     999901    1    3    3    0    0  0.11265166738E+00 -0.60989315101E-01 -0.48463878673E-01  0.89059465654E+00  0.88000000000E+00 0. -1.
        -11    1    4    4    0    0 -0.59042465199E-01  0.12707003163E-01  0.69421318557E-02  0.60794201548E-01  0.51100000000E-03 0. -1.
         11    1    4    4    0    0 -0.48520816850E-01  0.54261042219E-01  0.30303401682E-01  0.78848510734E-01  0.51100000000E-03 0.  1.
</event>
<event>
 8    1  0.1993226E+004  0.1043930E+01  0.7957747E-01            NaN
         13   -1    0    0    0    0  0.00000000000E+00  0.00000000000E+00  0.74505805969E-08  0.10566000000E+00  0.10566000000E+00 0.  1.
     999900   -1    0    0    0    0 -0.00000000000E+00 -0.00000000000E+00 -0.74505805969E-08  0.93827000000E+00  0.93827000000E+00 0. -1.
     999902    2    1    2    0    0  0.11881506465E-01 -0.39172886776E-02 -0.48385815548E-02  0.10305163048E+01  0.10304290016E+01 0.  0.
     999903    2    3    3    0    0 -0.11166392500E+00  0.16483924973E-01 -0.69897651369E-01  0.13927426941E+00  0.42084302570E-01 0.  0.
         14    1    1    2    0    0 -0.11881506465E-01  0.39172886776E-02  0.48385815548E-02  0.13413695163E-01  0.00000000000E+00 0. -1.
     999901    1    3    3    0    0  0.12354543146E+00 -0.20401213650E-01  0.65059069814E-01  0.89124203543E+00  0.88000000000E+00 0.  1.
        -11    1    4    4    0    0 -0.20294500061E-01  0.34198980213E-03  0.39545065280E-02  0.20685331340E-01  0.51100000000E-03 0.  1.
         11    1    4    4    0    0 -0.91369424939E-01  0.16141935170E-01 -0.73852157897E-01  0.11858893807E+00  0.51100000000E-03 0. -1.
</event>
<event>
 8    1  0.1993226E+004  0.1043930E+01  0.7957747E-01            NaN
         13   -1    0    0    0    0  0.00000000000E+00  0.00000000000E+00  0.74505805969E-08  0.10566000000E+00  0.10566000000E+00 0.  1.
     999900   -1    0    0    0    0 -0.00000000000E+00 -0.00000000000E+00 -0.74505805969E-08  0.93827000000E+00  0.93827000000E+00 0. -1.
     999902    2    1    2    0    0  0.11514492871E-01 -0.49557822114E-02 -0.53360944555E-02  0.10303058587E+01  0.10302157760E+01 0.  0.
     999903    2    3    3    0    0  0.11171420912E+00 -0.33171114865E-01 -0.67783253661E-01  0.14197273655E+00  0.44511808175E-01 0.  0.
         14    1    1    2    0    0 -0.11514492871E-01  0.49557822114E-02  0.53360944555E-02  0.13624141347E-01  0.00000000000E+00 0. -1.
     999901    1    3    3    0    0 -0.10019971624E+00  0.28215332654E-01  0.62447159206E-01  0.88833312210E+00  0.88000000000E+00 0.  1.
        -11    1    4    4    0    0  0.85943582440E-01 -0.43337354808E-01 -0.45753174671E-01  0.10657410472E+00  0.51100000000E-03 0.  1.
         11    1    4    4    0    0  0.25770626676E-01  0.10166239943E-01 -0.22030078990E-01  0.35398631826E-01  0.51100000000E-03 0. -1.
</event>
<event>
 8    1  0.1993226E+004  0.1043930E+01  0.7957747E-01            NaN
         13   -1    0    0    0    0  0.00000000000E+00  0.00000000000E+00  0.74505805969E-08  0.10566000000E+00  0.10566000000E+00 0.  1.
     999900   -1    0    0    0    0 -0.00000000000E+00 -0.00000000000E+00 -0.74505805969E-08  0.93827000000E+00  0.93827000000E+00 0.  1.
     999902    2    1    2    0    0 -0.75118368608E-02 -0.11309743701E-01  0.59448971498E-02  0.10291084010E+01  0.10290016624E+01 0.  0.
     999903    2    3    3    0    0 -0.73016829061E-01  0.10571987860E+00 -0.24569586524E-01  0.13842441088E+00  0.45271435664E-01 0.  0.
         14    1    1    2    0    0  0.75118368608E-02  0.11309743701E-01 -0.59448971498E-02  0.14821599027E-01  0.00000000000E+00 0.  1.
     999901    1    3    3    0    0  0.65504992200E-01 -0.11702962230E+00  0.30514483674E-01  0.89068399010E+00  0.88000000000E+00 0. -1.
        -11    1    4    4    0    0 -0.69145627735E-01  0.71992478758E-01 -0.29561841878E-01  0.10410666861E+00  0.51100000000E-03 0. -1.
         11    1    4    4    0    0 -0.38712013264E-02  0.33727399843E-01  0.49922553538E-02  0.34317742268E-01  0.51100000000E-03 0.  1.
</event>
<event>
 8    1  0.1993226E+004  0.1043930E+01  0.7957747E-01            NaN
         13   -1    0    0    0    0  0.00000000000E+00  0.00000000000E+00  0.74505805969E-08  0.10566000000E+00  0.10566000000E+00 0.  1.
     999900   -1    0    0    0    0 -0.00000000000E+00 -0.00000000000E+00 -0.74505805969E-08  0.93827000000E+00  0.93827000000E+00 0.  1.
     999902    2    1    2    0    0 -0.15961262365E-01  0.82368623585E-02  0.29066793885E-02  0.10257350396E+01  0.10255736516E+01 0.  0.
     999903    2    3    3    0    0 -0.76536533425E-01  0.83137826790E-02  0.10495940389E+00  0.13776875201E+00  0.45130839045E-01 0.  0.
         14    1    1    2    0    0  0.15961262365E-01 -0.82368623585E-02 -0.29066793885E-02  0.18194960370E-01  0.00000000000E+00 0. -1.
     999901    1    3    3    0    0  0.60575271061E-01 -0.76920320428E-04 -0.10205272450E+00  0.88796628763E+00  0.88000000000E+00 0.  1.
        -11    1    4    4    0    0 -0.19858074423E-01  0.96300407287E-02  0.64344879355E-01  0.68026505308E-01  0.51100000000E-03 0. -1.
         11    1    4    4    0    0 -0.56678459002E-01 -0.13162580498E-02  0.40614524535E-01  0.69742246697E-01  0.51100000000E-03 0.  1.
</event>
<event>
 8    1  0.1993226E+004  0.1043930E+01  0.7957747E-01            NaN
         13   -1    0    0    0    0  0.00000000000E+00  0.00000000000E+00  0.74505805969E-08  0.10566000000E+00  0.10566000000E+00 0. -1.
     999900   -1    0    0    0    0 -0.00000000000E+00 -0.00000000000E+00 -0.74505805969E-08  0.93827000000E+00  0.93827000000E+00 0. -1.
     999902    2    1    2    0    0  0.18949425605E-02 -0.10426143204E-01 -0.97479444041E-02  0.10295314692E+01  0.10294307788E+01 0.  0.
     999903    2    3    3    0    0 -0.14624330545E-01  0.11840366214E+00  0.52922829404E-01  0.13779292510E+00  0.44190112951E-01 0.  0.
         14    1    1    2    0    0 -0.18949425605E-02  0.10426143204E-01  0.97479444041E-02  0.14398530811E-01  0.00000000000E+00 0.  1.
     999901    1    3    3    0    0  0.16519273105E-01 -0.12882980534E+00 -0.62670773808E-01  0.89173854409E+00  0.88000000000E+00 0. -1.
        -11    1    4    4    0    0 -0.10427853796E-01  0.39035313509E-01  0.40746174200E-01  0.57384733758E-01  0.51100000000E-03 0.  1.
         11    1    4    4    0    0 -0.41964767489E-02  0.79368348631E-01  0.12176655204E-01  0.80408191339E-01  0.51100000000E-03 0. -1.
</event>
<event>
 8    1  0.1993226E+004  0.1043930E+01  0.7957747E-01            NaN
         13   -1    0    0    0    0  0.00000000000E+00  0.00000000000E+00  0.74505805969E-08  0.10566000000E+00  0.10566000000E+00 0.  1.
     999900   -1    0    0    0    0 -0.00000000000E+00 -0.00000000000E+00 -0.74505805969E-08  0.93827000000E+00  0.93827000000E+00 0.  1.
     999902    2    1    2    0    0  0.40953666411E-02  0.82264062982E-02  0.62168264849E-02  0.10328351940E+01  0.10327756016E+01 0.  0.
     999903    2    3    3    0    0 -0.25815731751E-01 -0.93417991257E-01  0.93665574839E-01  0.14217614535E+00  0.45248682861E-01 0.  0.
         14    1    1    2    0    0 -0.40953666411E-02 -0.82264062982E-02 -0.62168264849E-02  0.11094805994E-01  0.00000000000E+00 0. -1.
     999901    1    3    3    0    0  0.29911098392E-01  0.10164439756E+00 -0.87448748354E-01  0.89065904865E+00  0.88000000000E+00 0.  1.
        -11    1    4    4    0    0 -0.14449347360E-01 -0.10513755849E-01  0.18886138756E-02  0.17976392423E-01  0.51100000000E-03 0.  1.
         11    1    4    4    0    0 -0.11366384391E-01 -0.82904235409E-01  0.91776960963E-01  0.12419975293E+00  0.51100000000E-03 0. -1.
</event>
<event>
 8    1  0.1993226E+004  0.1043930E+01  0.7957747E-01            NaN
         13   -1    0    0    0    0  0.00000000000E+00  0.00000000000E+00  0.74505805969E-08  0.10566000000E+00  0.10566000000E+00 0.  1.
     999900   -1    0    0    0    0 -0.00000000000E+00 -0.00000000000E+00 -0.74505805969E-08  0.93827000000E+00  0.93827000000E+00 0.  1.
     999902    2    1    2    0    0 -0.68576097095E-02  0.69717944736E-02 -0.70015690842E-02  0.10319027518E+01  0.10318326582E+01 0.  0.
     999903    2    3    3    0    0  0.32082413983E-01 -0.12923973316E+00  0.21956830116E-02  0.14052488854E+00  0.44835626013E-01 0.  0.
         14    1    1    2    0    0  0.68576097095E-02 -0.69717944736E-02  0.70015690842E-02  0.12027248179E-01  0.00000000000E+00 0.  1.
     999901    1    3    3    0    0 -0.38940023693E-01  0.13621152764E+00 -0.91972520958E-02  0.89137786328E+00  0.88000000000E+00 0.  1.
        -11    1    4    4    0    0  0.28680184429E-01 -0.11778589791E+00 -0.12164119902E-01  0.12183717684E+00  0.51100000000E-03 0. -1.
         11    1    4    4    0    0  0.34022295537E-02 -0.11453835250E-01  0.14359802914E-01  0.18687711700E-01  0.51100000000E-03 0.  1.
</event>
<event>
 8    1  0.1993226E+004  0.1043930E+01  0.7957747E-01            NaN
         13   -1    0    0    0    0  0.00000000000E+00  0.00000000000E+00  0.74505805969E-08  0.10566000000E+00  0.10566000000E+00 0. -1.
     999900   -1    0    0    0    0 -0.00000000000E+00 -0.00000000000E+00 -0.74505805969E-08  0.93827000000E+00  0.93827000000E+00 0.  1.
     999902    2    1    2    0    0  0.11535767762E-01 -0.87951227517E-02 -0.86563890306E-02  0.10270373628E+01  0.10268984289E+01 0.  0.
     999903    2    3    3    0    0  0.11733731330E+00 -0.94077907274E-02  0.57185470344E-01  0.13825758528E+00  0.44591818205E-01 0.  0.
         14    1    1    2    0    0 -0.11535767762E-01  0.87951227517E-02  0.86563890306E-02  0.16892637246E-01  0.00000000000E+00 0. -1.
     999901    1    3    3    0    0 -0.10580154554E+00  0.61266797569E-03 -0.65841859375E-01  0.88877977747E+00  0.88000000000E+00 0.  1.
        -11    1    4    4    0    0  0.25447463030E-01 -0.19249774162E-01  0.24495286100E-01  0.40229433778E-01  0.51100000000E-03 0. -1.
         11    1    4    4    0    0  0.91889850268E-01  0.98419834345E-02  0.32690184244E-01  0.98028151503E-01  0.51100000000E-03 0.  1.
</event>
<event>
 8    1  0.1993226E+004  0.1043930E+01  0.7957747E-01            NaN
         13   -1    0    0    0    0  0.00000000000E+00  0.00000000000E+00  0.74505805969E-08  0.10566000000E+00  0.10566000000E+00 0.  1.
     999900   -1    0    0    0    0 -0.00000000000E+00 -0.00000000000E+00 -0.74505805969E-08  0.93827000000E+00  0.93827000000E+00 0. -1.
     999902    2    1    2    0    0  0.73938349171E-02 -0.48404195816E-02 -0.10387069785E-01  0.10302921968E+01  0.10302019322E+01 0.  0.
     999903    2    3    3    0    0  0.86041258533E-01  0.10067046338E+00 -0.80229865453E-02  0.14050370929E+00  0.46252390689E-01 0.  0.
         14    1    1    2    0    0 -0.73938349171E-02  0.48404195816E-02  0.10387069785E-01  0.13637803167E-01  0.00000000000E+00 0.  1.
     999901    1    3    3    0    0 -0.78647423615E-01 -0.10551088297E+00 -0.23640832402E-02  0.88978848754E+00  0.88000000000E+00 0.  1.
        -11    1    4    4    0    0  0.12764560385E-01  0.12473357451E-01  0.15271611884E-01  0.23494720651E-01  0.51100000000E-03 0.  1.
         11    1    4    4    0    0  0.73276698147E-01  0.88197105934E-01 -0.23294598429E-01  0.11700898864E+00  0.51100000000E-03 0. -1.
</event>
<event>
 8    1  0.1993226E+004  0.1043930E+01  0.7957747E-01            NaN
         13   -1    0    0    0    0  0.00000000000E+00  0.00000000000E+00  0.74505805969E-08  0.10566000000E+00  0.10566000000E+00 0. -1.
     999900   -1    0    0    0    0 -0.00000000000E+00 -0.00000000000E+00 -0.74505805969E-08  0.93827000000E+00  0.93827000000E+00 0. -1.
     999902    2    1    2    0    0  0.40439580697E-02  0.18892545803E-01  0.69088017292E-02  0.10234113883E+01  0.10232056765E+01 0.  0.
     999903    2    3    3    0    0 -0.81091005433E-01  0.15999264655E-01  0.96459465905E-01  0.13477442390E+00  0.45033200456E-01 0.  0.
         14    1    1    2    0    0 -0.40439580697E-02 -0.18892545803E-01 -0.69088017292E-02  0.20518611676E-01  0.00000000000E+00 0. -1.
     999901    1    3    3    0    0  0.85134963503E-01  0.28932811480E-02 -0.89550664176E-01  0.88863696442E+00  0.88000000000E+00 0. -1.
        -11    1    4    4    0    0 -0.40236760750E-01  0.30029927956E-01  0.60070667637E-01  0.78291377048E-01  0.51100000000E-03 0. -1.
         11    1    4    4    0    0 -0.40854244683E-01 -0.14030663302E-01  0.36388798268E-01  0.56483046853E-01  0.51100000000E-03 0.  1.
</event>
<event>
 8    1  0.1993226E+004  0.1043930E+01  0.7957747E-01            NaN
         13   -1    0    0    0    0  0.00000000000E+00  0.00000000000E+00  0.74505805969E-08  0.10566000000E+00  0.10566000000E+00 0.  1.
     999900   -1    0    0    0    0 -0.00000000000E+00 -0.00000000000E+00 -0.74505805969E-08  0.93827000000E+00  0.93827000000E+00 0. -1.
     999902    2    1    2    0    0  0.31539573945E-02 -0.22505395274E-02 -0.13452656588E-01  0.10299304877E+01  0.10298353379E+01 0.  0.
     999903    2    3    3    0    0 -0.37426425269E-01  0.14829885214E-01  0.12429470860E+00  0.13812734519E+00  0.44825507252E-01 0.  0.
         14    1    1    2    0    0 -0.31539573945E-02  0.22505395274E-02  0.13452656588E-01  0.13999512302E-01  0.00000000000E+00 0.  1.
     999901    1    3    3    0    0  0.40580382664E-01 -0.17080424741E-01 -0.13774736519E+00  0.89180314251E+00  0.88000000000E+00 0. -1.
        -11    1    4    4    0    0 -0.30515347789E-01 -0.17741997204E-02  0.32630506044E-01  0.44714038970E-01  0.51100000000E-03 0. -1.
         11    1    4    4    0    0 -0.69110774805E-02  0.16604084934E-01  0.91664202555E-01  0.93413306223E-01  0.51100000000E-03 0.  1.
</event>
<event>
 8    1  0.1993226E+004  0.1043930E+01  0.7957747E-01            NaN
         13   -1    0    0    0    0  0.00000000000E+00  0.00000000000E+00  0.74505805969E-08  0.10566000000E+00  0.10566000000E+00 0. -1.
     999900   -1    0    0    0    0 -0.00000000000E+00 -0.00000000000E+00 -0.74505805969E-08  0.93827000000E+00  0.93827000000E+00 0. -1.
     999902    2    1    2    0    0  0.13308213220E-01  0.17243490803E-02  0.96496719745E-03  0.10304758898E+01  0.10303880562E+01 0.  0.
     999903    2    3    3    0    0 -0.76454977808E-01  0.10708821821E+00  0.46713862054E-02  0.13964890723E+00  0.46548311778E-01 0.  0.
         14    1    1    2    0    0 -0.13308213220E-01 -0.17243490803E-02 -0.96496719745E-03  0.13454110173E-01  0.00000000000E+00 0.  1.
     999901    1    3    3    0    0  0.89763191028E-01 -0.10536386913E+00 -0.37064190080E-02  0.89082698260E+00  0.88000000000E+00 0.  1.
        -11    1    4    4    0    0 -0.80010872879E-01  0.91910320338E-01 -0.37641243374E-02  0.12191667858E+00  0.51100000000E-03 0. -1.
         11    1    4    4    0    0  0.35558950706E-02  0.15177897875E-01  0.84355105428E-02  0.17732228647E-01  0.51100000000E-03 0.  1.
</event>
<event>
 8    1  0.1993226E+004  0.1043930E+01  0.7957747E-01            NaN
         13   -1    0    0    0    0  0.00000000000E+00  0.00000000000E+00  0.74505805969E-08  0.10566000000E+00  0.10566000000E+00 0. -1.
     999900   -1    0    0    0    0 -0.00000000000E+00 -0.00000000000E+00 -0.74505805969E-08  0.93827000000E+00  0.93827000000E+00 0.  1.
     999902    2    1    2    0    0 -0.10916482864E-01  0.14095205647E-02 -0.79912744124E-02  0.10303279114E+01  0.10302381221E+01 0.  0.
     999903    2    3    3    0    0 -0.55829502755E-01  0.65037140324E-01 -0.10367193383E+00  0.14172201346E+00  0.44614977691E-01 0.  0.
         14    1    1    2    0    0  0.10916482864E-01 -0.14095205647E-02  0.79912744124E-02  0.13602088556E-01  0.00000000000E+00 0. -1.
     999901    1    3    3    0    0  0.44913019891E-01 -0.63627619760E-01  0.95680659419E-01  0.88860589799E+00  0.88000000000E+00 0. -1.
        -11    1    4    4    0    0 -0.20029239301E-01  0.51714624362E-01 -0.77954388867E-01  0.95669852433E-01  0.51100000000E-03 0.  1.
         11    1    4    4    0    0 -0.35800263454E-01  0.13322515962E-01 -0.25717544964E-01  0.46052161023E-01  0.51100000000E-03 0. -1.
</event>
<event>
 8    1  0.1993226E+004  0.1043930E+01  0.7957747E-01            NaN
         13   -1    0    0    0    0  0.00000000000E+00  0.00000000000E+00  0.74505805969E-08  0.10566000000E+00  0.10566000000E+00 0.  1.
     999900   -1    0    0    0    0 -0.00000000000E+00 -0.00000000000E+00 -0.74505805969E-08  0.93827000000E+00  0.93827000000E+00 0. -1.
     999902    2    1    2    0    0 -0.58957031557E-02 -0.11316962673E-01 -0.75771096655E-03  0.10311469219E+01  0.10310676833E+01 0.  0.
     999903    2    3    3    0    0 -0.78247920384E-02  0.12935446288E+00 -0.26809928452E-01  0.13959160147E+00  0.44421149222E-01 0.  0.
         14    1    1    2    0    0  0.58957031557E-02  0.11316962673E-01  0.75771096655E-03  0.12783078101E-01  0.00000000000E+00 0. -1.
     999901    1    3    3    0    0  0.19290888827E-02 -0.14067142556E+00  0.26052217485E-01  0.89155532043E+00  0.88000000000E+00 0.  1.
        -11    1    4    4    0    0  0.72532079230E-02  0.59178366753E-01 -0.31920609659E-01  0.67630426279E-01  0.51100000000E-03 0. -1.
         11    1    4    4    0    0 -0.15077999961E-01  0.70176096132E-01  0.51106812074E-02  0.71961175189E-01  0.51100000000E-03 0.  1.
</event>
<event>
 7    1  0.1993226E+004  0.1043930E+01  0.7957747E-01            NaN
         13   -1    0    0    0    0  0.00000000000E+00  0.00000000000E+00  0.74505805969E-08  0.10566000000E+00  0.10566000000E+00 0.  1.
     999900   -1    0    0    0    0 -0.00000000000E+00 -0.00000000000E+00 -0.74505805969E-08  0.93827000000E+00  0.93827000000E+00 0.  1.
     999903    2    1    2    0    0  0.97268573320E-02  0.76718326395E-01 -0.80326070462E-01  0.12017230063E+00  0.44819536871E-01 0.  0.
         14    1    1    2    0    0  0.16778289107E-01 -0.18729989336E-01 -0.24668411457E-01  0.35225757759E-01  0.00000000000E+00 0. -1.
     999901    1    1    2    0    0 -0.26505146439E-01 -0.57988337058E-01  0.10499448192E+00  0.88853194161E+00  0.88000000000E+00 0. -1.
        -11    1    3    3    0    0 -0.11134389990E-01  0.32925982131E-01 -0.55982308967E-01  0.65896699296E-01  0.51100000000E-03 0. -1.
         11    1    3    3    0    0  0.20861247322E-01  0.43792344263E-01 -0.24343761495E-01  0.54275601338E-01  0.51100000000E-03 0.  1.
</event>
<event>
 7    1  0.1993226E+004  0.1043930E+01  0.7957747E-01            NaN
         13   -1    0    0    0    0  0.00000000000E+00  0.00000000000E+00  0.74505805969E-08  0.10566000000E+00  0.10566000000E+00 0. -1.
     999900   -1    0    0    0    0 -0.00000000000E+00 -0.00000000000E+00 -0.74505805969E-08  0.93827000000E+00  0.93827000000E+00 0.  1.
     999902    2    1    2    0    0  0.13251672011E-01 -0.25832604720E-02  0.37119729736E-02  0.10299279005E+01  0.10298327153E+01 0.  0.
         14    1    1    2    0    0 -0.13251672011E-01  0.25832604720E-02 -0.37119729736E-02  0.14002099454E-01  0.00000000000E+00 0.  1.
     999901    1    3    3    0    0  0.84599445053E-01  0.85283812450E-01 -0.71949514018E-01  0.89107077572E+00  0.88000000000E+00 0.  1.
        -11    1    3    3    0    0 -0.26757906983E-02 -0.17679966550E-01  0.15705568586E-01  0.23804770083E-01  0.51100000000E-03 0. -1.
         11    1    3    3    0    0 -0.68671982343E-01 -0.70187106373E-01  0.59955918405E-01  0.11505235475E+00  0.51100000000E-03 0.  1.
</event>
<event>
 8    1  0.1993226E+004  0.1043930E+01  0.7957747E-01            NaN
         13   -1    0    0    0    0  0.00000000000E+00  0.00000000000E+00  0.74505805969E-08  0.10566000000E+00  0.10566000000E+00 0. -1.
     999900   -1    0    0    0    0 -0.00000000000E+00 -0.00000000000E+00 -0.74505805969E-08  0.93827000000E+00  0.93827000000E+00 0. -1.
     999902    2    1    2    0    0 -0.99990388525E-02  0.88049883149E-02  0.16839312657E-02  0.10305007699E+01  0.10304132630E+01 0.  0.
     999903    2    3    3    0    0  0.72344626136E-01 -0.10376768655E+00 -0.23532097019E-01  0.13915968232E+00  0.53011129865E-01 0.  0.
         14    1    1    2    0    0  0.99990388525E-02 -0.88049883149E-02 -0.16839312657E-02  0.13429230123E-01  0.00000000000E+00 0.  1.
     999901    1    3    3    0    0 -0.82343664989E-01  0.11257267487E+00  0.25216028285E-01  0.89134108756E+00  0.88000000000E+00 0. -1.
        -11    1    4    4    0    0  0.28007163347E-01 -0.27836321089E-01  0.16181558781E-01  0.42677464031E-01  0.51100000000E-03 0. -1.
         11    1    4    4    0    0  0.44337462789E-01 -0.75931365461E-01 -0.39713655799E-01  0.96482218286E-01  0.51100000000E-03 0.  1.
</event>
<event>
 8    1  0.1993226E+004  0.1043930E+01  0.7957747E-01            NaN
         13   -1    0    0    0    0  0.00000000000E+00  0.00000000000E+00  0.74505805969E-08  0.10566000000E+00  0.10566000000E+00 0. -1.
     999900   -1    0    0    0    0 -0.00000000000E+00 -0.00000000000E+00 -0.74505805969E-08  0.93827000000E+00  0.93827000000E+00 0.  1.
     999902    2    1    2    0    0 -0.19076245038E-02 -0.12988514697E-01  0.21665588426E-02  0.10306245679E+01  0.10305386773E+01 0.  0.
     999903    2    3    3    0    0  0.10923448896E+00 -0.60843723712E-01  0.47656524024E-01  0.14117978193E+00  0.45016155430E-01 0.  0.
         14    1    1    2    0    0  0.19076245038E-02  0.12988514697E-01 -0.21665588426E-02  0.13305432068E-01  0.00000000000E+00 0.  1.
     999901    1    3    3    0    0 -0.11114211347E+00  0.47855209015E-01 -0.45489965181E-01  0.88944478600E+00  0.88000000000E+00 0.  1.
        -11    1    4    4    0    0  0.18886029279E-01 -0.31374451997E-01  0.48283738380E-02  0.36940663975E-01  0.51100000000E-03 0.  1.
         11    1    4    4    0    0  0.90348459683E-01 -0.29469271716E-01  0.42828150186E-01  0.10423911795E+00  0.51100000000E-03 0. -1.
</event>
<event>
 8    1  0.1993226E+004  0.1043930E+01  0.7957747E-01            NaN
         13   -1    0    0    0    0  0.00000000000E+00  0.00000000000E+00  0.74505805969E-08  0.10566000000E+00  0.10566000000E+00 0. -1.
     999900   -1    0    0    0    0 -0.00000000000E+00 -0.00000000000E+00 -0.74505805969E-08  0.93827000000E+00  0.93827000000E+00 0.  1.
     999902    2    1    2    0    0 -0.59249215007E-02  0.12806911436E-01 -0.10698981911E-02  0.10297784504E+01  0.10296812082E+01 0.  0.
     999903    2    3    3    0    0 -0.33363619852E-01  0.12589088478E+00 -0.31228181886E-01  0.14160595063E+00  0.45993476800E-01 0.  0.
         14    1    1    2    0    0  0.59249215007E-02 -0.12806911436E-01  0.10698981911E-02  0.14151549649E-01  0.00000000000E+00 0.  1.
     999901    1    3    3    0    0  0.27438698352E-01 -0.11308397334E+00  0.30158283695E-01  0.88817249973E+00  0.88000000000E+00 0. -1.
        -11    1    4    4    0    0 -0.39961341785E-01  0.92629647825E-01 -0.36504792597E-01  0.10728476824E+00  0.51100000000E-03 0.  1.
         11    1    4    4    0    0  0.65977219328E-02  0.33261236956E-01  0.52766107107E-02  0.34321182382E-01  0.51100000000E-03 0. -1.
</event>
<event>
 8    1  0.1993226E+004  0.1043930E+01  0.7957747E-01            NaN
         13   -1    0    0    0    0  0.00000000000E+00  0.00000000000E+00  0.74505805969E-08  0.10566000000E+00  0.10566000000E+00 0. -1.
     999900   -1    0    0    0    0 -0.00000000000E+00 -0.00000000000E+00 -0.74505805969E-08  0.93827000000E+00  0.93827000000E+00 0.  1.
     999902    2    1    2    0    0 -0.17177888867E-01 -0.59141182032E-03 -0.43388180551E-02  0.10262027617E+01  0.10260496349E+01 0.  0.
     999903    2    3    3    0    0 -0.77018135992E-01  0.36721959749E-01 -0.99143759254E-01  0.13830574084E+00  0.44929915973E-01 0.  0.
         14    1    1    2    0    0  0.17177888867E-01  0.59141182032E-03  0.43388180551E-02  0.17727238250E-01  0.00000000000E+00 0. -1.
     999901    1    3    3    0    0  0.59840247125E-01 -0.37313371570E-01  0.94804941199E-01  0.88789702091E+00  0.88000000000E+00 0. -1.
        -11    1    4    4    0    0 -0.47531131090E-01  0.37749718324E-01 -0.87695096960E-01  0.10665336754E+00  0.51100000000E-03 0.  1.
         11    1    4    4    0    0 -0.29487004902E-01 -0.10277585743E-02 -0.11448662295E-01  0.31652373293E-01  0.51100000000E-03 0. -1.
</event>
<event>
 8    1  0.1993226E+004  0.1043930E+01  0.7957747E-01            NaN
         13   -1    0    0    0    0  0.00000000000E+00  0.00000000000E+00  0.74505805969E-08  0.10566000000E+00  0.10566000000E+00 0. -1.
     999900   -1    0    0    0    0 -0.00000000000E+00 -0.00000000000E+00 -0.74505805969E-08  0.93827000000E+00  0.93827000000E+00 0.  1.
     999902    2    1    2    0    0  0.38666655177E-02  0.51274609501E-02  0.10467538016E-01  0.10316494744E+01  0.10315763794E+01 0.  0.
     999903    2    3    3    0    0 -0.10835211791E+00  0.65480291573E-01 -0.41819500271E-01  0.14093658352E+00  0.45677127005E-01 0.  0.
         14    1    1    2    0    0 -0.38666655177E-02 -0.51274609501E-02 -0.10467538016E-01  0.12280525645E-01  0.00000000000E+00 0.  1.
     999901    1    3    3    0    0  0.11221878343E+00 -0.60352830623E-01  0.52287038286E-01  0.89071289083E+00  0.88000000000E+00 0. -1.
        -11    1    4    4    0    0 -0.66831682199E-01  0.33419528864E-01 -0.14434194513E-02  0.74737428614E-01  0.51100000000E-03 0.  1.
         11    1    4    4    0    0 -0.41520435715E-01  0.32060762709E-01 -0.40376080820E-01  0.66199154910E-01  0.51100000000E-03 0. -1.
</event>
<event>
 8    1  0.1993226E+004  0.1043930E+01  0.7957747E-01            NaN
         13   -1    0    0    0    0  0.00000000000E+00  0.00000000000E+00  0.74505805969E-08  0.10566000000E+00  0.10566000000E+00 0.  1.
     999900   -1    0    0    0    0 -0.00000000000E+00 -0.00000000000E+00 -0.74505805969E-08  0.93827000000E+00  0.93827000000E+00 0.  1.
     999902    2    1    2    0    0  0.12033490006E-01 -0.65836912520E-02  0.15389135862E-02  0.10301271696E+01  0.10300346923E+01 0.  0.
     999903    2    3    3    0    0 -0.25199195468E-01  0.56159810011E-02 -0.12950385851E+00  0.13956144322E+00  0.45162023533E-01 0.  0.
         14    1    1    2    0    0 -0.12033490006E-01  0.65836912520E-02 -0.15389135862E-02  0.13802830407E-01  0.00000000000E+00 0.  1.
     999901    1    3    3    0    0  0.37232685473E-01 -0.12199672253E-01  0.13104277210E+00  0.89056572637E+00  0.88000000000E+00 0. -1.
        -11    1    4    4    0    0  0.64688648462E-02  0.46752263432E-02 -0.82427957076E-01  0.82815054081E-01  0.51100000000E-03 0. -1.
         11    1    4    4    0    0 -0.31668060314E-01  0.94075465789E-03 -0.47075901436E-01  0.56746389139E-01  0.51100000000E-03 0.  1.
</event>
<event>
 8    1  0.1993226E+004  0.1043930E+01  0.7957747E-01            NaN
         13   -1    0    0    0    0  0.00000000000E+00  0.00000000000E+00  0.74505805969E-08  0.10566000000E+00  0.10566000000E+00 0. -1.
     999900   -1    0    0    0    0 -0.00000000000E+00 -0.00000000000E+00 -0.74505805969E-08  0.93827000000E+00  0.93827000000E+00 0.  1.
     999902    2    1    2    0    0 -0.14984861921E-02  0.10014598432E-01 -0.15033415646E-01  0.10258042937E+01  0.10256441428E+01 0.  0.
     999903    2    3    3    0    0 -0.64088419202E-01 -0.10745873539E+00  0.21640113713E-01  0.13503921153E+00  0.45962907240E-01 0.  0.
         14    1    1    2    0    0  0.14984861921E-02 -0.10014598432E-01  0.15033415646E-01  0.18125706293E-01  0.00000000000E+00 0. -1.
     999901    1    3    3    0    0  0.62589933009E-01  0.11747333382E+00 -0.36673529360E-01  0.89076508218E+00  0.88000000000E+00 0.  1.
        -11    1    4    4    0    0 -0.41209525465E-01 -0.35671971647E-01 -0.58835437556E-02  0.54823277523E-01  0.51100000000E-03 0.  1.
         11    1    4    4    0    0 -0.22878893737E-01 -0.71786763741E-01  0.27523657469E-01  0.80215934006E-01  0.51100000000E-03 0. -1.
</event>
<event>
 8    1  0.1993226E+004  0.1043930E+01  0.7957747E-01            NaN
         13   -1    0    0    0    0  0.00000000000E+00  0.00000000000E+00  0.74505805969E-08  0.10566000000E+00  0.10566000000E+00 0.  1.
     999900   -1    0    0    0    0 -0.00000000000E+00 -0.00000000000E+00 -0.74505805969E-08  0.93827000000E+00  0.93827000000E+00 0.  1.
     999902    2    1    2    0    0  0.70833904138E-02 -0.29131256929E-02  0.84173605132E-02  0.10325496363E+01  0.10324869194E+01 0.  0.
     999903    2    3    3    0    0  0.66782959453E-01  0.49923275206E-01 -0.10518110268E+00  0.14167347502E+00  0.45343269445E-01 0.  0.
         14    1    1    2    0    0 -0.70833904138E-02  0.29131256929E-02 -0.84173605132E-02  0.11380363749E-01  0.00000000000E+00 0.  1.
     999901    1    3    3    0    0 -0.59699569039E-01 -0.52836400899E-01  0.11359846319E+00  0.89087616123E+00  0.88000000000E+00 0. -1.
        -11    1    4    4    0    0  0.35409156534E-01  0.47216765364E-01 -0.87530344262E-01  0.10557013586E+00  0.51100000000E-03 0.  1.
         11    1    4    4    0    0  0.31373802918E-01  0.27065098427E-02 -0.17650758417E-01  0.36103339164E-01  0.51100000000E-03 0. -1.
</event>
<event>
 8    1  0.1993226E+004  0.1043930E+01  0.7957747E-01            NaN
         13   -1    0    0    0    0  0.00000000000E+00  0.00000000000E+00  0.74505805969E-08  0.10566000000E+00  0.10566000000E+00 0.  1.
     999900   -1    0    0    0    0 -0.00000000000E+00 -0.00000000000E+00 -0.74505805969E-08  0.93827000000E+00  0.93827000000E+00 0.  1.
     999902    2    1    2    0    0  0.74617676829E-02  0.10380317325E-01 -0.17175395562E-02  0.10310312052E+01  0.10309505164E+01 0.  0.
     999903    2    3    3    0    0 -0.17251004582E-01 -0.29348096724E-01 -0.12896638228E+00  0.14064851448E+00  0.44618033651E-01 0.  0.
         14    1    1    2    0    0 -0.74617676829E-02 -0.10380317325E-01  0.17175395562E-02  0.12898794783E-01  0.00000000000E+00 0.  1.
     999901    1    3    3    0    0  0.24712772265E-01  0.39728414049E-01  0.12724884272E+00  0.89038269074E+00  0.88000000000E+00 0. -1.
        -11    1    4    4    0    0 -0.27466386945E-01 -0.30480044308E-01 -0.72981408150E-01  0.83725638662E-01  0.51100000000E-03 0. -1.
         11    1    4    4    0    0  0.10215382363E-01  0.11319475838E-02 -0.55984974126E-01  0.56922875815E-01  0.51100000000E-03 0.  1.
</event>
<event>
 8    1  0.1993226E+004  0.1043930E+01  0.7957747E-01            NaN
         13   -1    0    0    0    0  0.00000000000E+00  0.00000000000E+00  0.74505805969E-08  0.10566000000E+00  0.10566000000E+00 0.  1.
     999900   -1    0    0    0    0 -0.00000000000E+00 -0.00000000000E+00 -0.74505805969E-08  0.93827000000E+00  0.93827000000E+00 0.  1.
     999902    2    1    2    0    0  0.22867960449E-04  0.11093294423E-01  0.18170176539E-01  0.10226411057E+01  0.10224194903E+01 0.  0.
     999903    2    3    3    0    0 -0.12483273358E+00 -0.31699736683E-02 -0.10129518418E-01  0.13326310128E+00  0.45422317352E-01 0.  0.
         14    1    1    2    0    0 -0.22867960449E-04 -0.11093294423E-01 -0.18170176539E-01  0.21288894278E-01  0.00000000000E+00 0. -1.
     999901    1    3    3    0    0  0.12485560154E+00  0.14263268092E-01  0.28299694958E-01  0.88937800444E+00  0.88000000000E+00 0. -1.
        -11    1    4    4    0    0 -0.11445500212E+00  0.11340546171E-01 -0.94283111065E-02  0.11540238156E+00  0.51100000000E-03 0. -1.
         11    1    4    4    0    0 -0.10377731453E-01 -0.14510519840E-01 -0.70120731187E-03  0.17860719717E-01  0.51100000000E-03 0.  1.
</event>
<event>
 8    1  0.1993226E+004  0.1043930E+01  0.7957747E-01            NaN
         13   -1    0    0    0    0  0.00000000000E+00  0.00000000000E+00  0.74505805969E-08  0.10566000000E+00  0.10566000000E+00 0.  1.
     999900   -1    0    0    0    0 -0.00000000000E+00 -0.00000000000E+00 -0.74505805969E-08  0.93827000000E+00  0.93827000000E+00 0. -1.
     999902    2    1    2    0    0  0.61548417320E-02 -0.91572456356E-02 -0.77557804510E-02  0.10304433638E+01  0.10303551023E+01 0.  0.
     999903    2    3    3    0    0  0.91677035185E-01 -0.29588748434E-01 -0.94276918426E-01  0.14183917795E+00  0.44159282586E-01 0.  0.
         14    1    1    2    0    0 -0.61548417320E-02  0.91572456356E-02  0.77557804510E-02  0.13486636155E-01  0.00000000000E+00 0.  1.
     999901    1    3    3    0    0 -0.85522193453E-01  0.20431502798E-01  0.86521137975E-01  0.88860418590E+00  0.88000000000E+00 0.  1.
        -11    1    4    4    0    0  0.57712065902E-01 -0.39301050023E-01 -0.54049185594E-01  0.88299664030E-01  0.51100000000E-03 0.  1.
         11    1    4    4    0    0  0.33964969283E-01  0.97123015890E-02 -0.40227732832E-01  0.53539513916E-01  0.51100000000E-03 0. -1.
</event>
<event>
 8    1  0.1993226E+004  0.1043930E+01  0.7957747E-01            NaN
         13   -1    0    0    0    0  0.00000000000E+00  0.00000000000E+00  0.74505805969E-08  0.10566000000E+00  0.10566000000E+00 0.  1.
     999900   -1    0    0    0    0 -0.00000000000E+00 -0.00000000000E+00 -0.74505805969E-08  0.93827000000E+00  0.93827000000E+00 0.  1.
     999902    2    1    2    0    0  0.35917737075E-02  0.99389764012E-02  0.74670011284E-02  0.10309901315E+01  0.10309089247E+01 0.  0.
     999903    2    3    3    0    0  0.85935534900E-01  0.87584347730E-01  0.56391440837E-01  0.14239410436E+00  0.45168044354E-01 0.  0.
         14    1    1    2    0    0 -0.35917737075E-02 -0.99389764012E-02 -0.74670011284E-02  0.12939868474E-01  0.00000000000E+00 0.  1.
     999901    1    3    3    0    0 -0.82343761192E-01 -0.77645371329E-01 -0.48924439709E-01  0.88859602717E+00  0.88000000000E+00 0.  1.
        -11    1    4    4    0    0 -0.31194034225E-02  0.14069735298E-01  0.11695200253E-01  0.18566824150E-01  0.51100000000E-03 0. -1.
         11    1    4    4    0    0  0.89054938322E-01  0.73514612432E-01  0.44696240585E-01  0.12382728021E+00  0.51100000000E-03 0.  1.
</event>
<event>
 7    1  0.2653416E+004  0.1043930E+01  0.7957747E-01            NaN
         13   -1    0    0    0    0  0.00000000000E+00  0.00000000000E+00  0.74505805969E-08  0.10566000000E+00  0.10566000000E+00 0. -1.
     999900   -1    0    0    0    0 -0.00000000000E+00 -0.00000000000E+00 -0.74505805969E-08  0.93827000000E+00  0.93827000000E+00 0. -1.
     999903    2    1    2    0    0  0.31891279480E-01 -0.22087233933E-01  0.10607425744E+00  0.12155527916E+00  0.44933708844E-01 0.  0.
         14    1    1    2    0    0  0.15026095228E-01  0.31310712134E-01 -0.79762566873E-02  0.35633760717E-01  0.00000000000E+00 0.  1.
     999901    1    1    2    0    0 -0.46917374708E-01 -0.92234782012E-02 -0.98098000757E-01  0.88674096012E+00  0.88000000000E+00 0. -1.
        -11    1    3    3    0    0  0.18546753139E-01 -0.33188500166E-01  0.49759303394E-01  0.62623541823E-01  0.51100000000E-03 0.  1.
         11    1    3    3    0    0  0.13344526342E-01  0.11101266233E-01  0.56314954051E-01  0.58931737341E-01  0.51100000000E-03 0. -1.
</event>
<event>
 8    1  0.1993226E+004  0.1043930E+01  0.7957747E-01            NaN
         13   -1    0    0    0    0  0.00000000000E+00  0.00000000000E+00  0.74505805969E-08  0.10566000000E+00  0.10566000000E+00 0.  1.
     999900   -1    0    0    0    0 -0.00000000000E+00 -0.00000000000E+00 -0.74505805969E-08  0.93827000000E+00  0.93827000000E+00 0. -1.
     999902    2    1    2    0    0 -0.62362056468E-02 -0.11471973760E-01 -0.52595010053E-02  0.10298531114E+01  0.10297568996E+01 0.  0.
     999903    2    3    3    0    0 -0.65653863274E-01 -0.10885831410E+00 -0.42730360840E-01  0.14169849495E+00  0.45738576963E-01 0.  0.
         14    1    1    2    0    0  0.62362056468E-02  0.11471973760E-01  0.52595010053E-02  0.14076888635E-01  0.00000000000E+00 0. -1.
     999901    1    3    3    0    0  0.59417657627E-01  0.97386340339E-01  0.37470859835E-01  0.88815461641E+00  0.88000000000E+00 0.  1.
        -11    1    4    4    0    0 -0.55603164163E-01 -0.72047556970E-01 -0.10249280292E-01  0.91585321956E-01  0.51100000000E-03 0. -1.
         11    1    4    4    0    0 -0.10050699111E-01 -0.36810757128E-01 -0.32481080549E-01  0.50113172995E-01  0.51100000000E-03 0.  1.
</event>
<event>
 8    1  0.1993226E+004  0.1043930E+01  0.7957747E-01            NaN
         13   -1    0    0    0    0  0.00000000000E+00  0.00000000000E+00  0.74505805969E-08  0.10566000000E+00  0.10566000000E+00 0. -1.
     999900   -1    0    0    0    0 -0.00000000000E+00 -0.00000000000E+00 -0.74505805969E-08  0.93827000000E+00  0.93827000000E+00 0. -1.
     999902    2    1    2    0    0 -0.53681230670E-02 -0.12401518424E-01  0.32446336731E-04  0.10304164713E+01  0.10303278551E+01 0.  0.
     999903    2    3    3    0    0  0.12300220265E+00 -0.47350429726E-01  0.16488011157E-01  0.14026415147E+00  0.45061875511E-01 0.  0.
         14    1    1    2    0    0  0.53681230670E-02  0.12401518424E-01 -0.32446336731E-04  0.13513528675E-01  0.00000000000E+00 0.  1.
     999901    1    3    3    0    0 -0.12837032572E+00  0.34948911302E-01 -0.16455564820E-01  0.89015231985E+00  0.88000000000E+00 0. -1.
        -11    1    4    4    0    0  0.10656115713E+00 -0.27693492056E-01  0.25639623172E-01  0.11304804779E+00  0.51100000000E-03 0. -1.
         11    1    4    4    0    0  0.16441045519E-01 -0.19656937669E-01 -0.91516120149E-02  0.27216103684E-01  0.51100000000E-03 0.  1.
</event>
<event>
 8    1  0.1993226E+004  0.1043930E+01  0.7957747E-01            NaN
         13   -1    0    0    0    0  0.00000000000E+00  0.00000000000E+00  0.74505805969E-08  0.10566000000E+00  0.10566000000E+00 0. -1.
     999900   -1    0    0    0    0 -0.00000000000E+00 -0.00000000000E+00 -0.74505805969E-08  0.93827000000E+00  0.93827000000E+00 0.  1.
     999902    2    1    2    0    0  0.85607061570E-02  0.11143782956E-01 -0.35001396773E-03  0.10298732544E+01  0.10297773196E+01 0.  0.
     999903    2    3    3    0    0  0.58018378496E-01  0.10542024690E+00  0.59125666889E-01  0.14146373751E+00  0.45128525838E-01 0.  0.
         14    1    1    2    0    0 -0.85607061570E-02 -0.11143782956E-01  0.35001396773E-03  0.14056745649E-01  0.00000000000E+00 0.  1.
     999901    1    3    3    0    0 -0.49457672339E-01 -0.94276463945E-01 -0.59475680856E-01  0.88840951684E+00  0.88000000000E+00 0. -1.
        -11    1    4    4    0    0  0.49071168890E-01  0.69139180534E-01  0.19506330558E-01  0.86999792839E-01  0.51100000000E-03 0. -1.
         11    1    4    4    0    0  0.89472096058E-02  0.36281066366E-01  0.39619336331E-01  0.54463944667E-01  0.51100000000E-03 0.  1.
</event>
<event>
 8    1  0.1993226E+004  0.1043930E+01  0.7957747E-01            NaN
         13   -1    0    0    0    0  0.00000000000E+00  0.00000000000E+00  0.74505805969E-08  0.10566000000E+00  0.10566000000E+00 0.  1.
     999900   -1    0    0    0    0 -0.00000000000E+00 -0.00000000000E+00 -0.74505805969E-08  0.93827000000E+00  0.93827000000E+00 0.  1.
     999902    2    1    2    0    0 -0.87826618650E-02 -0.53495308116E-02 -0.73783843771E-02  0.10312732553E+01  0.10311955847E+01 0.  0.
     999903    2    3    3    0    0 -0.10433755362E+00 -0.66193354630E-02 -0.85629010880E-01  0.14264762534E+00  0.45671400396E-01 0.  0.
         14    1    1    2    0    0  0.87826618650E-02  0.53495308116E-02  0.73783843771E-02  0.12656744659E-01  0.00000000000E+00 0.  1.
     999901    1    3    3    0    0  0.95554891756E-01  0.12698046513E-02  0.78250626503E-01  0.88862563000E+00  0.88000000000E+00 0. -1.
        -11    1    4    4    0    0 -0.41243541071E-01 -0.45434011307E-04 -0.62986908832E-01  0.75290394802E-01  0.51100000000E-03 0. -1.
         11    1    4    4    0    0 -0.63094012550E-01 -0.65739014516E-02 -0.22642102048E-01  0.67357230540E-01  0.51100000000E-03 0.  1.
</event>
<event>
 8    1  0.1993226E+004  0.1043930E+01  0.7957747E-01            NaN
         13   -1    0    0    0    0  0.00000000000E+00  0.00000000000E+00  0.74505805969E-08  0.10566000000E+00  0.10566000000E+00 0.  1.
     999900   -1    0    0    0    0 -0.00000000000E+00 -0.00000000000E+00 -0.74505805969E-08  0.93827000000E+00  0.93827000000E+00 0.  1.
     999902    2    1    2    0    0  0.27127466805E-03  0.60611541891E-02  0.11877060386E-01  0.10305929935E+01  0.10305066921E+01 0.  0.
     999903    2    3    3    0    0 -0.47225504204E-01  0.12131643138E+00 -0.29287169413E-01  0.14085470793E+00  0.45104164815E-01 0.  0.
         14    1    1    2    0    0 -0.27127466805E-03 -0.60611541891E-02 -0.11877060386E-01  0.13337006540E-01  0.00000000000E+00 0. -1.
     999901    1    3    3    0    0  0.47496778872E-01 -0.11525527719E+00  0.41164229799E-01  0.88973828553E+00  0.88000000000E+00 0.  1.
        -11    1    4    4    0    0 -0.27233861829E-01  0.52392850559E-01  0.86461282714E-02  0.59680069327E-01  0.51100000000E-03 0. -1.
         11    1    4    4    0    0 -0.19991642375E-01  0.68923580821E-01 -0.37933297685E-01  0.81174638602E-01  0.51100000000E-03 0.  1.
</event>
<event>
 7    1  0.1993226E+004  0.1043930E+01  0.7957747E-01            NaN
         13   -1    0    0    0    0  0.00000000000E+00  0.00000000000E+00  0.74505805969E-08  0.10566000000E+00  0.10566000000E+00 0. -1.
     999900   -1    0    0    0    0 -0.00000000000E+00 -0.00000000000E+00 -0.74505805969E-08  0.93827000000E+00  0.93827000000E+00 0. -1.
     999903    2    1    2    0    0 -0.10420273832E-01  0.37294920064E-01  0.97217676767E-01  0.11384361615E+00  0.44828552194E-01 0.  0.
         14    1    1    2    0    0  0.22106663195E-01 -0.14740194037E-01 -0.39793842010E-01  0.47849009810E-01  0.00000000000E+00 0.  1.
     999901    1    1    2    0    0 -0.11686389363E-01 -0.22554726027E-01 -0.57423834757E-01  0.88223737404E+00  0.88000000000E+00 0. -1.
        -11    1    3    3    0    0 -0.20053870787E-01  0.15804434834E-01  0.81791062879E-01  0.85685337030E-01  0.51100000000E-03 0.  1.
         11    1    3    3    0    0  0.96335969552E-02  0.21490485230E-01  0.15426613888E-01  0.28158279116E-01  0.51100000000E-03 0. -1.
</event>
<event>
 8    1  0.1993226E+004  0.1043930E+01  0.7957747E-01            NaN
         13   -1    0    0    0    0  0.00000000000E+00  0.00000000000E+00  0.74505805969E-08  0.10566000000E+00  0.10566000000E+00 0. -1.
     999900   -1    0    0    0    0 -0.00000000000E+00 -0.00000000000E+00 -0.74505805969E-08  0.93827000000E+00  0.93827000000E+00 0. -1.
     999902    2    1    2    0    0 -0.91639620587E-02  0.79896367609E-02  0.99155446874E-02  0.10282414525E+01  0.10281217604E+01 0.  0.
     999903    2    3    3    0    0  0.11962308637E+00  0.44361816985E-01 -0.25451430075E-01  0.13742168272E+00  0.44263867755E-01 0.  0.
         14    1    1    2    0    0  0.91639620587E-02 -0.79896367609E-02 -0.99155446874E-02  0.15688547499E-01  0.00000000000E+00 0.  1.
     999901    1    3    3    0    0 -0.12878704843E+00 -0.36372180224E-01  0.35366974763E-01  0.89081976979E+00  0.88000000000E+00 0. -1.
        -11    1    4    4    0    0  0.10705082106E+00  0.43567194342E-01 -0.35923631825E-01  0.12103200881E+00  0.51100000000E-03 0.  1.
         11    1    4    4    0    0  0.12572265306E-01  0.79462264288E-03  0.10472201750E-01  0.16389673901E-01  0.51100000000E-03 0. -1.
</event>
<event>
 8    1  0.1993226E+004  0.1043930E+01  0.7957747E-01            NaN
         13   -1    0    0    0    0  0.00000000000E+00  0.00000000000E+00  0.74505805969E-08  0.10566000000E+00  0.10566000000E+00 0. -1.
     999900   -1    0    0    0    0 -0.00000000000E+00 -0.00000000000E+00 -0.74505805969E-08  0.93827000000E+00  0.93827000000E+00 0.  1.
     999902    2    1    2    0    0  0.12376124853E-01  0.88870334103E-03  0.80929397427E-02  0.10291160224E+01  0.10290093943E+01 0.  0.
     999903    2    3    3    0    0  0.12447053060E+00 -0.52421844171E-02 -0.47197662654E-01  0.14026294434E+00  0.43882578646E-01 0.  0.
         14    1    1    2    0    0 -0.12376124853E-01 -0.88870334103E-03 -0.80929397427E-02  0.14813977646E-01  0.00000000000E+00 0.  1.
     999901    1    3    3    0    0 -0.11209440575E+00  0.61308877582E-02  0.55290602397E-01  0.88885307802E+00  0.88000000000E+00 0. -1.
        -11    1    4    4    0    0  0.74608176168E-01  0.14429940031E-01 -0.40869900023E-01  0.86285647528E-01  0.51100000000E-03 0. -1.
         11    1    4    4    0    0  0.49862354434E-01 -0.19672124449E-01 -0.63277626309E-02  0.53977296810E-01  0.51100000000E-03 0.  1.
</event>
<event>
 8    1  0.1993226E+004  0.1043930E+01  0.7957747E-01            NaN
         13   -1    0    0    0    0  0.00000000000E+00  0.00000000000E+00  0.74505805969E-08  0.10566000000E+00  0.10566000000E+00 0.  1.
     999900   -1    0    0    0    0 -0.00000000000E+00 -0.00000000000E+00 -0.74505805969E-08  0.93827000000E+00  0.93827000000E+00 0.  1.
     999902    2    1    2    0    0 -0.19712571589E-03 -0.34039061486E-02 -0.13414321700E-01  0.10300891379E+01  0.10299961469E+01 0.  0.
     999903    2    3    3    0    0  0.26205862011E-01 -0.43365654581E-01  0.12032026385E+00  0.13869753014E+00  0.46826400395E-01 0.  0.
         14    1    1    2    0    0  0.19712571589E-03  0.34039061486E-02  0.13414321700E-01  0.13840862050E-01  0.00000000000E+00 0.  1.
     999901    1    3    3    0    0 -0.26402987727E-01  0.39961748432E-01 -0.13373458555E+00  0.89139160781E+00  0.88000000000E+00 0.  1.
        -11    1    4    4    0    0  0.33807167721E-02  0.45925365556E-02  0.51234945752E-01  0.51553869158E-01  0.51100000000E-03 0.  1.
         11    1    4    4    0    0  0.22825145239E-01 -0.47958191136E-01  0.69085318096E-01  0.87143660984E-01  0.51100000000E-03 0. -1.
</event>
<event>
 8    1  0.1993226E+004  0.1043930E+01  0.7957747E-01            NaN
         13   -1    0    0    0    0  0.00000000000E+00  0.00000000000E+00  0.74505805969E-08  0.10566000000E+00  0.10566000000E+00 0. -1.
     999900   -1    0    0    0    0 -0.00000000000E+00 -0.00000000000E+00 -0.74505805969E-08  0.93827000000E+00  0.93827000000E+00 0.  1.
     999902    2    1    2    0    0  0.10387694545E-01 -0.64714027293E-03  0.10469209814E-01  0.10291676376E+01  0.10290617567E+01 0.  0.
     999903    2    3    3    0    0  0.77217583294E-01 -0.40553936354E-01  0.10130350677E+00  0.14107436781E+00  0.45082145519E-01 0.  0.
         14    1    1    2    0    0 -0.10387694545E-01  0.64714027293E-03 -0.10469209814E-01  0.14762362366E-01  0.00000000000E+00 0. -1.
     999901    1    3    3    0    0 -0.66829888749E-01  0.39906796081E-01 -0.90834296960E-01  0.88809326982E+00  0.88000000000E+00 0.  1.
        -11    1    4    4    0    0  0.51864454686E-01 -0.20510168372E-02  0.57788954286E-01  0.77678521409E-01  0.51100000000E-03 0. -1.
         11    1    4    4    0    0  0.25353128608E-01 -0.38502919516E-01  0.43514552489E-01  0.63395846400E-01  0.51100000000E-03 0.  1.
</event>
<event>
 8    1  0.1993226E+004  0.1043930E+01  0.7957747E-01            NaN
         13   -1    0    0    0    0  0.00000000000E+00  0.00000000000E+00  0.74505805969E-08  0.10566000000E+00  0.10566000000E+00 0.  1.
     999900   -1    0    0    0    0 -0.00000000000E+00 -0.00000000000E+00 -0.74505805969E-08  0.93827000000E+00  0.93827000000E+00 0.  1.
     999902    2    1    2    0    0  0.53826309996E-02  0.11371125901E-02  0.12940752281E-01  0.10298683923E+01  0.10297723907E+01 0.  0.
     999903    2    3    3    0    0 -0.56363322345E-01  0.78456500621E-01  0.92161399221E-01  0.14078641553E+00  0.44663684301E-01 0.  0.
         14    1    1    2    0    0 -0.53826309996E-02 -0.11371125901E-02 -0.12940752281E-01  0.14061607700E-01  0.00000000000E+00 0. -1.
     999901    1    3    3    0    0  0.61745953345E-01 -0.77319388030E-01 -0.79220646940E-01  0.88908197677E+00  0.88000000000E+00 0.  1.
        -11    1    4    4    0    0 -0.57693484038E-02  0.36640405231E-01  0.51860937245E-01  0.63762234978E-01  0.51100000000E-03 0.  1.
         11    1    4    4    0    0 -0.50593973942E-01  0.41816095390E-01  0.40300461976E-01  0.77024180550E-01  0.51100000000E-03 0. -1.
</event>
<event>
 7    1  0.1993226E+004  0.1043930E+01  0.7957747E-01            NaN
         13   -1    0    0    0    0  0.00000000000E+00  0.00000000000E+00  0.74505805969E-08  0.10566000000E+00  0.10566000000E+00 0. -1.
     999900   -1    0    0    0    0 -0.00000000000E+00 -0.00000000000E+00 -0.74505805969E-08  0.93827000000E+00  0.93827000000E+00 0. -1.
     999903    2    1    2    0    0 -0.10429305109E+00  0.20849369883E-01 -0.40163198116E-01  0.12240464619E+00  0.45366046709E-01 0.  0.
         14    1    1    2    0    0 -0.27979471901E-02 -0.29632093538E-01 -0.14892412715E-01  0.33281728206E-01  0.00000000000E+00 0.  1.
     999901    1    1    2    0    0  0.10709099828E+00  0.87827236553E-02  0.55055610831E-01  0.88824362561E+00  0.88000000000E+00 0.  1.
        -11    1    3    3    0    0 -0.25251683877E-01  0.20569442001E-01  0.23422775646E-02  0.32657263634E-01  0.51100000000E-03 0.  1.
         11    1    3    3    0    0 -0.79041367217E-01  0.27992788200E-03 -0.42505475681E-01  0.89747382552E-01  0.51100000000E-03 0. -1.
</event>
<event>
 8    1  0.1993226E+004  0.1043930E+01  0.7957747E-01            NaN
         13   -1    0    0    0    0  0.00000000000E+00  0.00000000000E+00  0.74505805969E-08  0.10566000000E+00  0.10566000000E+00 0.  1.
     999900   -1    0    0    0    0 -0.00000000000E+00 -0.00000000000E+00 -0.74505805969E-08  0.93827000000E+00  0.93827000000E+00 0.  1.
     999902    2    1    2    0    0 -0.98681672787E-03  0.65424205972E-02 -0.13076905186E-01  0.10292745395E+01  0.10291701973E+01 0.  0.
     999903    2    3    3    0    0  0.88095173171E-01  0.76311759744E-01  0.61032128762E-01  0.13894004584E+00  0.44667341375E-01 0.  0.
         14    1    1    2    0    0  0.98681672787E-03 -0.65424205972E-02  0.13076905186E-01  0.14655460545E-01  0.00000000000E+00 0.  1.
     999901    1    3    3    0    0 -0.89081989899E-01 -0.69769339147E-01 -0.74109033948E-01  0.89033449362E+00  0.88000000000E+00 0.  1.
        -11    1    4    4    0    0  0.91739764787E-01  0.74966965346E-01  0.52570774303E-01  0.12961549972E+00  0.51100000000E-03 0. -1.
         11    1    4    4    0    0 -0.36445916159E-02  0.13447943976E-02  0.84613544590E-02  0.93245461176E-02  0.51100000000E-03 0.  1.
</event>
<event>
 8    1  0.1993226E+004  0.1043930E+01  0.7957747E-01            NaN
         13   -1    0    0    0    0  0.00000000000E+00  0.00000000000E+00  0.74505805969E-08  0.10566000000E+00  0.10566000000E+00 0. -1.
     999900   -1    0    0    0    0 -0.00000000000E+00 -0.00000000000E+00 -0.74505805969E-08  0.93827000000E+00  0.93827000000E+00 0.  1.
     999902    2    1    2    0    0  0.10764616265E-01 -0.58514042651E-02  0.64508921026E-02  0.10300833432E+01  0.10299902738E+01 0.  0.
     999903    2    3    3    0    0  0.94141976444E-01 -0.95487818712E-01 -0.90014836766E-02  0.14147474158E+00  0.44197743664E-01 0.  0.
         14    1    1    2    0    0 -0.10764616265E-01  0.58514042651E-02 -0.64508921026E-02  0.13846656786E-01  0.00000000000E+00 0.  1.
     999901    1    3    3    0    0 -0.83377360178E-01  0.89636414447E-01  0.15452375779E-01  0.88860860164E+00  0.88000000000E+00 0. -1.
        -11    1    4    4    0    0  0.19913846561E-01 -0.12392681921E-01  0.14528984861E-01  0.27595151243E-01  0.51100000000E-03 0.  1.
         11    1    4    4    0    0  0.74228129883E-01 -0.83095136791E-01 -0.23530468537E-01  0.11387959033E+00  0.51100000000E-03 0. -1.
</event>
<event>
 8    1  0.1993226E+004  0.1043930E+01  0.7957747E-01            NaN
         13   -1    0    0    0    0  0.00000000000E+00  0.00000000000E+00  0.74505805969E-08  0.10566000000E+00  0.10566000000E+00 0. -1.
     999900   -1    0    0    0    0 -0.00000000000E+00 -0.00000000000E+00 -0.74505805969E-08  0.93827000000E+00  0.93827000000E+00 0.  1.
     999902    2    1    2    0    0 -0.13696735685E-01  0.53775399155E-02 -0.57006949167E-02  0.10281497457E+01  0.10280286392E+01 0.  0.
     999903    2    3    3    0    0  0.76239083551E-01 -0.10439636987E+00 -0.40972936705E-02  0.13677926504E+00  0.44505950460E-01 0.  0.
         14    1    1    2    0    0  0.13696735685E-01 -0.53775399155E-02  0.57006949167E-02  0.15780254323E-01  0.00000000000E+00 0. -1.
     999901    1    3    3    0    0 -0.89935819236E-01  0.10977390979E+00 -0.16034012462E-02  0.89137048064E+00  0.88000000000E+00 0.  1.
        -11    1    4    4    0    0  0.53703330558E-01 -0.67958469283E-01 -0.23492487613E-01  0.89747196924E-01  0.51100000000E-03 0. -1.
         11    1    4    4    0    0  0.22535752993E-01 -0.36437900591E-01  0.19395193942E-01  0.47032068118E-01  0.51100000000E-03 0.  1.
</event>
<event>
 8    1  0.1993226E+004  0.1043930E+01  0.7957747E-01            NaN
         13   -1    0    0    0    0  0.00000000000E+00  0.00000000000E+00  0.74505805969E-08  0.10566000000E+00  0.10566000000E+00 0.  1.
     999900   -1    0    0    0    0 -0.00000000000E+00 -0.00000000000E+00 -0.74505805969E-08  0.93827000000E+00  0.93827000000E+00 0. -1.
     999902    2    1    2    0    0 -0.12878492965E-01  0.77187335987E-05  0.32146950812E-02  0.10306563455E+01  0.10305708673E+01 0.  0.
     999903    2    3    3    0    0 -0.62639435954E-01  0.74964558085E-02 -0.11796402915E+00  0.14092800723E+00  0.44331650792E-01 0.  0.
         14    1    1    2    0    0  0.12878492965E-01 -0.77187335987E-05 -0.32146950812E-02  0.13273654549E-01  0.00000000000E+00 0.  1.
     999901    1    3    3    0    0  0.49760942989E-01 -0.74887370749E-02  0.12117872423E+00  0.88972833822E+00  0.88000000000E+00 0.  1.
        -11    1    4    4    0    0 -0.28671992421E-01 -0.43357912213E-02 -0.16705923769E-01  0.33469855764E-01  0.51100000000E-03 0. -1.
         11    1    4    4    0    0 -0.33967443533E-01  0.11832247030E-01 -0.10125810538E+00  0.10745815146E+00  0.51100000000E-03 0.  1.
</event>
<event>
 7    1  0.2957036E+004  0.1043930E+01  0.7957747E-01            NaN
         13   -1    0    0    0    0  0.00000000000E+00  0.00000000000E+00  0.74505805969E-08  0.10566000000E+00  0.10566000000E+00 0. -1.
     999900   -1    0    0    0    0 -0.00000000000E+00 -0.00000000000E+00 -0.74505805969E-08  0.93827000000E+00  0.93827000000E+00 0.  1.
     999903    2    1    2    0    0 -0.25890198467E-01  0.85538689876E-01 -0.61241738637E-01  0.11487018375E+00  0.38176415779E-01 0.  0.
         14    1    1    2    0    0  0.38737486482E-01  0.12984180784E-01  0.95755128082E-02  0.41962748422E-01  0.00000000000E+00 0. -1.
     999901    1    1    2    0    0 -0.12847288014E-01 -0.98522870661E-01  0.51666225829E-01  0.88709706783E+00  0.88000000000E+00 0.  1.
        -11    1    3    3    0    0 -0.16720601898E-01  0.11225993625E-01 -0.23707978232E-01  0.31111586484E-01  0.51100000000E-03 0.  1.
         11    1    3    3    0    0 -0.91695965697E-02  0.74312696251E-01 -0.37533760406E-01  0.83758597270E-01  0.51100000000E-03 0. -1.
</event>
<event>
 7    1  0.1993226E+004  0.1043930E+01  0.7957747E-01            NaN
         13   -1    0    0    0    0  0.00000000000E+00  0.00000000000E+00  0.74505805969E-08  0.10566000000E+00  0.10566000000E+00 0.  1.
     999900   -1    0    0    0    0 -0.00000000000E+00 -0.00000000000E+00 -0.74505805969E-08  0.93827000000E+00  0.93827000000E+00 0. -1.
     999902    2    1    2    0    0  0.65538163037E-02  0.12238738330E-01 -0.89071846806E-03  0.10300184004E+01  0.10299244499E+01 0.  0.
         14    1    1    2    0    0 -0.65538163037E-02 -0.12238738330E-01  0.89071846806E-03  0.13911599601E-01  0.00000000000E+00 0.  1.
     999901    1    3    3    0    0  0.92680306684E-01  0.69307998808E-01  0.65595295470E-01  0.88999774198E+00  0.88000000000E+00 0. -1.
        -11    1    3    3    0    0 -0.45875957140E-01 -0.67527177123E-01 -0.44288994265E-01  0.92877872648E-01  0.51100000000E-03 0. -1.
         11    1    3    3    0    0 -0.40250533239E-01  0.10457916645E-01 -0.22197019674E-01  0.47142785769E-01  0.51100000000E-03 0.  1.
</event>
<event>
 8    1  0.1993226E+004  0.1043930E+01  0.7957747E-01            NaN
         13   -1    0    0    0    0  0.00000000000E+00  0.00000000000E+00  0.74505805969E-08  0.10566000000E+00  0.10566000000E+00 0. -1.
     999900   -1    0    0    0    0 -0.00000000000E+00 -0.00000000000E+00 -0.74505805969E-08  0.93827000000E+00  0.93827000000E+00 0. -1.
     999902    2    1    2    0    0  0.58939843692E-02 -0.12037017061E-01  0.62174566570E-02  0.10291555085E+01  0.10290494522E+01 0.  0.
     999903    2    3    3    0    0 -0.93196445052E-02 -0.10582252327E+00  0.81555121252E-01  0.14084084614E+00  0.43584904896E-01 0.  0.
         14    1    1    2    0    0 -0.58939843692E-02  0.12037017061E-01 -0.62174566570E-02  0.14774491489E-01  0.00000000000E+00 0.  1.
     999901    1    3    3    0    0  0.15213628874E-01  0.93785506205E-01 -0.75337664595E-01  0.88831466237E+00  0.88000000000E+00 0.  1.
        -11    1    4    4    0    0  0.17156404336E-01 -0.50126560209E-01  0.33865742919E-01  0.62882143035E-01  0.51100000000E-03 0. -1.
         11    1    4    4    0    0 -0.26476048841E-01 -0.55695963057E-01  0.47689378333E-01  0.77958703105E-01  0.51100000000E-03 0.  1.
</event>
<event>
 8    1  0.1993226E+004  0.1043930E+01  0.7957747E-01            NaN
         13   -1    0    0    0    0  0.00000000000E+00  0.00000000000E+00  0.74505805969E-08  0.10566000000E+00  0.10566000000E+00 0.  1.
     999900   -1    0    0    0    0 -0.00000000000E+00 -0.00000000000E+00 -0.74505805969E-08  0.93827000000E+00  0.93827000000E+00 0.  1.
     999902    2    1    2    0    0 -0.10784986883E-01  0.50700708043E-02  0.77177070578E-03  0.10319877561E+01  0.10319186555E+01 0.  0.
     999903    2    3    3    0    0 -0.27173383777E-01  0.12761484272E+00  0.35756808920E-01  0.14265668522E+00  0.45259690523E-01 0.  0.
         14    1    1    2    0    0  0.10784986883E-01 -0.50700708043E-02 -0.77177070578E-03  0.11942243928E-01  0.00000000000E+00 0.  1.
     999901    1    3    3    0    0  0.16388396894E-01 -0.12254477192E+00 -0.34985038214E-01  0.88933107085E+00  0.88000000000E+00 0. -1.
        -11    1    4    4    0    0 -0.15752882533E-01  0.18460466816E-01  0.20653126858E-01  0.31870910140E-01  0.51100000000E-03 0. -1.
         11    1    4    4    0    0 -0.11420501244E-01  0.10915437591E+00  0.15103682062E-01  0.11078577508E+00  0.51100000000E-03 0.  1.
</event>
<event>
 8    1  0.1993226E+004  0.1043930E+01  0.7957747E-01            NaN
         13   -1    0    0    0    0  0.00000000000E+00  0.00000000000E+00  0.74505805969E-08  0.10566000000E+00  0.10566000000E+00 0. -1.
     999900   -1    0    0    0    0 -0.00000000000E+00 -0.00000000000E+00 -0.74505805969E-08  0.93827000000E+00  0.93827000000E+00 0.  1.
     999902    2    1    2    0    0  0.12540158299E-01 -0.26254717255E-02 -0.44320402939E-02  0.10303730220E+01  0.10302838312E+01 0.  0.
     999903    2    3    3    0    0  0.69899133030E-01 -0.96384334453E-01 -0.62368762091E-01  0.14164503206E+00  0.44694786018E-01 0.  0.
         14    1    1    2    0    0 -0.12540158299E-01  0.26254717255E-02  0.44320402939E-02  0.13556978023E-01  0.00000000000E+00 0. -1.
     999901    1    3    3    0    0 -0.57358974731E-01  0.93758862728E-01  0.57936721797E-01  0.88872798991E+00  0.88000000000E+00 0.  1.
        -11    1    4    4    0    0  0.40354335264E-01 -0.21331329154E-01 -0.14724446820E-01  0.47964241193E-01  0.51100000000E-03 0.  1.
         11    1    4    4    0    0  0.29544797766E-01 -0.75053005299E-01 -0.47644315272E-01  0.93680790871E-01  0.51100000000E-03 0. -1.
</event>
<event>
 8    1  0.1993226E+004  0.1043930E+01  0.7957747E-01            NaN
         13   -1    0    0    0    0  0.00000000000E+00  0.00000000000E+00  0.74505805969E-08  0.10566000000E+00  0.10566000000E+00 0. -1.
     999900   -1    0    0    0    0 -0.00000000000E+00 -0.00000000000E+00 -0.74505805969E-08  0.93827000000E+00  0.93827000000E+00 0.  1.
     999902    2    1    2    0    0 -0.44946112209E-03 -0.78733459834E-02  0.13343929830E-01  0.10284299337E+01  0.10283131218E+01 0.  0.
     999903    2    3    3    0    0  0.33251513626E-01 -0.11773709379E+00  0.51007226355E-01  0.14015952290E+00  0.45555112859E-01 0.  0.
         14    1    1    2    0    0  0.44946112209E-03  0.78733459834E-02 -0.13343929830E-01  0.15500066309E-01  0.00000000000E+00 0.  1.
     999901    1    3    3    0    0 -0.33700974748E-01  0.10986374780E+00 -0.37663296525E-01  0.88827041079E+00  0.88000000000E+00 0. -1.
        -11    1    4    4    0    0  0.43692784762E-01 -0.77472603274E-01  0.34265420199E-01  0.95317594602E-01  0.51100000000E-03 0. -1.
         11    1    4    4    0    0 -0.10441271136E-01 -0.40264490513E-01  0.16741806157E-01  0.44841928299E-01  0.51100000000E-03 0.  1.
</event>
<event>
 8    1  0.1993226E+004  0.1043930E+01  0.7957747E-01            NaN
         13   -1    0    0    0    0  0.00000000000E+00  0.00000000000E+00  0.74505805969E-08  0.10566000000E+00  0.10566000000E+00 0.  1.
     999900   -1    0    0    0    0 -0.00000000000E+00 -0.00000000000E+00 -0.74505805969E-08  0.93827000000E+00  0.93827000000E+00 0. -1.
     999902    2    1    2    0    0  0.65946051481E-02  0.25167457715E-02 -0.11847868370E-01  0.10301388865E+01  0.10300465672E+01 0.  0.
     999903    2    3    3    0    0 -0.12516319599E+00  0.21399888585E-01 -0.37137326723E-01  0.13977028422E+00  0.45086255689E-01 0.  0.
         14    1    1    2    0    0 -0.65946051481E-02 -0.25167457715E-02  0.11847868370E-01  0.13791113488E-01  0.00000000000E+00 0.  1.
     999901    1    3    3    0    0  0.13175780114E+00 -0.18883142814E-01  0.25289458353E-01  0.89036860229E+00  0.88000000000E+00 0.  1.
        -11    1    4    4    0    0 -0.52300414188E-01 -0.12660101927E-01 -0.20815074996E-01  0.57698699926E-01  0.51100000000E-03 0.  1.
         11    1    4    4    0    0 -0.72862781805E-01  0.34059990512E-01 -0.16322251728E-01  0.82071584294E-01  0.51100000000E-03 0. -1.
</event>
<event>
 8    1  0.1993226E+004  0.1043930E+01  0.7957747E-01            NaN
         13   -1    0    0    0    0  0.00000000000E+00  0.00000000000E+00  0.74505805969E-08  0.10566000000E+00  0.10566000000E+00 0. -1.
     999900   -1    0    0    0    0 -0.00000000000E+00 -0.00000000000E+00 -0.74505805969E-08  0.93827000000E+00  0.93827000000E+00 0. -1.
     999902    2    1    2    0    0  0.87464203115E-02  0.88343565082E-02 -0.27738621657E-02  0.10311926520E+01  0.10311139828E+01 0.  0.
     999903    2    3    3    0    0 -0.29909489341E-01 -0.11186813379E+00 -0.64566507608E-01  0.13996781977E+00  0.44867580245E-01 0.  0.
         14    1    1    2    0    0 -0.87464203115E-02 -0.88343565082E-02  0.27738621657E-02  0.12737348017E-01  0.00000000000E+00 0.  1.
     999901    1    3    3    0    0  0.38655909653E-01  0.12070249030E+00  0.61792645442E-01  0.89122483221E+00  0.88000000000E+00 0.  1.
        -11    1    4    4    0    0 -0.26369632294E-02 -0.85901937470E-01 -0.38542257550E-01  0.94190568393E-01  0.51100000000E-03 0. -1.
         11    1    4    4    0    0 -0.27272526112E-01 -0.25966196321E-01 -0.26024250058E-01  0.45777251381E-01  0.51100000000E-03 0.  1.
</event>
<event>
 8    1  0.1993226E+004  0.1043930E+01  0.7957747E-01            NaN
         13   -1    0    0    0    0  0.00000000000E+00  0.00000000000E+00  0.74505805969E-08  0.10566000000E+00  0.10566000000E+00 0.  1.
     999900   -1    0    0    0    0 -0.00000000000E+00 -0.00000000000E+00 -0.74505805969E-08  0.93827000000E+00  0.93827000000E+00 0.  1.
     999902    2    1    2    0    0  0.12239205462E-01 -0.37316378968E-02  0.43659601649E-02  0.10304102041E+01  0.10303215051E+01 0.  0.
     999903    2    3    3    0    0 -0.12899420011E+00 -0.43806778362E-02  0.25207375833E-01  0.13890492614E+00  0.44726644291E-01 0.  0.
         14    1    1    2    0    0 -0.12239205462E-01  0.37316378968E-02 -0.43659601649E-02  0.13519795853E-01  0.00000000000E+00 0.  1.
     999901    1    3    3    0    0  0.14123340557E+00  0.64903993937E-03 -0.20841415668E-01  0.89150527800E+00  0.88000000000E+00 0.  1.
        -11    1    4    4    0    0 -0.31865609622E-01 -0.20432668532E-01  0.29441342028E-02  0.37971569195E-01  0.51100000000E-03 0. -1.
         11    1    4    4    0    0 -0.97128590490E-01  0.16051990696E-01  0.22263241630E-01  0.10093335695E+00  0.51100000000E-03 0.  1.
</event>
<event>
 8    1  0.1993226E+004  0.1043930E+01  0.7957747E-01            NaN
         13   -1    0    0    0    0  0.00000000000E+00  0.00000000000E+00  0.74505805969E-08  0.10566000000E+00  0.10566000000E+00 0. -1.
     999900   -1    0    0    0    0 -0.00000000000E+00 -0.00000000000E+00 -0.74505805969E-08  0.93827000000E+00  0.93827000000E+00 0. -1.
     999902    2    1    2    0    0 -0.95545269400E-03  0.46178962382E-02 -0.13228467101E-01  0.10298861331E+01  0.10297903753E+01 0.  0.
     999903    2    3    3    0    0  0.82953060884E-01  0.10240491548E+00 -0.17670220631E-01  0.14049158120E+00  0.45361554942E-01 0.  0.
         14    1    1    2    0    0  0.95545269400E-03 -0.46178962382E-02  0.13228467101E-01  0.14043866894E-01  0.00000000000E+00 0. -1.
     999901    1    3    3    0    0 -0.83908513578E-01 -0.97787019242E-01  0.44417535299E-02  0.88939455190E+00  0.88000000000E+00 0.  1.
        -11    1    4    4    0    0  0.62965352770E-01  0.85623329135E-01  0.43031635572E-02  0.10637090053E+00  0.51100000000E-03 0. -1.
         11    1    4    4    0    0  0.19987708114E-01  0.16781586345E-01 -0.21973384188E-01  0.34120680673E-01  0.51100000000E-03 0.  1.
</event>
<event>
 8    1  0.1993226E+004  0.1043930E+01  0.7957747E-01            NaN
         13   -1    0    0    0    0  0.00000000000E+00  0.00000000000E+00  0.74505805969E-08  0.10566000000E+00  0.10566000000E+00 0.  1.
     999900   -1    0    0    0    0 -0.00000000000E+00 -0.00000000000E+00 -0.74505805969E-08  0.93827000000E+00  0.93827000000E+00 0.  1.
     999902    2    1    2    0    0  0.18476388718E-02 -0.72465868077E-02 -0.16006690694E-01  0.10262624892E+01  0.10261104014E+01 0.  0.
     999903    2    3    3    0    0 -0.50236528941E-01 -0.38806927055E-01  0.11058612377E+00  0.13512021311E+00  0.44704527648E-01 0.  0.
         14    1    1    2    0    0 -0.18476388718E-02  0.72465868077E-02  0.16006690694E-01  0.17667510768E-01  0.00000000000E+00 0.  1.
     999901    1    3    3    0    0  0.52084167813E-01  0.31560340247E-01 -0.12659281447E+00  0.89114227612E+00  0.88000000000E+00 0.  1.
        -11    1    4    4    0    0 -0.31892190813E-01  0.20255502240E-02  0.56474796168E-01  0.64891281477E-01  0.51100000000E-03 0.  1.
         11    1    4    4    0    0 -0.18344338128E-01 -0.40832477279E-01  0.54111327607E-01  0.70228931635E-01  0.51100000000E-03 0. -1.
</event>
<event>
 8    1  0.1993226E+004  0.1043930E+01  0.7957747E-01            NaN
         13   -1    0    0    0    0  0.00000000000E+00  0.00000000000E+00  0.74505805969E-08  0.10566000000E+00  0.10566000000E+00 0.  1.
     999900   -1    0    0    0    0 -0.00000000000E+00 -0.00000000000E+00 -0.74505805969E-08  0.93827000000E+00  0.93827000000E+00 0. -1.
     999902    2    1    2    0    0 -0.49751676468E-02  0.19966431286E-02 -0.77054253451E-02  0.10345431764E+01  0.10345005904E+01 0.  0.
     999903    2    3    3    0    0 -0.80268682242E-01  0.21684474559E-01  0.10814107830E+00  0.14354534453E+00  0.44693347772E-01 0.  0.
         14    1    1    2    0    0  0.49751676468E-02 -0.19966431286E-02  0.77054253451E-02  0.93868235652E-02  0.00000000000E+00 0.  1.
     999901    1    3    3    0    0  0.75293514595E-01 -0.19687831430E-01 -0.11584650365E+00  0.89099783190E+00  0.88000000000E+00 0. -1.
        -11    1    4    4    0    0 -0.21219987705E-01 -0.10156043411E-01  0.47953210924E-01  0.53415397170E-01  0.51100000000E-03 0. -1.
         11    1    4    4    0    0 -0.59048694537E-01  0.31840517970E-01  0.60187867378E-01  0.90129947363E-01  0.51100000000E-03 0.  1.
</event>
<event>
 8    1  0.1993226E+004  0.1043930E+01  0.7957747E-01            NaN
         13   -1    0    0    0    0  0.00000000000E+00  0.00000000000E+00  0.74505805969E-08  0.10566000000E+00  0.10566000000E+00 0. -1.
     999900   -1    0    0    0    0 -0.00000000000E+00 -0.00000000000E+00 -0.74505805969E-08  0.93827000000E+00  0.93827000000E+00 0. -1.
     999902    2    1    2    0    0  0.94717997253E-02 -0.32260704232E-02 -0.95993841619E-02  0.10300638291E+01  0.10299704953E+01 0.  0.
     999903    2    3    3    0    0  0.18583720679E-01 -0.12854246732E+00  0.27503793260E-01  0.14036507542E+00  0.45578231387E-01 0.  0.
         14    1    1    2    0    0 -0.94717997253E-02  0.32260704232E-02  0.95993841619E-02  0.13866170946E-01  0.00000000000E+00 0. -1.
     999901    1    3    3    0    0 -0.91119209539E-02  0.12531639690E+00 -0.37103177422E-01  0.88969875363E+00  0.88000000000E+00 0. -1.
        -11    1    4    4    0    0  0.25551069283E-01 -0.70219884853E-01 -0.17452476274E-02  0.74746213152E-01  0.51100000000E-03 0.  1.
         11    1    4    4    0    0 -0.69673486036E-02 -0.58322582467E-01  0.29249040888E-01  0.65618862273E-01  0.51100000000E-03 0. -1.
</event>
<event>
 8    1  0.1993226E+004  0.1043930E+01  0.7957747E-01            NaN
         13   -1    0    0    0    0  0.00000000000E+00  0.00000000000E+00  0.74505805969E-08  0.10566000000E+00  0.10566000000E+00 0.  1.
     999900   -1    0    0    0    0 -0.00000000000E+00 -0.00000000000E+00 -0.74505805969E-08  0.93827000000E+00  0.93827000000E+00 0.  1.
     999902    2    1    2    0    0  0.36084227845E-02  0.10445838975E-01  0.29088743995E-02  0.10325020598E+01  0.10324388145E+01 0.  0.
     999903    2    3    3    0    0 -0.93099117489E-01 -0.95573140102E-01 -0.43398051596E-02  0.14084914772E+00  0.44921906888E-01 0.  0.
         14    1    1    2    0    0 -0.36084227845E-02 -0.10445838975E-01 -0.29088743995E-02  0.11427940197E-01  0.00000000000E+00 0. -1.
     999901    1    3    3    0    0  0.96707540274E-01  0.10601897908E+00  0.72486795591E-02  0.89165291208E+00  0.88000000000E+00 0. -1.
        -11    1    4    4    0    0 -0.28424507155E-02 -0.17079877935E-01 -0.11867507103E-01  0.20997633253E-01  0.51100000000E-03 0.  1.
         11    1    4    4    0    0 -0.90256666774E-01 -0.78493262166E-01  0.75277019437E-02  0.11985151447E+00  0.51100000000E-03 0. -1.
</event>
<event>
 8    1  0.1993226E+004  0.1043930E+01  0.7957747E-01            NaN
         13   -1    0    0    0    0  0.00000000000E+00  0.00000000000E+00  0.74505805969E-08  0.10566000000E+00  0.10566000000E+00 0. -1.
     999900   -1    0    0    0    0 -0.00000000000E+00 -0.00000000000E+00 -0.74505805969E-08  0.93827000000E+00  0.93827000000E+00 0. -1.
     999902    2    1    2    0    0 -0.36859051051E-02  0.11457351644E-02  0.13429496510E-01  0.10299568120E+01  0.10298620221E+01 0.  0.
     999903    2    3    3    0    0 -0.31703762977E-01 -0.69781082656E-01  0.10983629380E+00  0.14141312464E+00  0.45377663008E-01 0.  0.
         14    1    1    2    0    0  0.36859051051E-02 -0.11457351644E-02 -0.13429496510E-01  0.13973187970E-01  0.00000000000E+00 0.  1.
     999901    1    3    3    0    0  0.28017857872E-01  0.70926817821E-01 -0.96406797289E-01  0.88854368739E+00  0.88000000000E+00 0. -1.
        -11    1    4    4    0    0 -0.83075700701E-02 -0.57984794475E-03  0.38193826600E-01  0.39094519506E-01  0.51100000000E-03 0. -1.
         11    1    4    4    0    0 -0.23396192907E-01 -0.69201234711E-01  0.71642467200E-01  0.10231860513E+00  0.51100000000E-03 0.  1.
</event>
<event>
 8    1  0.1993226E+004  0.1043930E+01  0.7957747E-01            NaN
         13   -1    0    0    0    0  0.00000000000E+00  0.00000000000E+00  0.74505805969E-08  0.10566000000E+00  0.10566000000E+00 0. -1.
     999900   -1    0    0    0    0 -0.00000000000E+00 -0.00000000000E+00 -0.74505805969E-08  0.93827000000E+00  0.93827000000E+00 0.  1.
     999902    2    1    2    0    0  0.64502346242E-02  0.12741752926E-01  0.15147782820E-02  0.10295685117E+01  0.10294683423E+01 0.  0.
     999903    2    3    3    0    0 -0.79050668782E-01  0.59718289527E-01 -0.88015366705E-01  0.13966242316E+00  0.44086339467E-01 0.  0.
         14    1    1    2    0    0 -0.64502346242E-02 -0.12741752926E-01 -0.15147782820E-02  0.14361488348E-01  0.00000000000E+00 0.  1.
     999901    1    3    3    0    0  0.85500903406E-01 -0.46976536601E-01  0.89530144987E-01  0.88990608849E+00  0.88000000000E+00 0. -1.
        -11    1    4    4    0    0 -0.43638143415E-01  0.52711330583E-01 -0.74378045343E-01  0.10106990988E+00  0.51100000000E-03 0. -1.
         11    1    4    4    0    0 -0.35412525367E-01  0.70069589442E-02 -0.13637321362E-01  0.38592513282E-01  0.51100000000E-03 0.  1.
</event>
<event>
 8    1  0.1993226E+004  0.1043930E+01  0.7957747E-01            NaN
         13   -1    0    0    0    0  0.00000000000E+00  0.00000000000E+00  0.74505805969E-08  0.10566000000E+00  0.10566000000E+00 0.  1.
     999900   -1    0    0    0    0 -0.00000000000E+00 -0.00000000000E+00 -0.74505805969E-08  0.93827000000E+00  0.93827000000E+00 0.  1.
     999902    2    1    2    0    0 -0.11730750889E-01  0.50016456819E-02 -0.52829453483E-02  0.10301265045E+01  0.10300340183E+01 0.  0.
     999903    2    3    3    0    0 -0.70701761241E-01 -0.10249090053E+00  0.46335706493E-01  0.14012835128E+00  0.44562690691E-01 0.  0.
         14    1    1    2    0    0  0.11730750889E-01 -0.50016456819E-02  0.52829453483E-02  0.13803495481E-01  0.00000000000E+00 0.  1.
     999901    1    3    3    0    0  0.58971010352E-01  0.10749254621E+00 -0.51618651841E-01  0.88999815324E+00  0.88000000000E+00 0.  1.
        -11    1    4    4    0    0 -0.16596989077E-01 -0.62768837693E-01  0.26589817283E-01  0.70161717025E-01  0.51100000000E-03 0.  1.
         11    1    4    4    0    0 -0.54104772165E-01 -0.39722062837E-01  0.19745889210E-01  0.69966634253E-01  0.51100000000E-03 0. -1.
</event>
<event>
 8    1  0.1993226E+004  0.1043930E+01  0.7957747E-01            NaN
         13   -1    0    0    0    0  0.00000000000E+00  0.00000000000E+00  0.74505805969E-08  0.10566000000E+00  0.10566000000E+00 0.  1.
     999900   -1    0    0    0    0 -0.00000000000E+00 -0.00000000000E+00 -0.74505805969E-08  0.93827000000E+00  0.93827000000E+00 0.  1.
     999902    2    1    2    0    0 -0.75416247034E-02  0.51449088001E-02 -0.10747868755E-01  0.10298281252E+01  0.10297315692E+01 0.  0.
     999903    2    3    3    0    0  0.39324678933E-01  0.34340749181E-01 -0.12333635073E+00  0.14093836051E+00  0.43886770504E-01 0.  0.
         14    1    1    2    0    0  0.75416247034E-02 -0.51449088001E-02  0.10747868755E-01  0.14101874787E-01  0.00000000000E+00 0.  1.
     999901    1    3    3    0    0 -0.46866303637E-01 -0.29195840381E-01  0.11258848198E+00  0.88888976470E+00  0.88000000000E+00 0.  1.
        -11    1    4    4    0    0  0.41381433943E-02  0.28601949999E-01 -0.78506020865E-01  0.83657947665E-01  0.51100000000E-03 0.  1.
         11    1    4    4    0    0  0.35186535539E-01  0.57387991820E-02 -0.44830329867E-01  0.57280412850E-01  0.51100000000E-03 0. -1.
</event>
<event>
 8    1  0.1993226E+004  0.1043930E+01  0.7957747E-01            NaN
         13   -1    0    0    0    0  0.00000000000E+00  0.00000000000E+00  0.74505805969E-08  0.10566000000E+00  0.10566000000E+00 0.  1.
     999900   -1    0    0    0    0 -0.00000000000E+00 -0.00000000000E+00 -0.74505805969E-08  0.93827000000E+00  0.93827000000E+00 0. -1.
     999902    2    1    2    0    0 -0.88733547582E-02  0.60153380555E-02  0.10625968232E-01  0.10288358979E+01  0.10287251688E+01 0.  0.
     999903    2    3    3    0    0 -0.12940414474E+00 -0.21431466090E-01  0.21535006147E-01  0.14012896901E+00  0.44357987453E-01 0.  0.
         14    1    1    2    0    0  0.88733547582E-02 -0.60153380555E-02 -0.10625968232E-01  0.15094102075E-01  0.00000000000E+00 0. -1.
     999901    1    3    3    0    0  0.12053078998E+00  0.27446804146E-01 -0.10909037915E-01  0.88870692891E+00  0.88000000000E+00 0. -1.
        -11    1    4    4    0    0 -0.73571700564E-01  0.74766729947E-02  0.22327636307E-01  0.77249467487E-01  0.51100000000E-03 0. -1.
         11    1    4    4    0    0 -0.55832444178E-01 -0.28908139085E-01 -0.79263015970E-03  0.62879501524E-01  0.51100000000E-03 0.  1.
</event>
<event>
 8    1  0.1993226E+004  0.1043930E+01  0.7957747E-01            NaN
         13   -1    0    0    0    0  0.00000000000E+00  0.00000000000E+00  0.74505805969E-08  0.10566000000E+00  0.10566000000E+00 0.  1.
     999900   -1    0    0    0    0 -0.00000000000E+00 -0.00000000000E+00 -0.74505805969E-08  0.93827000000E+00  0.93827000000E+00 0.  1.
     999902    2    1    2    0    0 -0.47482414543E-02 -0.42358726214E-02 -0.11336347885E-01  0.10309299540E+01  0.10308479853E+01 0.  0.
     999903    2    3    3    0    0 -0.11574474403E+00  0.64161930817E-01  0.17499910591E-01  0.14085691600E+00  0.44953584692E-01 0.  0.
         14    1    1    2    0    0  0.47482414543E-02  0.42358726214E-02  0.11336347885E-01  0.13000046044E-01  0.00000000000E+00 0.  1.
     999901    1    3    3    0    0  0.11099650258E+00 -0.68397803439E-01 -0.28836258476E-01  0.89007303796E+00  0.88000000000E+00 0.  1.
        -11    1    4    4    0    0 -0.99359499837E-01  0.45270555240E-01  0.29517328380E-01  0.11310732591E+00  0.51100000000E-03 0.  1.
         11    1    4    4    0    0 -0.16385244193E-01  0.18891375577E-01 -0.12017417789E-01  0.27749590083E-01  0.51100000000E-03 0. -1.
</event>
<event>
 8    1  0.1993226E+004  0.1043930E+01  0.7957747E-01            NaN
         13   -1    0    0    0    0  0.00000000000E+00  0.00000000000E+00  0.74505805969E-08  0.10566000000E+00  0.10566000000E+00 0.  1.
     999900   -1    0    0    0    0 -0.00000000000E+00 -0.00000000000E+00 -0.74505805969E-08  0.93827000000E+00  0.93827000000E+00 0.  1.
     999902    2    1    2    0    0 -0.29381224771E-02 -0.80917846318E-02 -0.11407557689E-01  0.10296386769E+01  0.10295394908E+01 0.  0.
     999903    2    3    3    0    0  0.88643362296E-01 -0.96728022913E-01  0.19431588414E-01  0.13992265257E+00  0.44573601824E-01 0.  0.
         14    1    1    2    0    0  0.29381224771E-02  0.80917846318E-02  0.11407557689E-01  0.14291323054E-01  0.00000000000E+00 0.  1.
     999901    1    3    3    0    0 -0.91581484773E-01  0.88636238281E-01 -0.30839146103E-01  0.88971602437E+00  0.88000000000E+00 0. -1.
        -11    1    4    4    0    0  0.37539280291E-01 -0.18251449460E-01 -0.76402008026E-02  0.42437563095E-01  0.51100000000E-03 0.  1.
         11    1    4    4    0    0  0.51104082005E-01 -0.78476573453E-01  0.27071789216E-01  0.97485089480E-01  0.51100000000E-03 0. -1.
</event>
<event>
 8    1  0.1993226E+004  0.1043930E+01  0.7957747E-01            NaN
         13   -1    0    0    0    0  0.00000000000E+00  0.00000000000E+00  0.74505805969E-08  0.10566000000E+00  0.10566000000E+00 0. -1.
     999900   -1    0    0    0    0 -0.00000000000E+00 -0.00000000000E+00 -0.74505805969E-08  0.93827000000E+00  0.93827000000E+00 0. -1.
     999902    2    1    2    0    0  0.11760795129E-01  0.46697667858E-02 -0.66558118229E-02  0.10296323479E+01  0.10295330733E+01 0.  0.
     999903    2    3    3    0    0  0.12092056398E+00 -0.52196480572E-01 -0.22345125610E-01  0.14092779646E+00  0.44889684772E-01 0.  0.
         14    1    1    2    0    0 -0.11760795129E-01 -0.46697667858E-02  0.66558118229E-02  0.14297652078E-01  0.00000000000E+00 0. -1.
     999901    1    3    3    0    0 -0.10915976885E+00  0.56866247358E-01  0.15689313787E-01  0.88870455146E+00  0.88000000000E+00 0.  1.
        -11    1    4    4    0    0  0.77306345102E-01 -0.34428166318E-01  0.78360886710E-02  0.84989617223E-01  0.51100000000E-03 0. -1.
         11    1    4    4    0    0  0.43614218878E-01 -0.17768314255E-01 -0.30181214281E-01  0.55938179237E-01  0.51100000000E-03 0.  1.
</event>
<event>
 8    1  0.1993226E+004  0.1043930E+01  0.7957747E-01            NaN
         13   -1    0    0    0    0  0.00000000000E+00  0.00000000000E+00  0.74505805969E-08  0.10566000000E+00  0.10566000000E+00 0.  1.
     999900   -1    0    0    0    0 -0.00000000000E+00 -0.00000000000E+00 -0.74505805969E-08  0.93827000000E+00  0.93827000000E+00 0. -1.
     999902    2    1    2    0    0 -0.94140494984E-02 -0.22955985557E-02 -0.96063679810E-02  0.10302853525E+01  0.10301949966E+01 0.  0.
     999903    2    3    3    0    0 -0.11761109771E+00 -0.55871496961E-01 -0.32978840214E-01  0.14173414370E+00  0.45243442757E-01 0.  0.
         14    1    1    2    0    0  0.94140494984E-02  0.22955985557E-02  0.96063679810E-02  0.13644647539E-01  0.00000000000E+00 0.  1.
     999901    1    3    3    0    0  0.10819704821E+00  0.53575898406E-01  0.23372472233E-01  0.88855120876E+00  0.88000000000E+00 0.  1.
        -11    1    4    4    0    0 -0.97017466317E-01 -0.56808098651E-01 -0.13266826261E-01  0.11320697259E+00  0.51100000000E-03 0. -1.
         11    1    4    4    0    0 -0.20593631388E-01  0.93660168960E-03 -0.19712013953E-01  0.28527171110E-01  0.51100000000E-03 0.  1.
</event>
<event>
 8    1  0.1993226E+004  0.1043930E+01  0.7957747E-01            NaN
         13   -1    0    0    0    0  0.00000000000E+00  0.00000000000E+00  0.74505805969E-08  0.10566000000E+00  0.10566000000E+00 0.  1.
     999900   -1    0    0    0    0 -0.00000000000E+00 -0.00000000000E+00 -0.74505805969E-08  0.93827000000E+00  0.93827000000E+00 0. -1.
     999902    2    1    2    0    0  0.11216160869E-01 -0.67294146401E-02  0.25217767550E-02  0.10306090900E+01  0.10305229981E+01 0.  0.
     999903    2    3    3    0    0  0.10719406702E+00  0.71599100650E-02 -0.79290209834E-01  0.14150961693E+00  0.46863653206E-01 0.  0.
         14    1    1    2    0    0 -0.11216160869E-01  0.67294146401E-02 -0.25217767550E-02  0.13320910030E-01  0.00000000000E+00 0. -1.
     999901    1    3    3    0    0 -0.95977906151E-01 -0.13889324705E-01  0.81811986589E-01  0.88909947304E+00  0.88000000000E+00 0.  1.
        -11    1    4    4    0    0  0.20227113156E-01  0.20979730637E-01 -0.19300126322E-01  0.34957705893E-01  0.51100000000E-03 0. -1.
         11    1    4    4    0    0  0.86966953864E-01 -0.13819820572E-01 -0.59990083512E-01  0.10655191104E+00  0.51100000000E-03 0.  1.
</event>
<event>
 8    1  0.1993226E+004  0.1043930E+01  0.7957747E-01            NaN
         13   -1    0    0    0    0  0.00000000000E+00  0.00000000000E+00  0.74505805969E-08  0.10566000000E+00  0.10566000000E+00 0. -1.
     999900   -1    0    0    0    0 -0.00000000000E+00 -0.00000000000E+00 -0.74505805969E-08  0.93827000000E+00  0.93827000000E+00 0. -1.
     999902    2    1    2    0    0  0.94000195567E-02  0.87139971708E-02  0.57056151125E-02  0.10298997413E+01  0.10298041702E+01 0.  0.
     999903    2    3    3    0    0  0.95773392122E-01 -0.25600686109E-01  0.89750584106E-01  0.14102325172E+00  0.44771111345E-01 0.  0.
         14    1    1    2    0    0 -0.94000195567E-02 -0.87139971708E-02 -0.57056151125E-02  0.14030258664E-01  0.00000000000E+00 0.  1.
     999901    1    3    3    0    0 -0.86373372565E-01  0.34314683279E-01 -0.84044968993E-01  0.88887648961E+00  0.88000000000E+00 0.  1.
        -11    1    4    4    0    0  0.37752650452E-01 -0.32780373002E-01  0.46701065142E-01  0.68418316822E-01  0.51100000000E-03 0. -1.
         11    1    4    4    0    0  0.58020741669E-01  0.71796868938E-02  0.43049518964E-01  0.72604934900E-01  0.51100000000E-03 0.  1.
</event>
<event>
 8    1  0.1993226E+004  0.1043930E+01  0.7957747E-01            NaN
         13   -1    0    0    0    0  0.00000000000E+00  0.00000000000E+00  0.74505805969E-08  0.10566000000E+00  0.10566000000E+00 0.  1.
     999900   -1    0    0    0    0 -0.00000000000E+00 -0.00000000000E+00 -0.74505805969E-08  0.93827000000E+00  0.93827000000E+00 0.  1.
     999902    2    1    2    0    0  0.20066350410E-02 -0.13097081603E-01 -0.50455421483E-03  0.10306704862E+01  0.10305851913E+01 0.  0.
     999903    2    3    3    0    0  0.20613377340E-02 -0.13089251662E+00 -0.33624646937E-01  0.14220399386E+00  0.44207001351E-01 0.  0.
         14    1    1    2    0    0 -0.20066350410E-02  0.13097081603E-01  0.50455421483E-03  0.13259513779E-01  0.00000000000E+00 0.  1.
     999901    1    3    3    0    0 -0.54702693007E-04  0.11779543502E+00  0.33120092722E-01  0.88846649236E+00  0.88000000000E+00 0.  1.
        -11    1    4    4    0    0  0.13221351173E-01 -0.58099713144E-01 -0.33905866487E-01  0.68558367087E-01  0.51100000000E-03 0. -1.
         11    1    4    4    0    0 -0.11160013439E-01 -0.72792803475E-01  0.28121955032E-03  0.73645626775E-01  0.51100000000E-03 0.  1.
</event>
<event>
 8    1  0.1993226E+004  0.1043930E+01  0.7957747E-01            NaN
         13   -1    0    0    0    0  0.00000000000E+00  0.00000000000E+00  0.74505805969E-08  0.10566000000E+00  0.10566000000E+00 0. -1.
     999900   -1    0    0    0    0 -0.00000000000E+00 -0.00000000000E+00 -0.74505805969E-08  0.93827000000E+00  0.93827000000E+00 0. -1.
     999902    2    1    2    0    0  0.10468361914E-01 -0.49699657642E-02  0.83677748763E-02  0.10296364064E+01  0.10295371886E+01 0.  0.
     999903    2    3    3    0    0  0.62288107737E-01 -0.84312180093E-01 -0.81188834322E-01  0.14002926882E+00  0.45035732810E-01 0.  0.
         14    1    1    2    0    0 -0.10468361914E-01  0.49699657642E-02 -0.83677748763E-02  0.14293593573E-01  0.00000000000E+00 0.  1.
     999901    1    3    3    0    0 -0.51819745823E-01  0.79342214329E-01  0.89556609199E-01  0.88960713761E+00  0.88000000000E+00 0.  1.
        -11    1    4    4    0    0  0.63571438879E-01 -0.61558000412E-01 -0.50789305724E-01  0.10203200455E+00  0.51100000000E-03 0.  1.
         11    1    4    4    0    0 -0.12833311418E-02 -0.22754179681E-01 -0.30399528598E-01  0.37997264267E-01  0.51100000000E-03 0. -1.
</event>
<event>
 8    1  0.1993226E+004  0.1043930E+01  0.7957747E-01            NaN
         13   -1    0    0    0    0  0.00000000000E+00  0.00000000000E+00  0.74505805969E-08  0.10566000000E+00  0.10566000000E+00 0.  1.
     999900   -1    0    0    0    0 -0.00000000000E+00 -0.00000000000E+00 -0.74505805969E-08  0.93827000000E+00  0.93827000000E+00 0.  1.
     999902    2    1    2    0    0  0.21795472543E-02  0.24349693902E-02 -0.12958751110E-01  0.10305655422E+01  0.10304788829E+01 0.  0.
     999903    2    3    3    0    0 -0.12801523361E+00 -0.12073326499E-01  0.30182178141E-01  0.13982298040E+00  0.45889396625E-01 0.  0.
         14    1    1    2    0    0 -0.21795472543E-02 -0.24349693902E-02  0.12958751110E-01  0.13364457808E-01  0.00000000000E+00 0.  1.
     999901    1    3    3    0    0  0.13019478086E+00  0.14508295890E-01 -0.43140929252E-01  0.89074256179E+00  0.88000000000E+00 0. -1.
        -11    1    4    4    0    0 -0.56337122332E-01  0.61204012974E-02 -0.69077480222E-02  0.57090356178E-01  0.51100000000E-03 0.  1.
         11    1    4    4    0    0 -0.71678111273E-01 -0.18193727797E-01  0.37089926163E-01  0.82732624222E-01  0.51100000000E-03 0. -1.
</event>
<event>
 8    1  0.1993226E+004  0.1043930E+01  0.7957747E-01            NaN
         13   -1    0    0    0    0  0.00000000000E+00  0.00000000000E+00  0.74505805969E-08  0.10566000000E+00  0.10566000000E+00 0. -1.
     999900   -1    0    0    0    0 -0.00000000000E+00 -0.00000000000E+00 -0.74505805969E-08  0.93827000000E+00  0.93827000000E+00 0.  1.
     999902    2    1    2    0    0  0.33015633177E-02 -0.13139860324E-01  0.31448868923E-02  0.10300214931E+01  0.10299275847E+01 0.  0.
     999903    2    3    3    0    0  0.58444858354E-01 -0.51084312563E-01 -0.10812230340E+00  0.14049299326E+00  0.44971548844E-01 0.  0.
         14    1    1    2    0    0 -0.33015633177E-02  0.13139860324E-01 -0.31448868923E-02  0.13908506866E-01  0.00000000000E+00 0. -1.
     999901    1    3    3    0    0 -0.55143295036E-01  0.37944452239E-01  0.11126719029E+00  0.88952849987E+00  0.88000000000E+00 0. -1.
        -11    1    4    4    0    0  0.18777414410E-02 -0.18005540497E-01 -0.48976569875E-01  0.52217726101E-01  0.51100000000E-03 0.  1.
         11    1    4    4    0    0  0.56567116913E-01 -0.33078772067E-01 -0.59145733527E-01  0.88275267163E-01  0.51100000000E-03 0. -1.
</event>
<event>
 8    1  0.1993226E+004  0.1043930E+01  0.7957747E-01            NaN
         13   -1    0    0    0    0  0.00000000000E+00  0.00000000000E+00  0.74505805969E-08  0.10566000000E+00  0.10566000000E+00 0.  1.
     999900   -1    0    0    0    0 -0.00000000000E+00 -0.00000000000E+00 -0.74505805969E-08  0.93827000000E+00  0.93827000000E+00 0. -1.
     999902    2    1    2    0    0 -0.38776907841E-02  0.13623714113E-01 -0.59869551149E-03  0.10297525352E+01  0.10296549341E+01 0.  0.
     999903    2    3    3    0    0  0.11715184681E+00 -0.35926751968E-01  0.46558817286E-01  0.13883883080E+00  0.45751620210E-01 0.  0.
         14    1    1    2    0    0  0.38776907841E-02 -0.13623714113E-01  0.59869551149E-03  0.14177464808E-01  0.00000000000E+00 0.  1.
     999901    1    3    3    0    0 -0.12102953760E+00  0.49550466081E-01 -0.47157512798E-01  0.89091370439E+00  0.88000000000E+00 0. -1.
        -11    1    4    4    0    0  0.56083965865E-01 -0.10901016516E-01 -0.15663961920E-02  0.57157310173E-01  0.51100000000E-03 0. -1.
         11    1    4    4    0    0  0.61067880950E-01 -0.25025735451E-01  0.48125213478E-01  0.81681520627E-01  0.51100000000E-03 0.  1.
</event>
<event>
 8    1  0.1993226E+004  0.1043930E+01  0.7957747E-01            NaN
         13   -1    0    0    0    0  0.00000000000E+00  0.00000000000E+00  0.74505805969E-08  0.10566000000E+00  0.10566000000E+00 0. -1.
     999900   -1    0    0    0    0 -0.00000000000E+00 -0.00000000000E+00 -0.74505805969E-08  0.93827000000E+00  0.93827000000E+00 0.  1.
     999902    2    1    2    0    0  0.84405160933E-02  0.13483310254E-02 -0.10082039777E-01  0.10307122909E+01  0.10306275364E+01 0.  0.
     999903    2    3    3    0    0 -0.32170450454E-01 -0.12757025746E+00  0.15911929417E-01  0.14001316126E+00  0.45181714841E-01 0.  0.
         14    1    1    2    0    0 -0.84405160933E-02 -0.13483310254E-02  0.10082039777E-01  0.13217709126E-01  0.00000000000E+00 0. -1.
     999901    1    3    3    0    0  0.40610966548E-01  0.12891858849E+00 -0.25993969194E-01  0.89069912961E+00  0.88000000000E+00 0.  1.
        -11    1    4    4    0    0 -0.73695148912E-02 -0.95363272618E-01 -0.18088838234E-02  0.95666068676E-01  0.51100000000E-03 0.  1.
         11    1    4    4    0    0 -0.24800935563E-01 -0.32206984847E-01  0.17720813240E-01  0.44347092584E-01  0.51100000000E-03 0. -1.
</event>
<event>
 8    1  0.1993226E+004  0.1043930E+01  0.7957747E-01            NaN
         13   -1    0    0    0    0  0.00000000000E+00  0.00000000000E+00  0.74505805969E-08  0.10566000000E+00  0.10566000000E+00 0. -1.
     999900   -1    0    0    0    0 -0.00000000000E+00 -0.00000000000E+00 -0.74505805969E-08  0.93827000000E+00  0.93827000000E+00 0. -1.
     999902    2    1    2    0    0  0.10401863026E-01  0.59542025077E-02  0.71847451240E-02  0.10299560298E+01  0.10298612292E+01 0.  0.
     999903    2    3    3    0    0 -0.12195469848E+00 -0.45241330210E-01 -0.13170025547E-01  0.13835434815E+00  0.45263115678E-01 0.  0.
         14    1    1    2    0    0 -0.10401863026E-01 -0.59542025077E-02 -0.71847451240E-02  0.13973970245E-01  0.00000000000E+00 0.  1.
     999901    1    3    3    0    0  0.13235656150E+00  0.51195532718E-01  0.20354770671E-01  0.89160168160E+00  0.88000000000E+00 0.  1.
        -11    1    4    4    0    0 -0.63826700346E-01 -0.47366009990E-01 -0.98345356388E-02  0.80089735870E-01  0.51100000000E-03 0.  1.
         11    1    4    4    0    0 -0.58127998130E-01  0.21246797806E-02 -0.33354899087E-02  0.58264612285E-01  0.51100000000E-03 0. -1.
</event>
<event>
 8    1  0.1993226E+004  0.1043930E+01  0.7957747E-01            NaN
         13   -1    0    0    0    0  0.00000000000E+00  0.00000000000E+00  0.74505805969E-08  0.10566000000E+00  0.10566000000E+00 0.  1.
     999900   -1    0    0    0    0 -0.00000000000E+00 -0.00000000000E+00 -0.74505805969E-08  0.93827000000E+00  0.93827000000E+00 0.  1.
     999902    2    1    2    0    0  0.13283781400E-01  0.39440407154E-02 -0.26030496182E-03  0.10300706326E+01  0.10299773911E+01 0.  0.
     999903    2    3    3    0    0  0.82217360624E-01  0.10534816167E+00 -0.16347257832E-01  0.14142367002E+00  0.43306951503E-01 0.  0.
         14    1    1    2    0    0 -0.13283781400E-01 -0.39440407154E-02  0.26030496182E-03  0.13859367378E-01  0.00000000000E+00 0. -1.
     999901    1    3    3    0    0 -0.68933579224E-01 -0.10140412095E+00  0.16086952870E-01  0.88864696260E+00  0.88000000000E+00 0. -1.
        -11    1    4    4    0    0  0.58394885390E-01  0.86197228600E-01  0.48408706100E-02  0.10422869090E+00  0.51100000000E-03 0. -1.
         11    1    4    4    0    0  0.23822475235E-01  0.19150933067E-01 -0.21188128442E-01  0.37194979117E-01  0.51100000000E-03 0.  1.
</event>
<event>
 8    1  0.1993226E+004  0.1043930E+01  0.7957747E-01            NaN
         13   -1    0    0    0    0  0.00000000000E+00  0.00000000000E+00  0.74505805969E-08  0.10566000000E+00  0.10566000000E+00 0. -1.
     999900   -1    0    0    0    0 -0.00000000000E+00 -0.00000000000E+00 -0.74505805969E-08  0.93827000000E+00  0.93827000000E+00 0.  1.
     999902    2    1    2    0    0  0.24017377919E-02 -0.11946986987E-01  0.64751871864E-02  0.10301304750E+01  0.10300380423E+01 0.  0.
     999903    2    3    3    0    0  0.12202277292E-01  0.11428247826E+00 -0.62908453991E-01  0.13836592187E+00  0.44477796057E-01 0.  0.
         14    1    1    2    0    0 -0.24017377919E-02  0.11946986987E-01 -0.64751871864E-02  0.13799525049E-01  0.00000000000E+00 0.  1.
     999901    1    3    3    0    0 -0.98005395005E-02 -0.12622946525E+00  0.69383641178E-01  0.89176455308E+00  0.88000000000E+00 0. -1.
        -11    1    4    4    0    0  0.70948700036E-02  0.43592093331E-01 -0.49305375791E-01  0.66195838119E-01  0.51100000000E-03 0. -1.
         11    1    4    4    0    0  0.51074072887E-02  0.70690384931E-01 -0.13603078200E-01  0.72170083749E-01  0.51100000000E-03 0.  1.
</event>
<event>
 8    1  0.1993226E+004  0.1043930E+01  0.7957747E-01            NaN
         13   -1    0    0    0    0  0.00000000000E+00  0.00000000000E+00  0.74505805969E-08  0.10566000000E+00  0.10566000000E+00 0.  1.
     999900   -1    0    0    0    0 -0.00000000000E+00 -0.00000000000E+00 -0.74505805969E-08  0.93827000000E+00  0.93827000000E+00 0.  1.
     999902    2    1    2    0    0  0.49614452645E-02 -0.84379194518E-02 -0.21534328313E-03  0.10341391473E+01  0.10340927982E+01 0.  0.
     999903    2    3    3    0    0 -0.43857801583E-01  0.41121832957E-01 -0.11701152378E+00  0.14370058362E+00  0.57824295331E-01 0.  0.
         14    1    1    2    0    0 -0.49614452645E-02  0.84379194518E-02  0.21534328313E-03  0.97908526961E-02  0.00000000000E+00 0. -1.
     999901    1    3    3    0    0  0.48819246847E-01 -0.49559752409E-01  0.11679618049E+00  0.89043856369E+00  0.88000000000E+00 0. -1.
        -11    1    4    4    0    0  0.12483893744E-01  0.10976094271E-01 -0.11067195917E-01  0.19976641232E-01  0.51100000000E-03 0. -1.
         11    1    4    4    0    0 -0.56341695326E-01  0.30145738686E-01 -0.10594432786E+00  0.12372394239E+00  0.51100000000E-03 0.  1.
</event>
<event>
 8    1  0.1993226E+004  0.1043930E+01  0.7957747E-01            NaN
         13   -1    0    0    0    0  0.00000000000E+00  0.00000000000E+00  0.74505805969E-08  0.10566000000E+00  0.10566000000E+00 0.  1.
     999900   -1    0    0    0    0 -0.00000000000E+00 -0.00000000000E+00 -0.74505805969E-08  0.93827000000E+00  0.93827000000E+00 0. -1.
     999902    2    1    2    0    0  0.12473401566E-01  0.54314845239E-02 -0.54047850969E-02  0.10292910631E+01  0.10291869578E+01 0.  0.
     999903    2    3    3    0    0  0.75921199715E-01 -0.10015217722E+00  0.40976415751E-01  0.13950190355E+00  0.44578327445E-01 0.  0.
         14    1    1    2    0    0 -0.12473401566E-01 -0.54314845239E-02  0.54047850969E-02  0.14638936871E-01  0.00000000000E+00 0. -1.
     999901    1    3    3    0    0 -0.63447798149E-01  0.10558366174E+00 -0.46381200848E-01  0.88978915958E+00  0.88000000000E+00 0. -1.
        -11    1    4    4    0    0  0.56161111211E-01 -0.80264442098E-01  0.11199864228E-01  0.98600959212E-01  0.51100000000E-03 0. -1.
         11    1    4    4    0    0  0.19760088504E-01 -0.19887735121E-01  0.29776551524E-01  0.40900944336E-01  0.51100000000E-03 0.  1.
</event>
<event>
 8    1  0.1993226E+004  0.1043930E+01  0.7957747E-01            NaN
         13   -1    0    0    0    0  0.00000000000E+00  0.00000000000E+00  0.74505805969E-08  0.10566000000E+00  0.10566000000E+00 0. -1.
     999900   -1    0    0    0    0 -0.00000000000E+00 -0.00000000000E+00 -0.74505805969E-08  0.93827000000E+00  0.93827000000E+00 0. -1.
     999902    2    1    2    0    0  0.13753436205E-01  0.52495598059E-02 -0.11622389265E-02  0.10291629527E+01  0.10290570041E+01 0.  0.
     999903    2    3    3    0    0 -0.10471060169E+00 -0.75504450706E-01  0.16206591897E-01  0.13739133692E+00  0.44141745052E-01 0.  0.
         14    1    1    2    0    0 -0.13753436205E-01 -0.52495598059E-02  0.11622389265E-02  0.14767047265E-01  0.00000000000E+00 0.  1.
     999901    1    3    3    0    0  0.11846403790E+00  0.80754010512E-01 -0.17368830824E-01  0.89177161582E+00  0.88000000000E+00 0. -1.
        -11    1    4    4    0    0 -0.21773631936E-01 -0.23509067646E-01 -0.13964838959E-01  0.34957762478E-01  0.51100000000E-03 0.  1.
         11    1    4    4    0    0 -0.82936969758E-01 -0.51995383060E-01  0.30171430856E-01  0.10243357444E+00  0.51100000000E-03 0. -1.
</event>
<event>
 8    1  0.1993226E+004  0.1043930E+01  0.7957747E-01            NaN
         13   -1    0    0    0    0  0.00000000000E+00  0.00000000000E+00  0.74505805969E-08  0.10566000000E+00  0.10566000000E+00 0. -1.
     999900   -1    0    0    0    0 -0.00000000000E+00 -0.00000000000E+00 -0.74505805969E-08  0.93827000000E+00  0.93827000000E+00 0.  1.
     999902    2    1    2    0    0  0.50737179885E-02  0.12289399597E-01 -0.93734370756E-02  0.10276624470E+01  0.10275336840E+01 0.  0.
     999903    2    3    3    0    0 -0.45227286073E-01 -0.11510862724E+00  0.34564099568E-01  0.13598371825E+00  0.44736910704E-01 0.  0.
         14    1    1    2    0    0 -0.50737179885E-02 -0.12289399597E-01  0.93734370756E-02  0.16267552959E-01  0.00000000000E+00 0. -1.
     999901    1    3    3    0    0  0.50301004061E-01  0.12739802684E+00 -0.43937536644E-01  0.89167872879E+00  0.88000000000E+00 0. -1.
        -11    1    4    4    0    0 -0.30402192439E-02 -0.65950967884E-01  0.10367635602E-01  0.66832043863E-01  0.51100000000E-03 0. -1.
         11    1    4    4    0    0 -0.42187066829E-01 -0.49157659356E-01  0.24196463966E-01  0.69151674387E-01  0.51100000000E-03 0.  1.
</event>
<event>
 8    1  0.1993226E+004  0.1043930E+01  0.7957747E-01            NaN
         13   -1    0    0    0    0  0.00000000000E+00  0.00000000000E+00  0.74505805969E-08  0.10566000000E+00  0.10566000000E+00 0. -1.
     999900   -1    0    0    0    0 -0.00000000000E+00 -0.00000000000E+00 -0.74505805969E-08  0.93827000000E+00  0.93827000000E+00 0.  1.
     999902    2    1    2    0    0 -0.86202086092E-02  0.42761300488E-02  0.10220759382E-01  0.10298922934E+01  0.10297966201E+01 0.  0.
     999903    2    3    3    0    0 -0.84340641634E-01 -0.49237769892E-01 -0.89251882524E-01  0.13944738888E+00  0.44067833137E-01 0.  0.
         14    1    1    2    0    0  0.86202086092E-02 -0.42761300488E-02 -0.10220759382E-01  0.14037706615E-01  0.00000000000E+00 0.  1.
     999901    1    3    3    0    0  0.75720433024E-01  0.53513899941E-01  0.99472641906E-01  0.89044490450E+00  0.88000000000E+00 0. -1.
        -11    1    4    4    0    0 -0.48125892551E-01 -0.18943233963E-01 -0.73090883859E-01  0.89540415853E-01  0.51100000000E-03 0.  1.
         11    1    4    4    0    0 -0.36214749083E-01 -0.30294535929E-01 -0.16160998665E-01  0.49906973031E-01  0.51100000000E-03 0. -1.
</event>
<event>
 8    1  0.1993226E+004  0.1043930E+01  0.7957747E-01            NaN
         13   -1    0    0    0    0  0.00000000000E+00  0.00000000000E+00  0.74505805969E-08  0.10566000000E+00  0.10566000000E+00 0.  1.
     999900   -1    0    0    0    0 -0.00000000000E+00 -0.00000000000E+00 -0.74505805969E-08  0.93827000000E+00  0.93827000000E+00 0. -1.
     999902    2    1    2    0    0  0.31291731183E-02 -0.52839257525E-02  0.12982291003E-01  0.10295685420E+01  0.10294683731E+01 0.  0.
     999903    2    3    3    0    0  0.85616936702E-01 -0.56820694946E-01  0.85704664088E-01  0.14122805928E+00  0.45179907671E-01 0.  0.
         14    1    1    2    0    0 -0.31291731183E-02  0.52839257525E-02 -0.12982291003E-01  0.14361457985E-01  0.00000000000E+00 0. -1.
     999901    1    3    3    0    0 -0.82487763583E-01  0.51536769194E-01 -0.72722373085E-01  0.88834048274E+00  0.88000000000E+00 0. -1.
        -11    1    4    4    0    0  0.10143189804E-01 -0.21828088678E-01  0.36002864821E-02  0.24342821087E-01  0.51100000000E-03 0.  1.
         11    1    4    4    0    0  0.75473746898E-01 -0.34992606268E-01  0.82104377606E-01  0.11688523819E+00  0.51100000000E-03 0. -1.
</event>
<event>
 8    1  0.1993226E+004  0.1043930E+01  0.7957747E-01            NaN
         13   -1    0    0    0    0  0.00000000000E+00  0.00000000000E+00  0.74505805969E-08  0.10566000000E+00  0.10566000000E+00 0. -1.
     999900   -1    0    0    0    0 -0.00000000000E+00 -0.00000000000E+00 -0.74505805969E-08  0.93827000000E+00  0.93827000000E+00 0. -1.
     999902    2    1    2    0    0 -0.11146547776E-01 -0.66336914572E-04  0.55890502157E-02  0.10314605409E+01  0.10313851657E+01 0.  0.
     999903    2    3    3    0    0  0.85818424627E-01  0.92973169717E-01  0.41877977941E-01  0.14051977859E+00  0.44533480064E-01 0.  0.
         14    1    1    2    0    0  0.11146547776E-01  0.66336914572E-04 -0.55890502157E-02  0.12469459099E-01  0.00000000000E+00 0.  1.
     999901    1    3    3    0    0 -0.96964972403E-01 -0.93039506632E-01 -0.36288927725E-01  0.89094076231E+00  0.88000000000E+00 0. -1.
        -11    1    4    4    0    0  0.36755620988E-01  0.66907749705E-01  0.36746218523E-01  0.84724071795E-01  0.51100000000E-03 0. -1.
         11    1    4    4    0    0  0.49062803639E-01  0.26065420012E-01  0.51317594177E-02  0.55795706797E-01  0.51100000000E-03 0.  1.
</event>
<event>
 8    1  0.1993226E+004  0.1043930E+01  0.7957747E-01            NaN
         13   -1    0    0    0    0  0.00000000000E+00  0.00000000000E+00  0.74505805969E-08  0.10566000000E+00  0.10566000000E+00 0.  1.
     999900   -1    0    0    0    0 -0.00000000000E+00 -0.00000000000E+00 -0.74505805969E-08  0.93827000000E+00  0.93827000000E+00 0. -1.
     999902    2    1    2    0    0 -0.40991513785E-02 -0.13283576452E-01 -0.38655682432E-02  0.10295008953E+01  0.10293997738E+01 0.  0.
     999903    2    3    3    0    0  0.31873295848E-01 -0.12785847962E+00 -0.24824550929E-01  0.14109743718E+00  0.43915039016E-01 0.  0.
         14    1    1    2    0    0  0.40991513785E-02  0.13283576452E-01  0.38655682432E-02  0.14429104727E-01  0.00000000000E+00 0. -1.
     999901    1    3    3    0    0 -0.35972447226E-01  0.11457490317E+00  0.20958982686E-01  0.88840345809E+00  0.88000000000E+00 0. -1.
        -11    1    4    4    0    0  0.37876727900E-01 -0.77043878345E-01 -0.42878723101E-02  0.85959599096E-01  0.51100000000E-03 0.  1.
         11    1    4    4    0    0 -0.60034320527E-02 -0.50814601273E-01 -0.20536678619E-01  0.55137838084E-01  0.51100000000E-03 0. -1.
</event>
<event>
 8    1  0.1993226E+004  0.1043930E+01  0.7957747E-01            NaN
         13   -1    0    0    0    0  0.00000000000E+00  0.00000000000E+00  0.74505805969E-08  0.10566000000E+00  0.10566000000E+00 0. -1.
     999900   -1    0    0    0    0 -0.00000000000E+00 -0.00000000000E+00 -0.74505805969E-08  0.93827000000E+00  0.93827000000E+00 0.  1.
     999902    2    1    2    0    0  0.88377008764E-02 -0.51548995916E-02  0.75608190366E-02  0.10312082104E+01  0.10311297344E+01 0.  0.
     999903    2    3    3    0    0 -0.26462527711E-01 -0.10314802088E+00  0.82556202990E-01  0.14189776651E+00  0.44493481592E-01 0.  0.
         14    1    1    2    0    0 -0.88377008764E-02  0.51548995916E-02 -0.75608190366E-02  0.12721789618E-01  0.00000000000E+00 0.  1.
     999901    1    3    3    0    0  0.35300228588E-01  0.97993121293E-01 -0.74995383953E-01  0.88931044387E+00  0.88000000000E+00 0.  1.
        -11    1    4    4    0    0 -0.25956966117E-01 -0.69868457097E-01  0.78689452858E-01  0.10838660664E+00  0.51100000000E-03 0.  1.
         11    1    4    4    0    0 -0.50556159422E-03 -0.33279563788E-01  0.38667501320E-02  0.33511159873E-01  0.51100000000E-03 0. -1.
</event>
<event>
 8    1  0.1993226E+004  0.1043930E+01  0.7957747E-01            NaN
         13   -1    0    0    0    0  0.00000000000E+00  0.00000000000E+00  0.74505805969E-08  0.10566000000E+00  0.10566000000E+00 0. -1.
     999900   -1    0    0    0    0 -0.00000000000E+00 -0.00000000000E+00 -0.74505805969E-08  0.93827000000E+00  0.93827000000E+00 0. -1.
     999902    2    1    2    0    0  0.21445030810E-03 -0.13519563796E-01  0.60400324538E-02  0.10291209964E+01  0.10290144405E+01 0.  0.
     999903    2    3    3    0    0  0.24198271899E-01  0.12097599856E+00  0.43813976513E-01  0.13777866556E+00  0.42924905997E-01 0.  0.
         14    1    1    2    0    0 -0.21445030810E-03  0.13519563796E-01 -0.60400324538E-02  0.14809003552E-01  0.00000000000E+00 0.  1.
     999901    1    3    3    0    0 -0.23983821590E-01 -0.13449556235E+00 -0.37773944060E-01  0.89134233089E+00  0.88000000000E+00 0. -1.
        -11    1    4    4    0    0  0.11072751153E-01  0.32825299765E-01  0.33268574129E-01  0.48032960229E-01  0.51100000000E-03 0. -1.
         11    1    4    4    0    0  0.13125520745E-01  0.88150698791E-01  0.10545402385E-01  0.89745705327E-01  0.51100000000E-03 0.  1.
</event>
<event>
 8    1  0.1993226E+004  0.1043930E+01  0.7957747E-01            NaN
         13   -1    0    0    0    0  0.00000000000E+00  0.00000000000E+00  0.74505805969E-08  0.10566000000E+00  0.10566000000E+00 0.  1.
     999900   -1    0    0    0    0 -0.00000000000E+00 -0.00000000000E+00 -0.74505805969E-08  0.93827000000E+00  0.93827000000E+00 0. -1.
     999902    2    1    2    0    0 -0.82307776395E-02 -0.10213597135E-01 -0.34544197110E-02  0.10303654771E+01  0.10302761863E+01 0.  0.
     999903    2    3    3    0    0  0.13168632588E+00 -0.86740075736E-02 -0.20532710170E-02  0.13930928949E+00  0.44568322666E-01 0.  0.
         14    1    1    2    0    0  0.82307776395E-02  0.10213597135E-01  0.34544197110E-02  0.13564522938E-01  0.00000000000E+00 0. -1.
     999901    1    3    3    0    0 -0.13991710352E+00 -0.15395895617E-02 -0.14011486940E-02  0.89105618757E+00  0.88000000000E+00 0.  1.
        -11    1    4    4    0    0  0.89110360775E-01 -0.24664993399E-01  0.77345216397E-02  0.92785247981E-01  0.51100000000E-03 0.  1.
         11    1    4    4    0    0  0.42575965104E-01  0.15990985826E-01 -0.97877926567E-02  0.46524041509E-01  0.51100000000E-03 0. -1.
</event>
<event>
 8    1  0.1993226E+004  0.1043930E+01  0.7957747E-01            NaN
         13   -1    0    0    0    0  0.00000000000E+00  0.00000000000E+00  0.74505805969E-08  0.10566000000E+00  0.10566000000E+00 0.  1.
     999900   -1    0    0    0    0 -0.00000000000E+00 -0.00000000000E+00 -0.74505805969E-08  0.93827000000E+00  0.93827000000E+00 0.  1.
     999902    2    1    2    0    0 -0.29615667183E-02  0.29979517775E-02  0.13325850003E-01  0.10299537033E+01  0.10298588709E+01 0.  0.
     999903    2    3    3    0    0  0.95930151176E-01  0.85516227068E-01 -0.30208159402E-01  0.13951333603E+00  0.45120051394E-01 0.  0.
         14    1    1    2    0    0  0.29615667183E-02 -0.29979517775E-02 -0.13325850003E-01  0.13976296741E-01  0.00000000000E+00 0. -1.
     999901    1    3    3    0    0 -0.98891717895E-01 -0.82518275290E-01  0.43534009405E-01  0.89044036723E+00  0.88000000000E+00 0.  1.
        -11    1    4    4    0    0  0.92717690022E-01  0.83803638717E-01 -0.17396217686E-01  0.12618442620E+00  0.51100000000E-03 0. -1.
         11    1    4    4    0    0  0.32124611547E-02  0.17125883503E-02 -0.12811941716E-01  0.13328909823E-01  0.51100000000E-03 0.  1.
</event>
<event>
 8    1  0.1993226E+004  0.1043930E+01  0.7957747E-01            NaN
         13   -1    0    0    0    0  0.00000000000E+00  0.00000000000E+00  0.74505805969E-08  0.10566000000E+00  0.10566000000E+00 0. -1.
     999900   -1    0    0    0    0 -0.00000000000E+00 -0.00000000000E+00 -0.74505805969E-08  0.93827000000E+00  0.93827000000E+00 0. -1.
     999902    2    1    2    0    0  0.87474679684E-02  0.19826696561E-02  0.10976271515E-01  0.10297551028E+01  0.10296575372E+01 0.  0.
     999903    2    3    3    0    0  0.13239696046E+00  0.25181236160E-02  0.18548541316E-01  0.14107809567E+00  0.44985382133E-01 0.  0.
         14    1    1    2    0    0 -0.87474679684E-02 -0.19826696561E-02 -0.10976271515E-01  0.14174897220E-01  0.00000000000E+00 0.  1.
     999901    1    3    3    0    0 -0.12364949249E+00 -0.53545395986E-03 -0.75722698015E-02  0.88867700711E+00  0.88000000000E+00 0. -1.
        -11    1    4    4    0    0  0.32776986150E-01  0.68200678293E-02  0.24029996040E-01  0.41213419865E-01  0.51100000000E-03 0. -1.
         11    1    4    4    0    0  0.99619974312E-01 -0.43019442133E-02 -0.54814547239E-02  0.99864675801E-01  0.51100000000E-03 0.  1.
</event>
<event>
 8    1  0.1993226E+004  0.1043930E+01  0.7957747E-01            NaN
         13   -1    0    0    0    0  0.00000000000E+00  0.00000000000E+00  0.74505805969E-08  0.10566000000E+00  0.10566000000E+00 0. -1.
     999900   -1    0    0    0    0 -0.00000000000E+00 -0.00000000000E+00 -0.74505805969E-08  0.93827000000E+00  0.93827000000E+00 0.  1.
     999902    2    1    2    0    0 -0.62017286547E-02 -0.98775543572E-02  0.76932947450E-02  0.10299580888E+01  0.10298633164E+01 0.  0.
     999903    2    3    3    0    0  0.14855324931E-01  0.12261983257E+00  0.45111738346E-01  0.13900405129E+00  0.45063880425E-01 0.  0.
         14    1    1    2    0    0  0.62017286547E-02  0.98775543572E-02 -0.76932947450E-02  0.13971911194E-01  0.00000000000E+00 0. -1.
     999901    1    3    3    0    0 -0.21057053586E-01 -0.13249738693E+00 -0.37418443601E-01  0.89095403752E+00  0.88000000000E+00 0. -1.
        -11    1    4    4    0    0 -0.11966902832E-01  0.24918329791E-01 -0.10463562766E-02  0.27667415951E-01  0.51100000000E-03 0. -1.
         11    1    4    4    0    0  0.26822227763E-01  0.97701502781E-01  0.46158094623E-01  0.11133663534E+00  0.51100000000E-03 0.  1.
</event>
<event>
 8    1  0.1993226E+004  0.1043930E+01  0.7957747E-01            NaN
         13   -1    0    0    0    0  0.00000000000E+00  0.00000000000E+00  0.74505805969E-08  0.10566000000E+00  0.10566000000E+00 0. -1.
     999900   -1    0    0    0    0 -0.00000000000E+00 -0.00000000000E+00 -0.74505805969E-08  0.93827000000E+00  0.93827000000E+00 0. -1.
     999902    2    1    2    0    0 -0.68207896580E-02  0.64978842964E-02  0.10089131790E-01  0.10301265130E+01  0.10300340269E+01 0.  0.
     999903    2    3    3    0    0  0.92148811050E-01 -0.86670448059E-01  0.37175947723E-01  0.13927915484E+00  0.44871616190E-01 0.  0.
         14    1    1    2    0    0  0.68207896580E-02 -0.64978842964E-02 -0.10089131790E-01  0.13803486957E-01  0.00000000000E+00 0. -1.
     999901    1    3    3    0    0 -0.98969600708E-01  0.93168332355E-01 -0.27086815933E-01  0.89084735820E+00  0.88000000000E+00 0.  1.
        -11    1    4    4    0    0  0.44128743104E-01 -0.70512014823E-01  0.18039038278E-01  0.85117320360E-01  0.51100000000E-03 0. -1.
         11    1    4    4    0    0  0.48020067946E-01 -0.16158433236E-01  0.19136909445E-01  0.54161834481E-01  0.51100000000E-03 0.  1.
</event>
<event>
 8    1  0.1993226E+004  0.1043930E+01  0.7957747E-01            NaN
         13   -1    0    0    0    0  0.00000000000E+00  0.00000000000E+00  0.74505805969E-08  0.10566000000E+00  0.10566000000E+00 0.  1.
     999900   -1    0    0    0    0 -0.00000000000E+00 -0.00000000000E+00 -0.74505805969E-08  0.93827000000E+00  0.93827000000E+00 0. -1.
     999902    2    1    2    0    0  0.28354435179E-03  0.13969500777E-01 -0.12470447340E-02  0.10299020825E+01  0.10298065435E+01 0.  0.
     999903    2    3    3    0    0  0.11953158048E+00  0.46128815820E-01 -0.36967158037E-01  0.14055949261E+00  0.44437977085E-01 0.  0.
         14    1    1    2    0    0 -0.28354435179E-03 -0.13969500777E-01  0.12470447340E-02  0.14027917520E-01  0.00000000000E+00 0. -1.
     999901    1    3    3    0    0 -0.11924803613E+00 -0.32159315042E-01  0.35720113303E-01  0.88934258987E+00  0.88000000000E+00 0.  1.
        -11    1    4    4    0    0  0.54025122951E-01  0.95625957810E-02 -0.35825687538E-01  0.65527842605E-01  0.51100000000E-03 0.  1.
         11    1    4    4    0    0  0.65506457532E-01  0.36566220039E-01 -0.11414704989E-02  0.75031650003E-01  0.51100000000E-03 0. -1.
</event>
<event>
 7    1  0.1993226E+004  0.1043930E+01  0.7957747E-01            NaN
         13   -1    0    0    0    0  0.00000000000E+00  0.00000000000E+00  0.74505805969E-08  0.10566000000E+00  0.10566000000E+00 0.  1.
     999900   -1    0    0    0    0 -0.00000000000E+00 -0.00000000000E+00 -0.74505805969E-08  0.93827000000E+00  0.93827000000E+00 0.  1.
     999903    2    1    2    0    0 -0.52373715331E-01 -0.33081037064E-01  0.39767469474E-01  0.86284356266E-01  0.45013080732E-01 0.  0.
         14    1    1    2    0    0 -0.44584269883E-01 -0.15631823918E-01  0.47129752291E-01  0.66733234531E-01  0.00000000000E+00 0.  1.
     999901    1    1    2    0    0  0.96957985214E-01  0.48712860982E-01 -0.86897221765E-01  0.89091240920E+00  0.88000000000E+00 0.  1.
        -11    1    3    3    0    0 -0.26789494433E-01  0.20458299411E-02  0.32583737960E-01  0.42235335118E-01  0.51100000000E-03 0. -1.
         11    1    3    3    0    0 -0.25584220898E-01 -0.35126867005E-01  0.71837315140E-02  0.44049021147E-01  0.51100000000E-03 0.  1.
</event>
<event>
 8    1  0.2185040E+004  0.1043930E+01  0.7957747E-01            NaN
         13   -1    0    0    0    0  0.00000000000E+00  0.00000000000E+00  0.74505805969E-08  0.10566000000E+00  0.10566000000E+00 0. -1.
     999900   -1    0    0    0    0 -0.00000000000E+00 -0.00000000000E+00 -0.74505805969E-08  0.93827000000E+00  0.93827000000E+00 0.  1.
     999902    2    1    2    0    0 -0.34347137154E-02 -0.86870977392E-02 -0.96035328807E-02  0.10305325835E+01  0.10304454934E+01 0.  0.
     999903    2    3    3    0    0  0.37640888036E-01  0.10097964676E+00 -0.76204632551E-01  0.14027997530E+00  0.47514207727E-01 0.  0.
         14    1    1    2    0    0  0.34347137154E-02  0.86870977392E-02  0.96035328807E-02  0.13397416513E-01  0.00000000000E+00 0.  1.
     999901    1    3    3    0    0 -0.41075601751E-01 -0.10966674450E+00  0.66601099670E-01  0.89025260819E+00  0.88000000000E+00 0. -1.
        -11    1    4    4    0    0  0.41862673209E-01  0.46093566674E-01 -0.46593290560E-01  0.77770792352E-01  0.51100000000E-03 0.  1.
         11    1    4    4    0    0 -0.42217851727E-02  0.54886080085E-01 -0.29611341991E-01  0.62509182947E-01  0.51100000000E-03 0. -1.
</event>
<event>
 8    1  0.1993226E+004  0.1043930E+01  0.7957747E-01            NaN
         13   -1    0    0    0    0  0.00000000000E+00  0.00000000000E+00  0.74505805969E-08  0.10566000000E+00  0.10566000000E+00 0.  1.
     999900   -1    0    0    0    0 -0.00000000000E+00 -0.00000000000E+00 -0.74505805969E-08  0.93827000000E+00  0.93827000000E+00 0. -1.
     999902    2    1    2    0    0  0.73153130189E-02 -0.21441447937E-02  0.11716516719E-01  0.10299518769E+01  0.10298570196E+01 0.  0.
     999903    2    3    3    0    0  0.86963634930E-01 -0.74016650120E-01  0.70717128622E-01  0.14147532436E+00  0.44420905288E-01 0.  0.
         14    1    1    2    0    0 -0.73153130189E-02  0.21441447937E-02 -0.11716516719E-01  0.13978123103E-01  0.00000000000E+00 0. -1.
     999901    1    3    3    0    0 -0.79648321911E-01  0.71872505327E-01 -0.59000611903E-01  0.88847655254E+00  0.88000000000E+00 0.  1.
        -11    1    4    4    0    0  0.49245186159E-02 -0.19436676879E-01 -0.22214038194E-03  0.20058558250E-01  0.51100000000E-03 0. -1.
         11    1    4    4    0    0  0.82039116314E-01 -0.54579973241E-01  0.70939269004E-01  0.12141676611E+00  0.51100000000E-03 0.  1.
</event>
<event>
 8    1  0.1993226E+004  0.1043930E+01  0.7957747E-01            NaN
         13   -1    0    0    0    0  0.00000000000E+00  0.00000000000E+00  0.74505805969E-08  0.10566000000E+00  0.10566000000E+00 0. -1.
     999900   -1    0    0    0    0 -0.00000000000E+00 -0.00000000000E+00 -0.74505805969E-08  0.93827000000E+00  0.93827000000E+00 0. -1.
     999902    2    1    2    0    0 -0.11482632860E-01 -0.11163559774E-02  0.66629638270E-02  0.10306073803E+01  0.10305212662E+01 0.  0.
     999903    2    3    3    0    0 -0.25356276093E-01 -0.71332236317E-01 -0.10936110378E+00  0.14011070313E+00  0.44044630061E-01 0.  0.
         14    1    1    2    0    0  0.11482632860E-01  0.11163559774E-02 -0.66629638270E-02  0.13322619675E-01  0.00000000000E+00 0.  1.
     999901    1    3    3    0    0  0.13873643234E-01  0.70215880340E-01  0.11602406760E+00  0.89049667719E+00  0.88000000000E+00 0.  1.
        -11    1    4    4    0    0 -0.17331899805E-02 -0.49294545157E-01 -0.89473621619E-01  0.10217018262E+00  0.51100000000E-03 0.  1.
         11    1    4    4    0    0 -0.23623086113E-01 -0.22037691160E-01 -0.19887482158E-01  0.37940520512E-01  0.51100000000E-03 0. -1.
</event>
<event>
 8    1  0.1993226E+004  0.1043930E+01  0.7957747E-01            NaN
         13   -1    0    0    0    0  0.00000000000E+00  0.00000000000E+00  0.74505805969E-08  0.10566000000E+00  0.10566000000E+00 0.  1.
     999900   -1    0    0    0    0 -0.00000000000E+00 -0.00000000000E+00 -0.74505805969E-08  0.93827000000E+00  0.93827000000E+00 0. -1.
     999902    2    1    2    0    0 -0.94657201282E-02  0.10947517909E-01  0.10955617527E-01  0.10257785934E+01  0.10256179840E+01 0.  0.
     999903    2    3    3    0    0  0.41339477200E-02  0.72810675558E-01  0.10334290336E+00  0.13867802875E+00  0.56862606192E-01 0.  0.
         14    1    1    2    0    0  0.94657201282E-02 -0.10947517909E-01 -0.10955617527E-01  0.18151406593E-01  0.00000000000E+00 0. -1.
     999901    1    3    3    0    0 -0.13599667848E-01 -0.61863157649E-01 -0.92387285833E-01  0.88710056466E+00  0.88000000000E+00 0.  1.
        -11    1    4    4    0    0  0.36588422017E-02  0.38328780406E-01  0.95974055336E-01  0.10341065203E+00  0.51100000000E-03 0. -1.
         11    1    4    4    0    0  0.47510551827E-03  0.34481895151E-01  0.73688480232E-02  0.35267376720E-01  0.51100000000E-03 0.  1.
</event>
<event>
 8    1  0.1993226E+004  0.1043930E+01  0.7957747E-01            NaN
         13   -1    0    0    0    0  0.00000000000E+00  0.00000000000E+00  0.74505805969E-08  0.10566000000E+00  0.10566000000E+00 0.  1.
     999900   -1    0    0    0    0 -0.00000000000E+00 -0.00000000000E+00 -0.74505805969E-08  0.93827000000E+00  0.93827000000E+00 0. -1.
     999902    2    1    2    0    0 -0.33202002801E-02 -0.62046151141E-03 -0.17977842002E-01  0.10256376107E+01  0.10254744741E+01 0.  0.
     999903    2    3    3    0    0 -0.89574210879E-01  0.83429465565E-01  0.37388090448E-01  0.13571091090E+00  0.45117258898E-01 0.  0.
         14    1    1    2    0    0  0.33202002801E-02  0.62046151141E-03  0.17977842002E-01  0.18292389276E-01  0.00000000000E+00 0.  1.
     999901    1    3    3    0    0  0.86254010599E-01 -0.84049927077E-01 -0.55365932450E-01  0.88992669983E+00  0.88000000000E+00 0. -1.
        -11    1    4    4    0    0 -0.61077453147E-01  0.80968387924E-01  0.24532283307E-01  0.10434763616E+00  0.51100000000E-03 0.  1.
         11    1    4    4    0    0 -0.28496757732E-01  0.24610776414E-02  0.12855807141E-01  0.31363274743E-01  0.51100000000E-03 0. -1.
</event>
<event>
 8    1  0.1993226E+004  0.1043930E+01  0.7957747E-01            NaN
         13   -1    0    0    0    0  0.00000000000E+00  0.00000000000E+00  0.74505805969E-08  0.10566000000E+00  0.10566000000E+00 0. -1.
     999900   -1    0    0    0    0 -0.00000000000E+00 -0.00000000000E+00 -0.74505805969E-08  0.93827000000E+00  0.93827000000E+00 0.  1.
     999902    2    1    2    0    0 -0.11539660715E-01 -0.20289219006E-02  0.55505413741E-02  0.10309650934E+01  0.10308835701E+01 0.  0.
     999903    2    3    3    0    0 -0.27010264205E-01  0.12218438494E+00 -0.46486676428E-01  0.14058531084E+00  0.44098075273E-01 0.  0.
         14    1    1    2    0    0  0.11539660715E-01  0.20289219006E-02 -0.55505413741E-02  0.12964906596E-01  0.00000000000E+00 0.  1.
     999901    1    3    3    0    0  0.15470603491E-01 -0.12421330684E+00  0.52037217802E-01  0.89037978257E+00  0.88000000000E+00 0. -1.
        -11    1    4    4    0    0  0.80429616433E-02  0.39217494901E-01 -0.18945359522E-02  0.40081810411E-01  0.51100000000E-03 0.  1.
         11    1    4    4    0    0 -0.35053225848E-01  0.82966890036E-01 -0.44592140476E-01  0.10050350043E+00  0.51100000000E-03 0. -1.
</event>
<event>
 8    1  0.1993226E+004  0.1043930E+01  0.7957747E-01            NaN
         13   -1    0    0    0    0  0.00000000000E+00  0.00000000000E+00  0.74505805969E-08  0.10566000000E+00  0.10566000000E+00 0.  1.
     999900   -1    0    0    0    0 -0.00000000000E+00 -0.00000000000E+00 -0.74505805969E-08  0.93827000000E+00  0.93827000000E+00 0. -1.
     999902    2    1    2    0    0 -0.69456978088E-02 -0.62069057307E-03  0.12295358963E-01  0.10297948018E+01  0.10296977858E+01 0.  0.
     999903    2    3    3    0    0  0.10209660736E+00 -0.76927319824E-01  0.31239420799E-01  0.13958594800E+00  0.46548960222E-01 0.  0.
         14    1    1    2    0    0  0.69456978088E-02  0.62069057307E-03 -0.12295358963E-01  0.14135198154E-01  0.00000000000E+00 0. -1.
     999901    1    3    3    0    0 -0.10904230517E+00  0.76306629251E-01 -0.18944061837E-01  0.89020885384E+00  0.88000000000E+00 0.  1.
        -11    1    4    4    0    0  0.66883575673E-01 -0.29047449426E-01  0.33187169144E-01  0.80117515749E-01  0.51100000000E-03 0.  1.
         11    1    4    4    0    0  0.35213031687E-01 -0.47879870398E-01 -0.19477483445E-02  0.59468432253E-01  0.51100000000E-03 0. -1.
</event>
<event>
 8    1  0.1993226E+004  0.1043930E+01  0.7957747E-01            NaN
         13   -1    0    0    0    0  0.00000000000E+00  0.00000000000E+00  0.74505805969E-08  0.10566000000E+00  0.10566000000E+00 0.  1.
     999900   -1    0    0    0    0 -0.00000000000E+00 -0.00000000000E+00 -0.74505805969E-08  0.93827000000E+00  0.93827000000E+00 0. -1.
     999902    2    1    2    0    0 -0.78352892694E-02 -0.11065900446E-02  0.11425499027E-01  0.10300318588E+01  0.10299380913E+01 0.  0.
     999903    2    3    3    0    0 -0.57371015126E-01  0.11238388509E+00 -0.40938294401E-01  0.13982073617E+00  0.44185102800E-01 0.  0.
         14    1    1    2    0    0  0.78352892694E-02  0.11065900446E-02 -0.11425499027E-01  0.13898141152E-01  0.00000000000E+00 0. -1.
     999901    1    3    3    0    0  0.49535725857E-01 -0.11349047513E+00  0.52363793428E-01  0.89021112268E+00  0.88000000000E+00 0.  1.
        -11    1    4    4    0    0 -0.92235518034E-02  0.65148341349E-01 -0.25898671923E-01  0.70713383576E-01  0.51100000000E-03 0.  1.
         11    1    4    4    0    0 -0.48147463323E-01  0.47235543741E-01 -0.15039622478E-01  0.69107352592E-01  0.51100000000E-03 0. -1.
</event>
<event>
 8    1  0.1993226E+004  0.1043930E+01  0.7957747E-01            NaN
         13   -1    0    0    0    0  0.00000000000E+00  0.00000000000E+00  0.74505805969E-08  0.10566000000E+00  0.10566000000E+00 0. -1.
     999900   -1    0    0    0    0 -0.00000000000E+00 -0.00000000000E+00 -0.74505805969E-08  0.93827000000E+00  0.93827000000E+00 0.  1.
     999902    2    1    2    0    0  0.88447774535E-03 -0.13403010821E-01 -0.36060748582E-02  0.10300222045E+01  0.10299283057E+01 0.  0.
     999903    2    3    3    0    0 -0.10567673533E+00  0.58793030567E-01  0.51568807402E-01  0.13894879104E+00  0.44980349063E-01 0.  0.
         14    1    1    2    0    0 -0.88447774535E-03  0.13403010821E-01  0.36060748582E-02  0.13907795505E-01  0.00000000000E+00 0. -1.
     999901    1    3    3    0    0  0.10656121308E+00 -0.72196041387E-01 -0.55174882260E-01  0.89107341345E+00  0.88000000000E+00 0. -1.
        -11    1    4    4    0    0 -0.70811960425E-01  0.24470556707E-01  0.11691249223E-01  0.75829336765E-01  0.51100000000E-03 0.  1.
         11    1    4    4    0    0 -0.34864774909E-01  0.34322473860E-01  0.39877558179E-01  0.63119454280E-01  0.51100000000E-03 0. -1.
</event>
<event>
 8    1  0.1993226E+004  0.1043930E+01  0.7957747E-01            NaN
         13   -1    0    0    0    0  0.00000000000E+00  0.00000000000E+00  0.74505805969E-08  0.10566000000E+00  0.10566000000E+00 0. -1.
     999900   -1    0    0    0    0 -0.00000000000E+00 -0.00000000000E+00 -0.74505805969E-08  0.93827000000E+00  0.93827000000E+00 0.  1.
     999902    2    1    2    0    0 -0.13324119300E-01  0.50143978138E-03 -0.22134690433E-02  0.10304139709E+01  0.10303253216E+01 0.  0.
     999903    2    3    3    0    0  0.55200015768E-02  0.10681326953E+00  0.78374053786E-01  0.14016026838E+00  0.45418757806E-01 0.  0.
         14    1    1    2    0    0  0.13324119300E-01 -0.50143978138E-03  0.22134690433E-02  0.13516029084E-01  0.00000000000E+00 0.  1.
     999901    1    3    3    0    0 -0.18844120877E-01 -0.10631182975E+00 -0.80587522829E-01  0.89025370253E+00  0.88000000000E+00 0.  1.
        -11    1    4    4    0    0  0.68892452087E-02  0.16189287130E-01 -0.35852475333E-02  0.17963013060E-01  0.51100000000E-03 0. -1.
         11    1    4    4    0    0 -0.13692436320E-02  0.90623982404E-01  0.81959301319E-01  0.12219725532E+00  0.51100000000E-03 0.  1.
</event>
<event>
 8    1  0.1993226E+004  0.1043930E+01  0.7957747E-01            NaN
         13   -1    0    0    0    0  0.00000000000E+00  0.00000000000E+00  0.74505805969E-08  0.10566000000E+00  0.10566000000E+00 0. -1.
     999900   -1    0    0    0    0 -0.00000000000E+00 -0.00000000000E+00 -0.74505805969E-08  0.93827000000E+00  0.93827000000E+00 0.  1.
     999902    2    1    2    0    0 -0.12757037583E-01 -0.48426636195E-02 -0.20084696365E-01  0.10196485580E+01  0.10193594034E+01 0.  0.
     999903    2    3    3    0    0 -0.43227156980E-01 -0.84118306029E-01  0.77036341952E-01  0.13024114192E+00  0.45647349938E-01 0.  0.
         14    1    1    2    0    0  0.12757037583E-01  0.48426636195E-02  0.20084696365E-01  0.24281442026E-01  0.00000000000E+00 0.  1.
     999901    1    3    3    0    0  0.30470119397E-01  0.79275642409E-01 -0.97121038317E-01  0.88940741606E+00  0.88000000000E+00 0. -1.
        -11    1    4    4    0    0 -0.12514392174E-01 -0.20554235499E-01 -0.21367027984E-02  0.24164296561E-01  0.51100000000E-03 0. -1.
         11    1    4    4    0    0 -0.30712764806E-01 -0.63564070530E-01  0.79173044750E-01  0.10607684535E+00  0.51100000000E-03 0.  1.
</event>
<event>
 8    1  0.1993226E+004  0.1043930E+01  0.7957747E-01            NaN
         13   -1    0    0    0    0  0.00000000000E+00  0.00000000000E+00  0.74505805969E-08  0.10566000000E+00  0.10566000000E+00 0.  1.
     999900   -1    0    0    0    0 -0.00000000000E+00 -0.00000000000E+00 -0.74505805969E-08  0.93827000000E+00  0.93827000000E+00 0.  1.
     999902    2    1    2    0    0 -0.70606208418E-03  0.13376583189E-01 -0.41010647684E-02  0.10299210659E+01  0.10298257871E+01 0.  0.
     999903    2    3    3    0    0  0.13084025435E+00  0.19415126771E-01  0.95204784475E-02  0.14001857475E+00  0.44927079348E-01 0.  0.
         14    1    1    2    0    0  0.70606208418E-03 -0.13376583189E-01  0.41010647684E-02  0.14008934068E-01  0.00000000000E+00 0.  1.
     999901    1    3    3    0    0 -0.13154631643E+00 -0.60385435820E-02 -0.13621543216E-01  0.88990249118E+00  0.88000000000E+00 0. -1.
        -11    1    4    4    0    0  0.86935689940E-01  0.12468884119E-01  0.27552129110E-01  0.92047097705E-01  0.51100000000E-03 0.  1.
         11    1    4    4    0    0  0.43904564410E-01  0.69462426526E-02 -0.18031650663E-01  0.47971477043E-01  0.51100000000E-03 0. -1.
</event>
<event>
 8    1  0.1993226E+004  0.1043930E+01  0.7957747E-01            NaN
         13   -1    0    0    0    0  0.00000000000E+00  0.00000000000E+00  0.74505805969E-08  0.10566000000E+00  0.10566000000E+00 0. -1.
     999900   -1    0    0    0    0 -0.00000000000E+00 -0.00000000000E+00 -0.74505805969E-08  0.93827000000E+00  0.93827000000E+00 0.  1.
     999902    2    1    2    0    0 -0.41972020825E-02  0.77455402059E-02  0.10522430434E-01  0.10302066097E+01  0.10301152010E+01 0.  0.
     999903    2    3    3    0    0 -0.38121585519E-02  0.12019100535E+00  0.59600792647E-01  0.14169503607E+00  0.45440273351E-01 0.  0.
         14    1    1    2    0    0  0.41972020825E-02 -0.77455402059E-02 -0.10522430434E-01  0.13723390275E-01  0.00000000000E+00 0.  1.
     999901    1    3    3    0    0 -0.38504353066E-03 -0.11244546514E+00 -0.49078362213E-01  0.88851157366E+00  0.88000000000E+00 0.  1.
        -11    1    4    4    0    0 -0.65349323695E-02  0.59454321620E-01  0.54092797314E-01  0.80646224602E-01  0.51100000000E-03 0.  1.
         11    1    4    4    0    0  0.27227738176E-02  0.60736683727E-01  0.55079953332E-02  0.61048811463E-01  0.51100000000E-03 0. -1.
</event>
<event>
 8    1  0.1993226E+004  0.1043930E+01  0.7957747E-01            NaN
         13   -1    0    0    0    0  0.00000000000E+00  0.00000000000E+00  0.74505805969E-08  0.10566000000E+00  0.10566000000E+00 0.  1.
     999900   -1    0    0    0    0 -0.00000000000E+00 -0.00000000000E+00 -0.74505805969E-08  0.93827000000E+00  0.93827000000E+00 0. -1.
     999902    2    1    2    0    0  0.28622725468E-02  0.10070069109E-01  0.81501310223E-02  0.10306626140E+01  0.10305772171E+01 0.  0.
     999903    2    3    3    0    0  0.74691016752E-01  0.11222713784E+00  0.32600305691E-02  0.14183228807E+00  0.43955564916E-01 0.  0.
         14    1    1    2    0    0 -0.28622725468E-02 -0.10070069109E-01 -0.81501310223E-02  0.13267386015E-01  0.00000000000E+00 0.  1.
     999901    1    3    3    0    0 -0.71828744205E-01 -0.10215706874E+00  0.48901004532E-02  0.88883032592E+00  0.88000000000E+00 0. -1.
        -11    1    4    4    0    0  0.24468009650E-01  0.23829221918E-01 -0.17013411912E-01  0.38160616077E-01  0.51100000000E-03 0.  1.
         11    1    4    4    0    0  0.50223007102E-01  0.88397915926E-01  0.20273442481E-01  0.10367167199E+00  0.51100000000E-03 0. -1.
</event>
<event>
 8    1  0.2395809E+004  0.1043930E+01  0.7957747E-01            NaN
         13   -1    0    0    0    0  0.00000000000E+00  0.00000000000E+00  0.74505805969E-08  0.10566000000E+00  0.10566000000E+00 0.  1.
     999900   -1    0    0    0    0 -0.00000000000E+00 -0.00000000000E+00 -0.74505805969E-08  0.93827000000E+00  0.93827000000E+00 0.  1.
     999902    2    1    2    0    0  0.19971458625E-02 -0.59190705850E-02  0.12676049294E-01  0.10297982551E+01  0.10297012868E+01 0.  0.
     999903    2    3    3    0    0 -0.32583929387E-01 -0.17657204635E-01  0.12877456985E+00  0.14142192661E+00  0.45208208949E-01 0.  0.
         14    1    1    2    0    0 -0.19971458625E-02  0.59190705850E-02 -0.12676049294E-01  0.14131744899E-01  0.00000000000E+00 0. -1.
     999901    1    3    3    0    0  0.34581075249E-01  0.11738134050E-01 -0.11609852055E+00  0.88837632850E+00  0.88000000000E+00 0.  1.
        -11    1    4    4    0    0 -0.19337739581E-02  0.11702076432E-01  0.55372637306E-01  0.56630982314E-01  0.51100000000E-03 0.  1.
         11    1    4    4    0    0 -0.30650155429E-01 -0.29359281067E-01  0.73401932539E-01  0.84790944293E-01  0.51100000000E-03 0. -1.
</event>
<event>
 8    1  0.1993226E+004  0.1043930E+01  0.7957747E-01            NaN
         13   -1    0    0    0    0  0.00000000000E+00  0.00000000000E+00  0.74505805969E-08  0.10566000000E+00  0.10566000000E+00 0. -1.
     999900   -1    0    0    0    0 -0.00000000000E+00 -0.00000000000E+00 -0.74505805969E-08  0.93827000000E+00  0.93827000000E+00 0.  1.
     999902    2    1    2    0    0 -0.14087827868E-01 -0.71946811498E-02  0.13851873279E-02  0.10280507974E+01  0.10279281556E+01 0.  0.
     999903    2    3    3    0    0 -0.35857745131E-01  0.11641698842E+00 -0.45076269794E-01  0.13793145645E+00  0.46416845034E-01 0.  0.
         14    1    1    2    0    0  0.14087827868E-01  0.71946811498E-02 -0.13851873279E-02  0.15879202587E-01  0.00000000000E+00 0. -1.
     999901    1    3    3    0    0  0.21769917263E-01 -0.12361166957E+00  0.46461457122E-01  0.89011934096E+00  0.88000000000E+00 0. -1.
        -11    1    4    4    0    0  0.91104351260E-02  0.37257131112E-01 -0.21128439750E-01  0.43792304508E-01  0.51100000000E-03 0. -1.
         11    1    4    4    0    0 -0.44968180256E-01  0.79159857306E-01 -0.23947830044E-01  0.94139151946E-01  0.51100000000E-03 0.  1.
</event>
<event>
 8    1  0.1993226E+004  0.1043930E+01  0.7957747E-01            NaN
         13   -1    0    0    0    0  0.00000000000E+00  0.00000000000E+00  0.74505805969E-08  0.10566000000E+00  0.10566000000E+00 0. -1.
     999900   -1    0    0    0    0 -0.00000000000E+00 -0.00000000000E+00 -0.74505805969E-08  0.93827000000E+00  0.93827000000E+00 0. -1.
     999902    2    1    2    0    0  0.16794302516E-01  0.19742689270E-01  0.52560822759E-02  0.10174829061E+01  0.10171391327E+01 0.  0.
     999903    2    3    3    0    0 -0.71209695809E-02  0.12218814605E+00  0.14980488602E-01  0.13116378976E+00  0.44708762697E-01 0.  0.
         14    1    1    2    0    0 -0.16794302516E-01 -0.19742689270E-01 -0.52560822759E-02  0.26447093933E-01  0.00000000000E+00 0.  1.
     999901    1    3    3    0    0  0.23915272097E-01 -0.10244545678E+00 -0.97244063260E-02  0.88631911631E+00  0.88000000000E+00 0.  1.
        -11    1    4    4    0    0 -0.94185110856E-02  0.34919162868E-01  0.23984219410E-01  0.43400002168E-01  0.51100000000E-03 0.  1.
         11    1    4    4    0    0  0.22975415047E-02  0.87268983184E-01 -0.90037308082E-02  0.87763787591E-01  0.51100000000E-03 0. -1.
</event>
<event>
 8    1  0.1993226E+004  0.1043930E+01  0.7957747E-01            NaN
         13   -1    0    0    0    0  0.00000000000E+00  0.00000000000E+00  0.74505805969E-08  0.10566000000E+00  0.10566000000E+00 0. -1.
     999900   -1    0    0    0    0 -0.00000000000E+00 -0.00000000000E+00 -0.74505805969E-08  0.93827000000E+00  0.93827000000E+00 0.  1.
     999902    2    1    2    0    0  0.98537605758E-02 -0.28280756764E-02  0.10714864597E-01  0.10291008755E+01  0.10289940277E+01 0.  0.
     999903    2    3    3    0    0  0.59045875511E-02  0.12424437364E+00 -0.42193092812E-01  0.13839202561E+00  0.43595494458E-01 0.  0.
         14    1    1    2    0    0 -0.98537605758E-02  0.28280756764E-02 -0.10714864597E-01  0.14829124481E-01  0.00000000000E+00 0.  1.
     999901    1    3    3    0    0  0.39491730247E-02 -0.12707244932E+00  0.52907957409E-01  0.89070884991E+00  0.88000000000E+00 0. -1.
        -11    1    4    4    0    0  0.11931550681E-01  0.35838719814E-01 -0.31404909647E-01  0.49125402904E-01  0.51100000000E-03 0. -1.
         11    1    4    4    0    0 -0.60269631295E-02  0.88405653826E-01 -0.10788183165E-01  0.89266622710E-01  0.51100000000E-03 0.  1.
</event>
<event>
 8    1  0.1993226E+004  0.1043930E+01  0.7957747E-01            NaN
         13   -1    0    0    0    0  0.00000000000E+00  0.00000000000E+00  0.74505805969E-08  0.10566000000E+00  0.10566000000E+00 0. -1.
     999900   -1    0    0    0    0 -0.00000000000E+00 -0.00000000000E+00 -0.74505805969E-08  0.93827000000E+00  0.93827000000E+00 0.  1.
     999902    2    1    2    0    0  0.11999460871E-01  0.66553828142E-02 -0.26326669152E-02  0.10299581670E+01  0.10298633957E+01 0.  0.
     999903    2    3    3    0    0  0.60109878451E-01 -0.11762600834E+00  0.90730250735E-02  0.13984721906E+00  0.45009438672E-01 0.  0.
         14    1    1    2    0    0 -0.11999460871E-01 -0.66553828142E-02  0.26326669152E-02  0.13971832975E-01  0.00000000000E+00 0.  1.
     999901    1    3    3    0    0 -0.48110417580E-01  0.12428139115E+00 -0.11705691989E-01  0.89011094797E+00  0.88000000000E+00 0.  1.
        -11    1    4    4    0    0  0.23803444537E-01 -0.75953640181E-01  0.22987181721E-01  0.82850655236E-01  0.51100000000E-03 0. -1.
         11    1    4    4    0    0  0.36306433914E-01 -0.41672368156E-01 -0.13914156647E-01  0.56996563821E-01  0.51100000000E-03 0.  1.
</event>
<event>
 8    1  0.1993226E+004  0.1043930E+01  0.7957747E-01            NaN
         13   -1    0    0    0    0  0.00000000000E+00  0.00000000000E+00  0.74505805969E-08  0.10566000000E+00  0.10566000000E+00 0.  1.
     999900   -1    0    0    0    0 -0.00000000000E+00 -0.00000000000E+00 -0.74505805969E-08  0.93827000000E+00  0.93827000000E+00 0. -1.
     999902    2    1    2    0    0 -0.67426105694E-02  0.10233388377E-01  0.90686155856E-02  0.10286845146E+01  0.10285715366E+01 0.  0.
     999903    2    3    3    0    0 -0.86185027679E-01  0.53941666185E-01  0.86234583033E-01  0.14066644179E+00  0.44867384469E-01 0.  0.
         14    1    1    2    0    0  0.67426105694E-02 -0.10233388377E-01 -0.90686155856E-02  0.15245485352E-01  0.00000000000E+00 0. -1.
     999901    1    3    3    0    0  0.79442417109E-01 -0.43708277808E-01 -0.77165967447E-01  0.88801807286E+00  0.88000000000E+00 0.  1.
        -11    1    4    4    0    0 -0.16543252978E-01 -0.73791906357E-02  0.17473398983E-01  0.25173646270E-01  0.51100000000E-03 0.  1.
         11    1    4    4    0    0 -0.69641774701E-01  0.61320856821E-01  0.68761184050E-01  0.11549279552E+00  0.51100000000E-03 0. -1.
</event>
<event>
 8    1  0.1993226E+004  0.1043930E+01  0.7957747E-01            NaN
         13   -1    0    0    0    0  0.00000000000E+00  0.00000000000E+00  0.74505805969E-08  0.10566000000E+00  0.10566000000E+00 0. -1.
     999900   -1    0    0    0    0 -0.00000000000E+00 -0.00000000000E+00 -0.74505805969E-08  0.93827000000E+00  0.93827000000E+00 0.  1.
     999902    2    1    2    0    0 -0.16822381692E-01  0.51269817893E-02 -0.56802045817E-02  0.10254491128E+01  0.10252825658E+01 0.  0.
     999903    2    3    3    0    0 -0.73114357797E-01  0.10090920840E+00 -0.37622365858E-01  0.13788879192E+00  0.45491745059E-01 0.  0.
         14    1    1    2    0    0  0.16822381692E-01 -0.51269817893E-02  0.56802045817E-02  0.18480887212E-01  0.00000000000E+00 0. -1.
     999901    1    3    3    0    0  0.56291976105E-01 -0.95782226613E-01  0.31942161277E-01  0.88756032087E+00  0.88000000000E+00 0.  1.
        -11    1    4    4    0    0 -0.73490222175E-01  0.80603135892E-01 -0.19793453660E-01  0.11085901046E+00  0.51100000000E-03 0.  1.
         11    1    4    4    0    0  0.37586437831E-03  0.20306072510E-01 -0.17828912198E-01  0.27029781464E-01  0.51100000000E-03 0. -1.
</event>
<event>
 8    1  0.1993226E+004  0.1043930E+01  0.7957747E-01            NaN
         13   -1    0    0    0    0  0.00000000000E+00  0.00000000000E+00  0.74505805969E-08  0.10566000000E+00  0.10566000000E+00 0. -1.
     999900   -1    0    0    0    0 -0.00000000000E+00 -0.00000000000E+00 -0.74505805969E-08  0.93827000000E+00  0.93827000000E+00 0.  1.
     999902    2    1    2    0    0 -0.67048597045E-02  0.11337360007E-01 -0.57747632041E-03  0.10307457535E+01  0.10306614304E+01 0.  0.
     999903    2    3    3    0    0  0.70580166068E-01 -0.73590738151E-03 -0.11264200805E+00  0.14019693497E+00  0.44551736193E-01 0.  0.
         14    1    1    2    0    0  0.67048597045E-02 -0.11337360007E-01  0.57747632041E-03  0.13184246451E-01  0.00000000000E+00 0.  1.
     999901    1    3    3    0    0 -0.77285025772E-01  0.12073267389E-01  0.11206453172E+00  0.89054881857E+00  0.88000000000E+00 0. -1.
        -11    1    4    4    0    0  0.42272868136E-01 -0.21674260988E-02 -0.27549700396E-01  0.50506833490E-01  0.51100000000E-03 0.  1.
         11    1    4    4    0    0  0.28307297932E-01  0.14315187173E-02 -0.85092307649E-01  0.89690101484E-01  0.51100000000E-03 0. -1.
</event>
<event>
 8    1  0.1993226E+004  0.1043930E+01  0.7957747E-01            NaN
         13   -1    0    0    0    0  0.00000000000E+00  0.00000000000E+00  0.74505805969E-08  0.10566000000E+00  0.10566000000E+00 0.  1.
     999900   -1    0    0    0    0 -0.00000000000E+00 -0.00000000000E+00 -0.74505805969E-08  0.93827000000E+00  0.93827000000E+00 0. -1.
     999902    2    1    2    0    0 -0.33575807241E-02 -0.63969903547E-02  0.10646967479E-01  0.10310632696E+01  0.10309829840E+01 0.  0.
     999903    2    3    3    0    0 -0.90945129318E-01 -0.95548920453E-01  0.29116597466E-01  0.14204090065E+00  0.43900210297E-01 0.  0.
         14    1    1    2    0    0  0.33575807241E-02  0.63969903547E-02 -0.10646967479E-01  0.12866730370E-01  0.00000000000E+00 0. -1.
     999901    1    3    3    0    0  0.87587548594E-01  0.89151930098E-01 -0.18469629987E-01  0.88902236898E+00  0.88000000000E+00 0. -1.
        -11    1    4    4    0    0 -0.36561807545E-01 -0.68852876711E-01  0.10520122839E-01  0.78666501815E-01  0.51100000000E-03 0.  1.
         11    1    4    4    0    0 -0.54383321773E-01 -0.26696043742E-01  0.18596474627E-01  0.63374398838E-01  0.51100000000E-03 0. -1.
</event>
<event>
 8    1  0.1993226E+004  0.1043930E+01  0.7957747E-01            NaN
         13   -1    0    0    0    0  0.00000000000E+00  0.00000000000E+00  0.74505805969E-08  0.10566000000E+00  0.10566000000E+00 0.  1.
     999900   -1    0    0    0    0 -0.00000000000E+00 -0.00000000000E+00 -0.74505805969E-08  0.93827000000E+00  0.93827000000E+00 0.  1.
     999902    2    1    2    0    0 -0.76657777460E-02 -0.71110661784E-02  0.96474322648E-02  0.10297031114E+01  0.10296048238E+01 0.  0.
     999903    2    3    3    0    0 -0.13318386665E-01 -0.51160229396E-01 -0.11866491515E+00  0.13928953372E+00  0.50253991096E-01 0.  0.
         14    1    1    2    0    0  0.76657777460E-02  0.71110661784E-02 -0.96474322648E-02  0.14226888625E-01  0.00000000000E+00 0. -1.
     999901    1    3    3    0    0  0.56526089191E-02  0.44049163218E-01  0.12831234742E+00  0.89041357765E+00  0.88000000000E+00 0. -1.
        -11    1    4    4    0    0 -0.29074187259E-01 -0.16625743645E-01 -0.41834243354E-01  0.53591872094E-01  0.51100000000E-03 0.  1.
         11    1    4    4    0    0  0.15755800594E-01 -0.34534485751E-01 -0.76830671800E-01  0.85697661629E-01  0.51100000000E-03 0. -1.
</event>
<event>
 8    1  0.1993226E+004  0.1043930E+01  0.7957747E-01            NaN
         13   -1    0    0    0    0  0.00000000000E+00  0.00000000000E+00  0.74505805969E-08  0.10566000000E+00  0.10566000000E+00 0.  1.
     999900   -1    0    0    0    0 -0.00000000000E+00 -0.00000000000E+00 -0.74505805969E-08  0.93827000000E+00  0.93827000000E+00 0. -1.
     999902    2    1    2    0    0  0.12183841609E-01 -0.11290166686E-02 -0.69689871477E-02  0.10298485421E+01  0.10297522674E+01 0.  0.
     999903    2    3    3    0    0 -0.96597410864E-01 -0.45563103382E-01  0.74570108751E-01  0.13830136268E+00  0.46470524261E-01 0.  0.
         14    1    1    2    0    0 -0.12183841609E-01  0.11290166686E-02  0.69689871477E-02  0.14081457910E-01  0.00000000000E+00 0. -1.
     999901    1    3    3    0    0  0.10878125247E+00  0.44434086714E-01 -0.81539095899E-01  0.89154717941E+00  0.88000000000E+00 0.  1.
        -11    1    4    4    0    0 -0.42569477138E-01 -0.45625484363E-01  0.38102423208E-01  0.73115668515E-01  0.51100000000E-03 0. -1.
         11    1    4    4    0    0 -0.54027933726E-01  0.62380980524E-04  0.36467685543E-01  0.65185694166E-01  0.51100000000E-03 0.  1.
</event>
<event>
 8    1  0.1993226E+004  0.1043930E+01  0.7957747E-01            NaN
         13   -1    0    0    0    0  0.00000000000E+00  0.00000000000E+00  0.74505805969E-08  0.10566000000E+00  0.10566000000E+00 0.  1.
     999900   -1    0    0    0    0 -0.00000000000E+00 -0.00000000000E+00 -0.74505805969E-08  0.93827000000E+00  0.93827000000E+00 0.  1.
     999902    2    1    2    0    0 -0.64861514899E-02  0.45461539814E-02  0.13260428605E-01  0.10284840735E+01  0.10283680824E+01 0.  0.
     999903    2    3    3    0    0 -0.90638910125E-01  0.25904686504E-01  0.93678727245E-01  0.14056235602E+00  0.45777802273E-01 0.  0.
         14    1    1    2    0    0  0.64861514899E-02 -0.45461539814E-02 -0.13260428605E-01  0.15445926452E-01  0.00000000000E+00 0. -1.
     999901    1    3    3    0    0  0.84152758635E-01 -0.21358532523E-01 -0.80418298640E-01  0.88792171753E+00  0.88000000000E+00 0. -1.
        -11    1    4    4    0    0 -0.16906530317E-01 -0.11148207690E-01  0.85077118193E-02  0.21971699603E-01  0.51100000000E-03 0. -1.
         11    1    4    4    0    0 -0.73732379808E-01  0.37052894195E-01  0.85171015426E-01  0.11859065642E+00  0.51100000000E-03 0.  1.
</event>
<event>
 8    1  0.1993226E+004  0.1043930E+01  0.7957747E-01            NaN
         13   -1    0    0    0    0  0.00000000000E+00  0.00000000000E+00  0.74505805969E-08  0.10566000000E+00  0.10566000000E+00 0.  1.
     999900   -1    0    0    0    0 -0.00000000000E+00 -0.00000000000E+00 -0.74505805969E-08  0.93827000000E+00  0.93827000000E+00 0.  1.
     999902    2    1    2    0    0 -0.94054222357E-02 -0.83270411742E-02  0.54642783283E-02  0.10302310979E+01  0.10301400172E+01 0.  0.
     999903    2    3    3    0    0  0.38486524664E-01 -0.29111407252E-01  0.12455903975E+00  0.14067548372E+00  0.44112931490E-01 0.  0.
         14    1    1    2    0    0  0.94054222357E-02  0.83270411742E-02 -0.54642783283E-02  0.13698902138E-01  0.00000000000E+00 0.  1.
     999901    1    3    3    0    0 -0.47891946900E-01  0.20784366078E-01 -0.11909476142E+00  0.88955561414E+00  0.88000000000E+00 0.  1.
        -11    1    4    4    0    0  0.49393307117E-02 -0.19694737695E-01  0.87415914955E-01  0.89744542950E-01  0.51100000000E-03 0.  1.
         11    1    4    4    0    0  0.33547193952E-01 -0.94166695568E-02  0.37143124792E-01  0.50930940772E-01  0.51100000000E-03 0. -1.
</event>
<event>
 8    1  0.1993226E+004  0.1043930E+01  0.7957747E-01            NaN
         13   -1    0    0    0    0  0.00000000000E+00  0.00000000000E+00  0.74505805969E-08  0.10566000000E+00  0.10566000000E+00 0. -1.
     999900   -1    0    0    0    0 -0.00000000000E+00 -0.00000000000E+00 -0.74505805969E-08  0.93827000000E+00  0.93827000000E+00 0.  1.
     999902    2    1    2    0    0  0.10013652804E-01  0.54276624669E-02  0.78955140934E-02  0.10300709991E+01  0.10299777625E+01 0.  0.
     999903    2    3    3    0    0 -0.10293877200E+00  0.56123449705E-01  0.60767691587E-01  0.13983295216E+00  0.45981624395E-01 0.  0.
         14    1    1    2    0    0 -0.10013652804E-01 -0.54276624669E-02 -0.78955140934E-02  0.13859000871E-01  0.00000000000E+00 0. -1.
     999901    1    3    3    0    0  0.11295242481E+00 -0.50695787238E-01 -0.52872177494E-01  0.89023804697E+00  0.88000000000E+00 0.  1.
        -11    1    4    4    0    0 -0.53405026521E-01  0.58814954907E-02  0.37565994034E-01  0.65560307166E-01  0.51100000000E-03 0. -1.
         11    1    4    4    0    0 -0.49533745480E-01  0.50241954215E-01  0.23201697553E-01  0.74272644998E-01  0.51100000000E-03 0.  1.
</event>
<event>
 8    1  0.1993226E+004  0.1043930E+01  0.7957747E-01            NaN
         13   -1    0    0    0    0  0.00000000000E+00  0.00000000000E+00  0.74505805969E-08  0.10566000000E+00  0.10566000000E+00 0. -1.
     999900   -1    0    0    0    0 -0.00000000000E+00 -0.00000000000E+00 -0.74505805969E-08  0.93827000000E+00  0.93827000000E+00 0. -1.
     999902    2    1    2    0    0  0.78306755011E-02  0.33661715876E-02  0.83915696158E-02  0.10319688533E+01  0.10318995325E+01 0.  0.
     999903    2    3    3    0    0  0.12783457649E+00 -0.43757600962E-01 -0.13547307044E-02  0.14252150996E+00  0.45322609338E-01 0.  0.
         14    1    1    2    0    0 -0.78306755011E-02 -0.33661715876E-02 -0.83915696158E-02  0.11961146708E-01  0.00000000000E+00 0.  1.
     999901    1    3    3    0    0 -0.12000390099E+00  0.47123772549E-01  0.97463003203E-02  0.88944734333E+00  0.88000000000E+00 0. -1.
        -11    1    4    4    0    0  0.46399534679E-01 -0.23865427796E-01 -0.21284773894E-01  0.56354043182E-01  0.51100000000E-03 0.  1.
         11    1    4    4    0    0  0.81435041812E-01 -0.19892173166E-01  0.19930043189E-01  0.86167466777E-01  0.51100000000E-03 0. -1.
</event>
<event>
 8    1  0.1993226E+004  0.1043930E+01  0.7957747E-01            NaN
         13   -1    0    0    0    0  0.00000000000E+00  0.00000000000E+00  0.74505805969E-08  0.10566000000E+00  0.10566000000E+00 0. -1.
     999900   -1    0    0    0    0 -0.00000000000E+00 -0.00000000000E+00 -0.74505805969E-08  0.93827000000E+00  0.93827000000E+00 0. -1.
     999902    2    1    2    0    0  0.23449017930E-02  0.12144306529E-01 -0.49182800932E-02  0.10306193943E+01  0.10305334365E+01 0.  0.
     999903    2    3    3    0    0  0.22810515130E-01 -0.91036117593E-01 -0.93412766816E-01  0.13994756054E+00  0.45293270900E-01 0.  0.
         14    1    1    2    0    0 -0.23449017930E-02 -0.12144306529E-01  0.49182800932E-02  0.13310605717E-01  0.00000000000E+00 0.  1.
     999901    1    3    3    0    0 -0.20465613337E-01  0.10318042412E+00  0.88494486723E-01  0.89067183375E+00  0.88000000000E+00 0. -1.
        -11    1    4    4    0    0  0.14122288897E-01 -0.84304853736E-02 -0.22333246275E-02  0.16606052728E-01  0.51100000000E-03 0.  1.
         11    1    4    4    0    0  0.86882262333E-02 -0.82605632219E-01 -0.91179442188E-01  0.12334150781E+00  0.51100000000E-03 0. -1.
</event>
<event>
 8    1  0.1993226E+004  0.1043930E+01  0.7957747E-01            NaN
         13   -1    0    0    0    0  0.00000000000E+00  0.00000000000E+00  0.74505805969E-08  0.10566000000E+00  0.10566000000E+00 0. -1.
     999900   -1    0    0    0    0 -0.00000000000E+00 -0.00000000000E+00 -0.74505805969E-08  0.93827000000E+00  0.93827000000E+00 0.  1.
     999902    2    1    2    0    0 -0.63803487678E-02  0.61284825652E-02  0.15604496358E-01  0.10259921223E+01  0.10258353024E+01 0.  0.
     999903    2    3    3    0    0  0.18469130570E-01 -0.78219081259E-01  0.10205067159E+00  0.13739494173E+00  0.44762674012E-01 0.  0.
         14    1    1    2    0    0  0.63803487678E-02 -0.61284825652E-02 -0.15604496358E-01  0.17937877676E-01  0.00000000000E+00 0.  1.
     999901    1    3    3    0    0 -0.24849479338E-01  0.84347563824E-01 -0.86446175230E-01  0.88859718059E+00  0.88000000000E+00 0.  1.
        -11    1    4    4    0    0  0.65306344884E-03 -0.60446803853E-01  0.46037805489E-01  0.75986730704E-01  0.51100000000E-03 0.  1.
         11    1    4    4    0    0  0.17816067121E-01 -0.17772277406E-01  0.56012866099E-01  0.61408211026E-01  0.51100000000E-03 0. -1.
</event>
<event>
 8    1  0.1993226E+004  0.1043930E+01  0.7957747E-01            NaN
         13   -1    0    0    0    0  0.00000000000E+00  0.00000000000E+00  0.74505805969E-08  0.10566000000E+00  0.10566000000E+00 0.  1.
     999900   -1    0    0    0    0 -0.00000000000E+00 -0.00000000000E+00 -0.74505805969E-08  0.93827000000E+00  0.93827000000E+00 0.  1.
     999902    2    1    2    0    0  0.38518257736E-02  0.12209782025E-01 -0.13967877742E-02  0.10310510887E+01  0.10309706500E+01 0.  0.
     999903    2    3    3    0    0  0.13306352961E+00  0.73936001181E-02  0.14927905909E-01  0.14145266494E+00  0.45004953179E-01 0.  0.
         14    1    1    2    0    0 -0.38518257736E-02 -0.12209782025E-01  0.13967877742E-02  0.12878911250E-01  0.00000000000E+00 0.  1.
     999901    1    3    3    0    0 -0.12921170383E+00  0.48161819074E-02 -0.16324693683E-01  0.88959842381E+00  0.88000000000E+00 0.  1.
        -11    1    4    4    0    0  0.10135046051E+00 -0.46551753946E-02 -0.59192162467E-02  0.10163112095E+00  0.51100000000E-03 0.  1.
         11    1    4    4    0    0  0.31713069099E-01  0.12048775513E-01  0.20847122156E-01  0.39821543996E-01  0.51100000000E-03 0. -1.
</event>
<event>
 8    1  0.1993226E+004  0.1043930E+01  0.7957747E-01            NaN
         13   -1    0    0    0    0  0.00000000000E+00  0.00000000000E+00  0.74505805969E-08  0.10566000000E+00  0.10566000000E+00 0.  1.
     999900   -1    0    0    0    0 -0.00000000000E+00 -0.00000000000E+00 -0.74505805969E-08  0.93827000000E+00  0.93827000000E+00 0. -1.
     999902    2    1    2    0    0  0.85847529803E-02  0.31776304638E-02 -0.80926664346E-02  0.10317117117E+01  0.10316393602E+01 0.  0.
     999903    2    3    3    0    0 -0.17149753663E-01  0.10851612317E+00 -0.79207014296E-01  0.14220864068E+00  0.43355314920E-01 0.  0.
         14    1    1    2    0    0 -0.85847529803E-02 -0.31776304638E-02  0.80926664346E-02  0.12218288306E-01  0.00000000000E+00 0.  1.
     999901    1    3    3    0    0  0.25734506643E-01 -0.10533849270E+00  0.71114347861E-01  0.88950307102E+00  0.88000000000E+00 0.  1.
        -11    1    4    4    0    0 -0.24892711052E-01  0.75477339618E-01 -0.72576056904E-01  0.10762909001E+00  0.51100000000E-03 0. -1.
         11    1    4    4    0    0  0.77429573894E-02  0.33038783549E-01 -0.66309573916E-02  0.34579550668E-01  0.51100000000E-03 0.  1.
</event>
<event>
 8    1  0.1993226E+004  0.1043930E+01  0.7957747E-01            NaN
         13   -1    0    0    0    0  0.00000000000E+00  0.00000000000E+00  0.74505805969E-08  0.10566000000E+00  0.10566000000E+00 0.  1.
     999900   -1    0    0    0    0 -0.00000000000E+00 -0.00000000000E+00 -0.74505805969E-08  0.93827000000E+00  0.93827000000E+00 0. -1.
     999902    2    1    2    0    0  0.78871780737E-02  0.83894166089E-02 -0.85647909285E-02  0.10295791975E+01  0.10294791782E+01 0.  0.
     999903    2    3    3    0    0  0.54349854777E-01  0.10639699105E-01  0.12154346787E+00  0.13879751655E+00  0.37746868827E-01 0.  0.
         14    1    1    2    0    0 -0.78871780737E-02 -0.83894166089E-02  0.85647909285E-02  0.14350802509E-01  0.00000000000E+00 0.  1.
     999901    1    3    3    0    0 -0.46462676704E-01 -0.22502824961E-02 -0.13010825880E+00  0.89078168094E+00  0.88000000000E+00 0. -1.
        -11    1    4    4    0    0  0.33058413239E-01  0.12747469719E-01  0.35599386014E-01  0.50228817184E-01  0.51100000000E-03 0.  1.
         11    1    4    4    0    0  0.21291441539E-01 -0.21077706138E-02  0.85944081856E-01  0.88568699363E-01  0.51100000000E-03 0. -1.
</event>
<event>
 8    1  0.1993226E+004  0.1043930E+01  0.7957747E-01            NaN
         13   -1    0    0    0    0  0.00000000000E+00  0.00000000000E+00  0.74505805969E-08  0.10566000000E+00  0.10566000000E+00 0. -1.
     999900   -1    0    0    0    0 -0.00000000000E+00 -0.00000000000E+00 -0.74505805969E-08  0.93827000000E+00  0.93827000000E+00 0. -1.
     999902    2    1    2    0    0 -0.91362937790E-02  0.90507908881E-02  0.65001978654E-02  0.10295202376E+01  0.10294193890E+01 0.  0.
     999903    2    3    3    0    0 -0.12423284212E+00  0.27128261857E-01  0.41225001174E-01  0.14116230167E+00  0.45360258349E-01 0.  0.
         14    1    1    2    0    0  0.91362937790E-02 -0.90507908881E-02 -0.65001978654E-02  0.14409762385E-01  0.00000000000E+00 0.  1.
     999901    1    3    3    0    0  0.11509654834E+00 -0.18077470968E-01 -0.34724803308E-01  0.88835793595E+00  0.88000000000E+00 0. -1.
        -11    1    4    4    0    0 -0.31097908084E-01  0.15478534537E-02 -0.88419170408E-02  0.32371536192E-01  0.51100000000E-03 0.  1.
         11    1    4    4    0    0 -0.93134934037E-01  0.25580408403E-01  0.50066918214E-01  0.10879076547E+00  0.51100000000E-03 0. -1.
</event>
<event>
 8    1  0.1993226E+004  0.1043930E+01  0.7957747E-01            NaN
         13   -1    0    0    0    0  0.00000000000E+00  0.00000000000E+00  0.74505805969E-08  0.10566000000E+00  0.10566000000E+00 0.  1.
     999900   -1    0    0    0    0 -0.00000000000E+00 -0.00000000000E+00 -0.74505805969E-08  0.93827000000E+00  0.93827000000E+00 0. -1.
     999902    2    1    2    0    0  0.62196814489E-02  0.39091831999E-02  0.11364293123E-01  0.10303980634E+01  0.10303092039E+01 0.  0.
     999903    2    3    3    0    0 -0.95079777817E-01 -0.70014376565E-01 -0.57568923712E-01  0.13883872070E+00  0.44942544563E-01 0.  0.
         14    1    1    2    0    0 -0.62196814489E-02 -0.39091831999E-02 -0.11364293123E-01  0.13531936624E-01  0.00000000000E+00 0. -1.
     999901    1    3    3    0    0  0.10129945927E+00  0.73923559765E-01  0.68933216835E-01  0.89155934268E+00  0.88000000000E+00 0.  1.
        -11    1    4    4    0    0 -0.15962202976E-01  0.49792574923E-02 -0.32475820578E-02  0.17040916620E-01  0.51100000000E-03 0.  1.
         11    1    4    4    0    0 -0.79117574841E-01 -0.74993634058E-01 -0.54321341654E-01  0.12179780408E+00  0.51100000000E-03 0. -1.
</event>
<event>
 8    1  0.1993226E+004  0.1043930E+01  0.7957747E-01            NaN
         13   -1    0    0    0    0  0.00000000000E+00  0.00000000000E+00  0.74505805969E-08  0.10566000000E+00  0.10566000000E+00 0.  1.
     999900   -1    0    0    0    0 -0.00000000000E+00 -0.00000000000E+00 -0.74505805969E-08  0.93827000000E+00  0.93827000000E+00 0.  1.
     999902    2    1    2    0    0 -0.24491991203E-02  0.13245074829E-01  0.63021225900E-02  0.10290589767E+01  0.10289515199E+01 0.  0.
     999903    2    3    3    0    0  0.59923437972E-01  0.16797481619E-02 -0.11645077322E+00  0.13827708645E+00  0.44341065411E-01 0.  0.
         14    1    1    2    0    0  0.24491991203E-02 -0.13245074829E-01 -0.63021225900E-02  0.14871023256E-01  0.00000000000E+00 0.  1.
     999901    1    3    3    0    0 -0.62372637093E-01  0.11565326667E-01  0.12275289581E+00  0.89078189029E+00  0.88000000000E+00 0. -1.
        -11    1    4    4    0    0  0.13717245908E-01  0.15498865264E-01 -0.62844259361E-01  0.66166756875E-01  0.51100000000E-03 0.  1.
         11    1    4    4    0    0  0.46206192064E-01 -0.13819117102E-01 -0.53606513861E-01  0.72110329578E-01  0.51100000000E-03 0. -1.
</event>
<event>
 8    1  0.1993226E+004  0.1043930E+01  0.7957747E-01            NaN
         13   -1    0    0    0    0  0.00000000000E+00  0.00000000000E+00  0.74505805969E-08  0.10566000000E+00  0.10566000000E+00 0. -1.
     999900   -1    0    0    0    0 -0.00000000000E+00 -0.00000000000E+00 -0.74505805969E-08  0.93827000000E+00  0.93827000000E+00 0. -1.
     999902    2    1    2    0    0 -0.57355592229E-02 -0.76790461525E-02 -0.90536908200E-02  0.10307453989E+01  0.10306610712E+01 0.  0.
     999903    2    3    3    0    0 -0.66241398145E-01 -0.25451194332E-01 -0.11316727074E+00  0.14236685156E+00  0.49252442946E-01 0.  0.
         14    1    1    2    0    0  0.57355592229E-02  0.76790461525E-02  0.90536908200E-02  0.13184601127E-01  0.00000000000E+00 0. -1.
     999901    1    3    3    0    0  0.60505838923E-01  0.17772148180E-01  0.10411357992E+00  0.88837854731E+00  0.88000000000E+00 0.  1.
        -11    1    4    4    0    0 -0.26136139445E-01 -0.34192119463E-01 -0.74129689381E-01  0.85718555676E-01  0.51100000000E-03 0. -1.
         11    1    4    4    0    0 -0.40105258700E-01  0.87409251310E-02 -0.39037581360E-01  0.56648295888E-01  0.51100000000E-03 0.  1.
</event>
<event>
 8    1  0.1993226E+004  0.1043930E+01  0.7957747E-01            NaN
         13   -1    0    0    0    0  0.00000000000E+00  0.00000000000E+00  0.74505805969E-08  0.10566000000E+00  0.10566000000E+00 0.  1.
     999900   -1    0    0    0    0 -0.00000000000E+00 -0.00000000000E+00 -0.74505805969E-08  0.93827000000E+00  0.93827000000E+00 0.  1.
     999902    2    1    2    0    0 -0.67656723382E-02  0.10224530832E-01  0.64473624168E-02  0.10300777859E+01  0.10299846412E+01 0.  0.
     999903    2    3    3    0    0 -0.40582778537E-01  0.15934787507E-02 -0.12574616791E+00  0.13951997129E+00  0.44768544275E-01 0.  0.
         14    1    1    2    0    0  0.67656723382E-02 -0.10224530832E-01 -0.64473624168E-02  0.13852214085E-01  0.00000000000E+00 0. -1.
     999901    1    3    3    0    0  0.33817106199E-01  0.86310520814E-02  0.13219353033E+00  0.89055781463E+00  0.88000000000E+00 0. -1.
        -11    1    4    4    0    0 -0.15080304959E-01 -0.20913862063E-01 -0.64428641974E-01  0.69398243865E-01  0.51100000000E-03 0.  1.
         11    1    4    4    0    0 -0.25502473579E-01  0.22507340813E-01 -0.61317525935E-01  0.70121727423E-01  0.51100000000E-03 0. -1.
</event>
<event>
 8    1  0.1993226E+004  0.1043930E+01  0.7957747E-01            NaN
         13   -1    0    0    0    0  0.00000000000E+00  0.00000000000E+00  0.74505805969E-08  0.10566000000E+00  0.10566000000E+00 0. -1.
     999900   -1    0    0    0    0 -0.00000000000E+00 -0.00000000000E+00 -0.74505805969E-08  0.93827000000E+00  0.93827000000E+00 0. -1.
     999902    2    1    2    0    0  0.11762879701E-01  0.86210749978E-04  0.73859861503E-02  0.10300402353E+01  0.10299465815E+01 0.  0.
     999903    2    3    3    0    0 -0.10131251463E+00  0.48456521336E-01  0.69033381477E-01  0.13935166288E+00  0.45177628393E-01 0.  0.
         14    1    1    2    0    0 -0.11762879701E-01 -0.86210749978E-04 -0.73859861503E-02  0.13889764669E-01  0.00000000000E+00 0.  1.
     999901    1    3    3    0    0  0.11307539433E+00 -0.48370310586E-01 -0.61647395327E-01  0.89068857245E+00  0.88000000000E+00 0. -1.
        -11    1    4    4    0    0 -0.21353645132E-01  0.16545207925E-01  0.40438850333E-01  0.48634183482E-01  0.51100000000E-03 0. -1.
         11    1    4    4    0    0 -0.79958869500E-01  0.31911313411E-01  0.28594531144E-01  0.90717479395E-01  0.51100000000E-03 0.  1.
</event>
<event>
 8    1  0.1993226E+004  0.1043930E+01  0.7957747E-01            NaN
         13   -1    0    0    0    0  0.00000000000E+00  0.00000000000E+00  0.74505805969E-08  0.10566000000E+00  0.10566000000E+00 0. -1.
     999900   -1    0    0    0    0 -0.00000000000E+00 -0.00000000000E+00 -0.74505805969E-08  0.93827000000E+00  0.93827000000E+00 0. -1.
     999902    2    1    2    0    0  0.38518957220E-02 -0.11362924608E-01  0.70053678780E-02  0.10300365362E+01  0.10299428322E+01 0.  0.
     999903    2    3    3    0    0  0.46246446108E-01  0.30829507675E-01 -0.11920641372E+00  0.13902199479E+00  0.45030585656E-01 0.  0.
         14    1    1    2    0    0 -0.38518957220E-02  0.11362924608E-01 -0.70053678780E-02  0.13893463766E-01  0.00000000000E+00 0.  1.
     999901    1    3    3    0    0 -0.42394550386E-01 -0.42192432283E-01  0.12621178159E+00  0.89101454144E+00  0.88000000000E+00 0.  1.
        -11    1    4    4    0    0  0.17876833851E-01  0.27375185821E-01 -0.98335165358E-01  0.10362937737E+00  0.51100000000E-03 0. -1.
         11    1    4    4    0    0  0.28369612257E-01  0.34543218542E-02 -0.20871248358E-01  0.35392617424E-01  0.51100000000E-03 0.  1.
</event>
<event>
 8    1  0.1993226E+004  0.1043930E+01  0.7957747E-01            NaN
         13   -1    0    0    0    0  0.00000000000E+00  0.00000000000E+00  0.74505805969E-08  0.10566000000E+00  0.10566000000E+00 0.  1.
     999900   -1    0    0    0    0 -0.00000000000E+00 -0.00000000000E+00 -0.74505805969E-08  0.93827000000E+00  0.93827000000E+00 0. -1.
     999902    2    1    2    0    0 -0.53404004658E-02 -0.32484934279E-02 -0.12805865248E-01  0.10296799905E+01  0.10295813810E+01 0.  0.
     999903    2    3    3    0    0 -0.86422976001E-01 -0.61205888375E-01 -0.82011994917E-01  0.14135407502E+00  0.45165425519E-01 0.  0.
         14    1    1    2    0    0  0.53404004658E-02  0.32484934279E-02  0.12805865248E-01  0.14250009524E-01  0.00000000000E+00 0.  1.
     999901    1    3    3    0    0  0.81082575535E-01  0.57957394947E-01  0.69206129669E-01  0.88832591545E+00  0.88000000000E+00 0.  1.
        -11    1    4    4    0    0 -0.28612135451E-01 -0.41273949266E-01 -0.55060108237E-01  0.74525631988E-01  0.51100000000E-03 0.  1.
         11    1    4    4    0    0 -0.57810840550E-01 -0.19931939109E-01 -0.26951886679E-01  0.66828443034E-01  0.51100000000E-03 0. -1.
</event>
<event>
 8    1  0.1993226E+004  0.1043930E+01  0.7957747E-01            NaN
         13   -1    0    0    0    0  0.00000000000E+00  0.00000000000E+00  0.74505805969E-08  0.10566000000E+00  0.10566000000E+00 0. -1.
     999900   -1    0    0    0    0 -0.00000000000E+00 -0.00000000000E+00 -0.74505805969E-08  0.93827000000E+00  0.93827000000E+00 0.  1.
     999902    2    1    2    0    0 -0.39558240083E-02  0.13151947302E-01  0.59642319918E-02  0.10289568799E+01  0.10288479316E+01 0.  0.
     999903    2    3    3    0    0  0.62680929011E-01 -0.10543049842E+00  0.43778035128E-01  0.13770375259E+00  0.44736095689E-01 0.  0.
         14    1    1    2    0    0  0.39558240083E-02 -0.13151947302E-01 -0.59642319918E-02  0.14973120071E-01  0.00000000000E+00 0.  1.
     999901    1    3    3    0    0 -0.66636753020E-01  0.11858244573E+00 -0.37813803137E-01  0.89125312734E+00  0.88000000000E+00 0.  1.
        -11    1    4    4    0    0  0.34933608516E-01 -0.78466910856E-01  0.10246412287E-01  0.86502388343E-01  0.51100000000E-03 0.  1.
         11    1    4    4    0    0  0.27747320495E-01 -0.26963587567E-01  0.33531622841E-01  0.51201364245E-01  0.51100000000E-03 0. -1.
</event>
<event>
 8    1  0.1993226E+004  0.1043930E+01  0.7957747E-01            NaN
         13   -1    0    0    0    0  0.00000000000E+00  0.00000000000E+00  0.74505805969E-08  0.10566000000E+00  0.10566000000E+00 0. -1.
     999900   -1    0    0    0    0 -0.00000000000E+00 -0.00000000000E+00 -0.74505805969E-08  0.93827000000E+00  0.93827000000E+00 0. -1.
     999902    2    1    2    0    0 -0.52357937138E-02 -0.84507392859E-02 -0.98766782102E-02  0.10299165314E+01  0.10298211905E+01 0.  0.
     999903    2    3    3    0    0 -0.76315000830E-01  0.10353529473E+00  0.28024961147E-01  0.13916984474E+00  0.45158727074E-01 0.  0.
         14    1    1    2    0    0  0.52357937138E-02  0.84507392859E-02  0.98766782102E-02  0.14013468620E-01  0.00000000000E+00 0. -1.
     999901    1    3    3    0    0  0.71079207116E-01 -0.11198603401E+00 -0.37901639357E-01  0.89074668664E+00  0.88000000000E+00 0.  1.
        -11    1    4    4    0    0 -0.24705608760E-01  0.55732600293E-02  0.18974839408E-02  0.25402556916E-01  0.51100000000E-03 0. -1.
         11    1    4    4    0    0 -0.51609392070E-01  0.97962034699E-01  0.26127477206E-01  0.11376728782E+00  0.51100000000E-03 0.  1.
</event>
<event>
 8    1  0.1993226E+004  0.1043930E+01  0.7957747E-01            NaN
         13   -1    0    0    0    0  0.00000000000E+00  0.00000000000E+00  0.74505805969E-08  0.10566000000E+00  0.10566000000E+00 0.  1.
     999900   -1    0    0    0    0 -0.00000000000E+00 -0.00000000000E+00 -0.74505805969E-08  0.93827000000E+00  0.93827000000E+00 0. -1.
     999902    2    1    2    0    0  0.78755329028E-02 -0.34105798577E-02  0.10233498060E-01  0.10305740816E+01  0.10304875337E+01 0.  0.
     999903    2    3    3    0    0  0.12757751059E+00  0.24086542936E-01 -0.31591328883E-01  0.14106074761E+00  0.45209951276E-01 0.  0.
         14    1    1    2    0    0 -0.78755329028E-02  0.34105798577E-02 -0.10233498060E-01  0.13355918389E-01  0.00000000000E+00 0.  1.
     999901    1    3    3    0    0 -0.11970197769E+00 -0.27497122793E-01  0.41824826943E-01  0.88951333401E+00  0.88000000000E+00 0.  1.
        -11    1    4    4    0    0  0.97130848866E-01  0.31498566675E-01 -0.91630482943E-02  0.10252211507E+00  0.51100000000E-03 0. -1.
         11    1    4    4    0    0  0.30446661728E-01 -0.74120237390E-02 -0.22428280588E-01  0.38538632532E-01  0.51100000000E-03 0.  1.
</event>
<event>
 8    1  0.1993226E+004  0.1043930E+01  0.7957747E-01            NaN
         13   -1    0    0    0    0  0.00000000000E+00  0.00000000000E+00  0.74505805969E-08  0.10566000000E+00  0.10566000000E+00 0. -1.
     999900   -1    0    0    0    0 -0.00000000000E+00 -0.00000000000E+00 -0.74505805969E-08  0.93827000000E+00  0.93827000000E+00 0. -1.
     999902    2    1    2    0    0  0.32743809225E-02  0.99827235278E-02 -0.86521199083E-02  0.10303198744E+01  0.10302299783E+01 0.  0.
     999903    2    3    3    0    0  0.68751808358E-01 -0.11548461000E+00  0.11028185066E-01  0.13879496748E+00  0.32846854218E-01 0.  0.
         14    1    1    2    0    0 -0.32743809225E-02 -0.99827235278E-02  0.86521199083E-02  0.13610125582E-01  0.00000000000E+00 0.  1.
     999901    1    3    3    0    0 -0.65477427436E-01  0.12546733353E+00 -0.19680304974E-01  0.89152490694E+00  0.88000000000E+00 0. -1.
        -11    1    4    4    0    0  0.61822502584E-01 -0.88838270123E-01  0.19516338961E-01  0.10997912835E+00  0.51100000000E-03 0. -1.
         11    1    4    4    0    0  0.69293057740E-02 -0.26646339879E-01 -0.84881538952E-02  0.28815839134E-01  0.51100000000E-03 0.  1.
</event>
<event>
 8    1  0.1993226E+004  0.1043930E+01  0.7957747E-01            NaN
         13   -1    0    0    0    0  0.00000000000E+00  0.00000000000E+00  0.74505805969E-08  0.10566000000E+00  0.10566000000E+00 0.  1.
     999900   -1    0    0    0    0 -0.00000000000E+00 -0.00000000000E+00 -0.74505805969E-08  0.93827000000E+00  0.93827000000E+00 0. -1.
     999902    2    1    2    0    0 -0.11545682957E-01  0.73039243641E-02  0.15025787335E-02  0.10301856248E+01  0.10300939344E+01 0.  0.
     999903    2    3    3    0    0  0.12965205769E+00  0.10777749694E-01  0.20134159315E-01  0.13872838793E+00  0.43753460350E-01 0.  0.
         14    1    1    2    0    0  0.11545682957E-01 -0.73039243641E-02 -0.15025787335E-02  0.13744375174E-01  0.00000000000E+00 0.  1.
     999901    1    3    3    0    0 -0.14119774065E+00 -0.34738253304E-02 -0.18631580581E-01  0.89145723690E+00  0.88000000000E+00 0. -1.
        -11    1    4    4    0    0  0.69834773077E-01  0.24329315689E-01 -0.68420862962E-03  0.73956341142E-01  0.51100000000E-03 0. -1.
         11    1    4    4    0    0  0.59817284616E-01 -0.13551565994E-01  0.20818367944E-01  0.64772046784E-01  0.51100000000E-03 0.  1.
</event>
<event>
 8    1  0.1993226E+004  0.1043930E+01  0.7957747E-01            NaN
         13   -1    0    0    0    0  0.00000000000E+00  0.00000000000E+00  0.74505805969E-08  0.10566000000E+00  0.10566000000E+00 0.  1.
     999900   -1    0    0    0    0 -0.00000000000E+00 -0.00000000000E+00 -0.74505805969E-08  0.93827000000E+00  0.93827000000E+00 0.  1.
     999902    2    1    2    0    0 -0.13109796197E-01 -0.17705907656E-02 -0.17188122906E-02  0.10305899826E+01  0.10305036420E+01 0.  0.
     999903    2    3    3    0    0  0.13065243760E+00  0.11960517276E-01 -0.42083816283E-02  0.13881516735E+00  0.45153369585E-01 0.  0.
         14    1    1    2    0    0  0.13109796197E-01  0.17705907656E-02  0.17188122906E-02  0.13340017379E-01  0.00000000000E+00 0. -1.
     999901    1    3    3    0    0 -0.14376223380E+00 -0.13731108042E-01  0.24895693377E-02  0.89177481527E+00  0.88000000000E+00 0.  1.
        -11    1    4    4    0    0  0.10489413502E+00 -0.86375077723E-02 -0.82995318191E-02  0.10557712561E+00  0.51100000000E-03 0. -1.
         11    1    4    4    0    0  0.25758302581E-01  0.20598025048E-01  0.40911501908E-02  0.33238041739E-01  0.51100000000E-03 0.  1.
</event>
<event>
 8    1  0.1993226E+004  0.1043930E+01  0.7957747E-01            NaN
         13   -1    0    0    0    0  0.00000000000E+00  0.00000000000E+00  0.74505805969E-08  0.10566000000E+00  0.10566000000E+00 0. -1.
     999900   -1    0    0    0    0 -0.00000000000E+00 -0.00000000000E+00 -0.74505805969E-08  0.93827000000E+00  0.93827000000E+00 0. -1.
     999902    2    1    2    0    0 -0.10186875659E-01  0.23877172424E-02  0.98437138977E-02  0.10295643349E+01  0.10294641069E+01 0.  0.
     999903    2    3    3    0    0 -0.10791082960E+00 -0.75948030023E-01  0.19021460168E-01  0.14064887692E+00  0.44804466570E-01 0.  0.
         14    1    1    2    0    0  0.10186875659E-01 -0.23877172424E-02 -0.98437138977E-02  0.14365665061E-01  0.00000000000E+00 0.  1.
     999901    1    3    3    0    0  0.97723953936E-01  0.78335747265E-01 -0.91777462708E-02  0.88891545802E+00  0.88000000000E+00 0. -1.
        -11    1    4    4    0    0 -0.56890128905E-01 -0.17136271077E-01 -0.37259987749E-02  0.59533878935E-01  0.51100000000E-03 0.  1.
         11    1    4    4    0    0 -0.51020700691E-01 -0.58811758946E-01  0.22747458943E-01  0.81114997989E-01  0.51100000000E-03 0. -1.
</event>
<event>
 8    1  0.1993226E+004  0.1043930E+01  0.7957747E-01            NaN
         13   -1    0    0    0    0  0.00000000000E+00  0.00000000000E+00  0.74505805969E-08  0.10566000000E+00  0.10566000000E+00 0. -1.
     999900   -1    0    0    0    0 -0.00000000000E+00 -0.00000000000E+00 -0.74505805969E-08  0.93827000000E+00  0.93827000000E+00 0. -1.
     999902    2    1    2    0    0  0.69962150421E-03 -0.14011348807E-01  0.23668444370E-02  0.10297029371E+01  0.10296046471E+01 0.  0.
     999903    2    3    3    0    0 -0.98863136562E-01 -0.72945959625E-01 -0.51004456785E-01  0.14052661774E+00  0.45290648988E-01 0.  0.
         14    1    1    2    0    0 -0.69962150421E-03  0.14011348807E-01 -0.23668444370E-02  0.14227062881E-01  0.00000000000E+00 0.  1.
     999901    1    3    3    0    0  0.99562758066E-01  0.58934610818E-01  0.53371301222E-01  0.88917631938E+00  0.88000000000E+00 0.  1.
        -11    1    4    4    0    0 -0.66025759850E-01 -0.22854542950E-01 -0.18062527957E-01  0.72168186443E-01  0.51100000000E-03 0.  1.
         11    1    4    4    0    0 -0.32837376712E-01 -0.50091416675E-01 -0.32941928828E-01  0.68358431300E-01  0.51100000000E-03 0. -1.
</event>
<event>
 8    1  0.1993226E+004  0.1043930E+01  0.7957747E-01            NaN
         13   -1    0    0    0    0  0.00000000000E+00  0.00000000000E+00  0.74505805969E-08  0.10566000000E+00  0.10566000000E+00 0.  1.
     999900   -1    0    0    0    0 -0.00000000000E+00 -0.00000000000E+00 -0.74505805969E-08  0.93827000000E+00  0.93827000000E+00 0.  1.
     999902    2    1    2    0    0  0.92772011423E-02  0.55853776990E-02 -0.88540735097E-02  0.10299422367E+01  0.10298472476E+01 0.  0.
     999903    2    3    3    0    0  0.95886186426E-01  0.91234250404E-01 -0.20724772328E-01  0.14147290169E+00  0.45466652937E-01 0.  0.
         14    1    1    2    0    0 -0.92772011423E-02 -0.55853776990E-02  0.88540735097E-02  0.13987763323E-01  0.00000000000E+00 0.  1.
     999901    1    3    3    0    0 -0.86608985284E-01 -0.85648872705E-01  0.11870698818E-01  0.88846933499E+00  0.88000000000E+00 0.  1.
        -11    1    4    4    0    0  0.25199648317E-02  0.25806910767E-01 -0.35396770457E-02  0.26175127520E-01  0.51100000000E-03 0.  1.
         11    1    4    4    0    0  0.93366221595E-01  0.65427339637E-01 -0.17185095282E-01  0.11529777417E+00  0.51100000000E-03 0. -1.
</event>
<event>
 8    1  0.2504171E+004  0.1043930E+01  0.7957747E-01            NaN
         13   -1    0    0    0    0  0.00000000000E+00  0.00000000000E+00  0.74505805969E-08  0.10566000000E+00  0.10566000000E+00 0. -1.
     999900   -1    0    0    0    0 -0.00000000000E+00 -0.00000000000E+00 -0.74505805969E-08  0.93827000000E+00  0.93827000000E+00 0.  1.
     999902    2    1    2    0    0  0.73015667365E-02  0.10194111625E-01  0.55423709294E-02  0.10302204900E+01  0.10301292673E+01 0.  0.
     999903    2    3    3    0    0  0.83363299697E-01 -0.84094782187E-02  0.10480317509E+00  0.14118495190E+00  0.43924094471E-01 0.  0.
         14    1    1    2    0    0 -0.73015667365E-02 -0.10194111625E-01 -0.55423709294E-02  0.13709509989E-01  0.00000000000E+00 0. -1.
     999901    1    3    3    0    0 -0.76061732961E-01  0.18603589843E-01 -0.99260804158E-01  0.88903553811E+00  0.88000000000E+00 0.  1.
        -11    1    4    4    0    0  0.53013210184E-01  0.15576441120E-01  0.53334049408E-01  0.76797186922E-01  0.51100000000E-03 0.  1.
         11    1    4    4    0    0  0.30350089514E-01 -0.23985919338E-01  0.51469125680E-01  0.64387764981E-01  0.51100000000E-03 0. -1.
</event>
<event>
 8    1  0.1993226E+004  0.1043930E+01  0.7957747E-01            NaN
         13   -1    0    0    0    0  0.00000000000E+00  0.00000000000E+00  0.74505805969E-08  0.10566000000E+00  0.10566000000E+00 0.  1.
     999900   -1    0    0    0    0 -0.00000000000E+00 -0.00000000000E+00 -0.74505805969E-08  0.93827000000E+00  0.93827000000E+00 0.  1.
     999902    2    1    2    0    0  0.67138767031E-02 -0.10692507852E-01 -0.35587372201E-02  0.10308124364E+01  0.10307289695E+01 0.  0.
     999903    2    3    3    0    0 -0.12154310917E+00 -0.41988326205E-01  0.33484940032E-01  0.14019382177E+00  0.44691380945E-01 0.  0.
         14    1    1    2    0    0 -0.67138767031E-02  0.10692507852E-01  0.35587372201E-02  0.13117563613E-01  0.00000000000E+00 0.  1.
     999901    1    3    3    0    0  0.12825698587E+00  0.31295818353E-01 -0.37043677252E-01  0.89061861461E+00  0.88000000000E+00 0.  1.
        -11    1    4    4    0    0 -0.11547630152E-02 -0.33026647702E-02  0.11261437918E-01  0.11803481571E-01  0.51100000000E-03 0.  1.
         11    1    4    4    0    0 -0.12038834615E+00 -0.38685661435E-01  0.22223502113E-01  0.12839034020E+00  0.51100000000E-03 0. -1.
</event>
<event>
 8    1  0.2108486E+004  0.1043930E+01  0.7957747E-01            NaN
         13   -1    0    0    0    0  0.00000000000E+00  0.00000000000E+00  0.74505805969E-08  0.10566000000E+00  0.10566000000E+00 0.  1.
     999900   -1    0    0    0    0 -0.00000000000E+00 -0.00000000000E+00 -0.74505805969E-08  0.93827000000E+00  0.93827000000E+00 0. -1.
     999902    2    1    2    0    0  0.47542312464E-02 -0.12664474898E-01 -0.22339163877E-02  0.10302193464E+01  0.10301281084E+01 0.  0.
     999903    2    3    3    0    0  0.76690429845E-02 -0.64194801857E-01 -0.11708647194E+00  0.14125647867E+00  0.45435273186E-01 0.  0.
         14    1    1    2    0    0 -0.47542312464E-02  0.12664474898E-01  0.22339163877E-02  0.13710653581E-01  0.00000000000E+00 0.  1.
     999901    1    3    3    0    0 -0.29148117381E-02  0.51530326959E-01  0.11485255555E+00  0.88896286775E+00  0.88000000000E+00 0.  1.
        -11    1    4    4    0    0  0.11919194665E-01 -0.48248109465E-01 -0.44163961251E-01  0.66488073087E-01  0.51100000000E-03 0. -1.
         11    1    4    4    0    0 -0.42501516802E-02 -0.15946692392E-01 -0.72922510685E-01  0.74768405581E-01  0.51100000000E-03 0.  1.
</event>
<event>
 8    1  0.1993226E+004  0.1043930E+01  0.7957747E-01            NaN
         13   -1    0    0    0    0  0.00000000000E+00  0.00000000000E+00  0.74505805969E-08  0.10566000000E+00  0.10566000000E+00 0.  1.
     999900   -1    0    0    0    0 -0.00000000000E+00 -0.00000000000E+00 -0.74505805969E-08  0.93827000000E+00  0.93827000000E+00 0.  1.
     999902    2    1    2    0    0 -0.12661897045E-01 -0.46292319396E-02 -0.24181243499E-02  0.10302332577E+01  0.10301422059E+01 0.  0.
     999903    2    3    3    0    0 -0.69414701075E-02 -0.16152904053E-01  0.13181176064E+00  0.13996184943E+00  0.43656371075E-01 0.  0.
         14    1    1    2    0    0  0.12661897045E-01  0.46292319396E-02  0.24181243499E-02  0.13696742332E-01  0.00000000000E+00 0.  1.
     999901    1    3    3    0    0 -0.57204269379E-02  0.11523672113E-01 -0.13422988499E+00  0.89027140824E+00  0.88000000000E+00 0.  1.
        -11    1    4    4    0    0 -0.12572849270E-01 -0.29029144547E-01  0.10530779212E+00  0.10995799186E+00  0.51100000000E-03 0.  1.
         11    1    4    4    0    0  0.56313791624E-02  0.12876240495E-01  0.26503968523E-01  0.30003857569E-01  0.51100000000E-03 0. -1.
</event>
<event>
 7    1  0.1993226E+004  0.1043930E+01  0.7957747E-01            NaN
         13   -1    0    0    0    0  0.00000000000E+00  0.00000000000E+00  0.74505805969E-08  0.10566000000E+00  0.10566000000E+00 0. -1.
     999900   -1    0    0    0    0 -0.00000000000E+00 -0.00000000000E+00 -0.74505805969E-08  0.93827000000E+00  0.93827000000E+00 0.  1.
     999902    2    1    2    0    0 -0.56251246326E-02 -0.62386063729E-04  0.67816976647E-04  0.10383041207E+01  0.10382888791E+01 0.  0.
         14    1    1    2    0    0  0.56251246326E-02  0.62386063729E-04 -0.67816976647E-04  0.56258793353E-02  0.00000000000E+00 0. -1.
     999901    1    3    3    0    0  0.80781684896E-01 -0.83913752156E-01  0.80009145645E-01  0.89127361781E+00  0.88000000000E+00 0. -1.
        -11    1    3    3    0    0 -0.14494899080E-01  0.15980974385E-01 -0.27948470505E-01  0.35311071439E-01  0.51100000000E-03 0.  1.
         11    1    3    3    0    0 -0.71911910449E-01  0.67870391707E-01 -0.51992858164E-01  0.11171943142E+00  0.51100000000E-03 0. -1.
</event>
<event>
 8    1  0.1993226E+004  0.1043930E+01  0.7957747E-01            NaN
         13   -1    0    0    0    0  0.00000000000E+00  0.00000000000E+00  0.74505805969E-08  0.10566000000E+00  0.10566000000E+00 0.  1.
     999900   -1    0    0    0    0 -0.00000000000E+00 -0.00000000000E+00 -0.74505805969E-08  0.93827000000E+00  0.93827000000E+00 0. -1.
     999902    2    1    2    0    0  0.95494552054E-02  0.18592586394E-02  0.87646680292E-02  0.10308354079E+01  0.10307522349E+01 0.  0.
     999903    2    3    3    0    0 -0.24545661243E-01  0.12494076046E+00 -0.36045929964E-01  0.14048742941E+00  0.47166997408E-01 0.  0.
         14    1    1    2    0    0 -0.95494552054E-02 -0.18592586394E-02 -0.87646680292E-02  0.13094592131E-01  0.00000000000E+00 0.  1.
     999901    1    3    3    0    0  0.34095116449E-01 -0.12308150182E+00  0.44810597993E-01  0.89034797846E+00  0.88000000000E+00 0. -1.
        -11    1    4    4    0    0 -0.28953017000E-01  0.65332233568E-01 -0.15600419172E-02  0.71479177305E-01  0.51100000000E-03 0. -1.
         11    1    4    4    0    0  0.44073557563E-02  0.59608526893E-01 -0.34485888046E-01  0.69008252104E-01  0.51100000000E-03 0.  1.
</event>
<event>
 8    1  0.1993226E+004  0.1043930E+01  0.7957747E-01            NaN
         13   -1    0    0    0    0  0.00000000000E+00  0.00000000000E+00  0.74505805969E-08  0.10566000000E+00  0.10566000000E+00 0.  1.
     999900   -1    0    0    0    0 -0.00000000000E+00 -0.00000000000E+00 -0.74505805969E-08  0.93827000000E+00  0.93827000000E+00 0. -1.
     999902    2    1    2    0    0 -0.11304053477E-02 -0.24685725171E-02 -0.13027684490E-01  0.10306223996E+01  0.10305364808E+01 0.  0.
     999903    2    3    3    0    0  0.84664203425E-01 -0.10295575318E+00  0.57336680941E-03  0.14065421081E+00  0.44892803604E-01 0.  0.
         14    1    1    2    0    0  0.11304053477E-02  0.24685725171E-02  0.13027684490E-01  0.13307600448E-01  0.00000000000E+00 0.  1.
     999901    1    3    3    0    0 -0.85794608773E-01  0.10048718066E+00 -0.13601051299E-01  0.88996818874E+00  0.88000000000E+00 0.  1.
        -11    1    4    4    0    0  0.57562088567E-01 -0.43714504163E-01  0.15250975503E-01  0.73872899559E-01  0.51100000000E-03 0. -1.
         11    1    4    4    0    0  0.27102114859E-01 -0.59241249016E-01 -0.14677608694E-01  0.66781311253E-01  0.51100000000E-03 0.  1.
</event>
<event>
 8    1  0.1993226E+004  0.1043930E+01  0.7957747E-01            NaN
         13   -1    0    0    0    0  0.00000000000E+00  0.00000000000E+00  0.74505805969E-08  0.10566000000E+00  0.10566000000E+00 0. -1.
     999900   -1    0    0    0    0 -0.00000000000E+00 -0.00000000000E+00 -0.74505805969E-08  0.93827000000E+00  0.93827000000E+00 0.  1.
     999902    2    1    2    0    0 -0.92066612876E-02 -0.51605235580E-02  0.87654607352E-02  0.10302104185E+01  0.10301190608E+01 0.  0.
     999903    2    3    3    0    0  0.11382327251E+00 -0.62642973973E-01 -0.23703052616E-01  0.13920267379E+00  0.43996251358E-01 0.  0.
         14    1    1    2    0    0  0.92066612876E-02  0.51605235580E-02 -0.87654607352E-02  0.13719581530E-01  0.00000000000E+00 0.  1.
     999901    1    3    3    0    0 -0.12302993380E+00  0.57482450415E-01  0.32468513351E-01  0.89100774468E+00  0.88000000000E+00 0.  1.
        -11    1    4    4    0    0  0.71744702640E-01 -0.22238733981E-01  0.27111708372E-02  0.75162990989E-01  0.51100000000E-03 0.  1.
         11    1    4    4    0    0  0.42078569874E-01 -0.40404239992E-01 -0.26414223453E-01  0.64039682803E-01  0.51100000000E-03 0. -1.
</event>
<event>
 8    1  0.1993226E+004  0.1043930E+01  0.7957747E-01            NaN
         13   -1    0    0    0    0  0.00000000000E+00  0.00000000000E+00  0.74505805969E-08  0.10566000000E+00  0.10566000000E+00 0. -1.
     999900   -1    0    0    0    0 -0.00000000000E+00 -0.00000000000E+00 -0.74505805969E-08  0.93827000000E+00  0.93827000000E+00 0. -1.
     999902    2    1    2    0    0 -0.16495733903E-02  0.79042045508E-02  0.11413429526E-01  0.10299491590E+01  0.10298542645E+01 0.  0.
     999903    2    3    3    0    0  0.81738350135E-01  0.98007459004E-01  0.39808401050E-01  0.14097310944E+00  0.44744707937E-01 0.  0.
         14    1    1    2    0    0  0.16495733903E-02 -0.79042045508E-02 -0.11413429526E-01  0.13980841015E-01  0.00000000000E+00 0.  1.
     999901    1    3    3    0    0 -0.83387923525E-01 -0.90103254453E-01 -0.28394971524E-01  0.88897604954E+00  0.88000000000E+00 0. -1.
        -11    1    4    4    0    0  0.18415404865E-01  0.41636193474E-01 -0.37004266610E-02  0.45679908295E-01  0.51100000000E-03 0. -1.
         11    1    4    4    0    0  0.63322945270E-01  0.56371265530E-01  0.43508827711E-01  0.95293201147E-01  0.51100000000E-03 0.  1.
</event>
<event>
 8    1  0.1993226E+004  0.1043930E+01  0.7957747E-01            NaN
         13   -1    0    0    0    0  0.00000000000E+00  0.00000000000E+00  0.74505805969E-08  0.10566000000E+00  0.10566000000E+00 0.  1.
     999900   -1    0    0    0    0 -0.00000000000E+00 -0.00000000000E+00 -0.74505805969E-08  0.93827000000E+00  0.93827000000E+00 0.  1.
     999902    2    1    2    0    0 -0.61940571368E-02 -0.98101190697E-02 -0.80979939281E-02  0.10297814211E+01  0.10296842200E+01 0.  0.
     999903    2    3    3    0    0 -0.69432451593E-01  0.35521039762E-01  0.10602688379E+00  0.13900732165E+00  0.44707111131E-01 0.  0.
         14    1    1    2    0    0  0.61940571368E-02  0.98101190697E-02  0.80979939281E-02  0.14148578926E-01  0.00000000000E+00 0.  1.
     999901    1    3    3    0    0  0.63238394456E-01 -0.45331158832E-01 -0.11412487772E+00  0.89077409943E+00  0.88000000000E+00 0.  1.
        -11    1    4    4    0    0 -0.11688196250E-01  0.69255360108E-02  0.55444348713E-01  0.57086897848E-01  0.51100000000E-03 0.  1.
         11    1    4    4    0    0 -0.57744255343E-01  0.28595503751E-01  0.50582535075E-01  0.81920423800E-01  0.51100000000E-03 0. -1.
</event>
<event>
 8    1  0.1993226E+004  0.1043930E+01  0.7957747E-01            NaN
         13   -1    0    0    0    0  0.00000000000E+00  0.00000000000E+00  0.74505805969E-08  0.10566000000E+00  0.10566000000E+00 0. -1.
     999900   -1    0    0    0    0 -0.00000000000E+00 -0.00000000000E+00 -0.74505805969E-08  0.93827000000E+00  0.93827000000E+00 0.  1.
     999902    2    1    2    0    0 -0.28199389183E-02  0.11643107053E-01 -0.20659280771E-03  0.10319484860E+01  0.10318789275E+01 0.  0.
     999903    2    3    3    0    0  0.77055077350E-01 -0.10706687273E+00  0.11962537622E-01  0.14030945294E+00  0.46290820861E-01 0.  0.
         14    1    1    2    0    0  0.28199389183E-02 -0.11643107053E-01  0.20659280771E-03  0.11981514009E-01  0.00000000000E+00 0.  1.
     999901    1    3    3    0    0 -0.79875016269E-01  0.11870997979E+00 -0.12169130430E-01  0.89163903305E+00  0.88000000000E+00 0.  1.
        -11    1    4    4    0    0  0.66213920094E-01 -0.64393515079E-01  0.22434715030E-01  0.95049384837E-01  0.51100000000E-03 0.  1.
         11    1    4    4    0    0  0.10841157257E-01 -0.42673357653E-01 -0.10472177408E-01  0.45260068103E-01  0.51100000000E-03 0. -1.
</event>
<event>
 8    1  0.1993226E+004  0.1043930E+01  0.7957747E-01            NaN
         13   -1    0    0    0    0  0.00000000000E+00  0.00000000000E+00  0.74505805969E-08  0.10566000000E+00  0.10566000000E+00 0.  1.
     999900   -1    0    0    0    0 -0.00000000000E+00 -0.00000000000E+00 -0.74505805969E-08  0.93827000000E+00  0.93827000000E+00 0.  1.
     999902    2    1    2    0    0 -0.43440700361E-02 -0.18770735772E-03 -0.13776001067E-01  0.10294840876E+01  0.10293827288E+01 0.  0.
     999903    2    3    3    0    0 -0.11876373171E+00 -0.42821963540E-01 -0.41673299890E-01  0.14061525701E+00  0.45797838928E-01 0.  0.
         14    1    1    2    0    0  0.43440700361E-02  0.18770735772E-03  0.13776001067E-01  0.14445912361E-01  0.00000000000E+00 0.  1.
     999901    1    3    3    0    0  0.11441966167E+00  0.42634256182E-01  0.27897298823E-01  0.88886883063E+00  0.88000000000E+00 0. -1.
        -11    1    4    4    0    0 -0.11425970463E+00 -0.46030267921E-01 -0.28671067050E-01  0.12647670487E+00  0.51100000000E-03 0.  1.
         11    1    4    4    0    0 -0.45040270748E-02  0.32083043809E-02 -0.13002232841E-01  0.14138552144E-01  0.51100000000E-03 0. -1.
</event>
<event>
 8    1  0.1993226E+004  0.1043930E+01  0.7957747E-01            NaN
         13   -1    0    0    0    0  0.00000000000E+00  0.00000000000E+00  0.74505805969E-08  0.10566000000E+00  0.10566000000E+00 0. -1.
     999900   -1    0    0    0    0 -0.00000000000E+00 -0.00000000000E+00 -0.74505805969E-08  0.93827000000E+00  0.93827000000E+00 0.  1.
     999902    2    1    2    0    0 -0.39561158216E-02  0.10797476219E-01  0.75981664088E-02  0.10301470947E+01  0.10300548861E+01 0.  0.
     999903    2    3    3    0    0 -0.53847243407E-01  0.75205665240E-01  0.98671800824E-01  0.14170354204E+00  0.42288909200E-01 0.  0.
         14    1    1    2    0    0  0.39561158216E-02 -0.10797476219E-01 -0.75981664088E-02  0.13782905277E-01  0.00000000000E+00 0.  1.
     999901    1    3    3    0    0  0.49891127585E-01 -0.64408189021E-01 -0.91073634415E-01  0.88844355269E+00  0.88000000000E+00 0.  1.
        -11    1    4    4    0    0 -0.49217145755E-01  0.33037982174E-01  0.57339889768E-01  0.82473994580E-01  0.51100000000E-03 0. -1.
         11    1    4    4    0    0 -0.46300976515E-02  0.42167683066E-01  0.41331911056E-01  0.59229547456E-01  0.51100000000E-03 0.  1.
</event>
<event>
 8    1  0.1993226E+004  0.1043930E+01  0.7957747E-01            NaN
         13   -1    0    0    0    0  0.00000000000E+00  0.00000000000E+00  0.74505805969E-08  0.10566000000E+00  0.10566000000E+00 0.  1.
     999900   -1    0    0    0    0 -0.00000000000E+00 -0.00000000000E+00 -0.74505805969E-08  0.93827000000E+00  0.93827000000E+00 0.  1.
     999902    2    1    2    0    0  0.80259542952E-02  0.87909973337E-02  0.79437746955E-03  0.10319998444E+01  0.10319308845E+01 0.  0.
     999903    2    3    3    0    0 -0.11176271219E+00 -0.13701934462E-01  0.71589824892E-01  0.14078311883E+00  0.44901410620E-01 0.  0.
         14    1    1    2    0    0 -0.80259542952E-02 -0.87909973337E-02 -0.79437746955E-03  0.11930155575E-01  0.00000000000E+00 0.  1.
     999901    1    3    3    0    0  0.11978866649E+00  0.22492931795E-01 -0.70795447423E-01  0.89121672559E+00  0.88000000000E+00 0. -1.
        -11    1    4    4    0    0 -0.69116131262E-01  0.10611187981E-01  0.54990329587E-01  0.88959734600E-01  0.51100000000E-03 0. -1.
         11    1    4    4    0    0 -0.42646580931E-01 -0.24313122443E-01  0.16599495305E-01  0.51823384233E-01  0.51100000000E-03 0.  1.
</event>
<event>
 8    1  0.1993226E+004  0.1043930E+01  0.7957747E-01            NaN
         13   -1    0    0    0    0  0.00000000000E+00  0.00000000000E+00  0.74505805969E-08  0.10566000000E+00  0.10566000000E+00 0. -1.
     999900   -1    0    0    0    0 -0.00000000000E+00 -0.00000000000E+00 -0.74505805969E-08  0.93827000000E+00  0.93827000000E+00 0.  1.
     999902    2    1    2    0    0 -0.42440575410E-02 -0.39428416873E-02  0.13428663349E-01  0.10293051231E+01  0.10292012191E+01 0.  0.
     999903    2    3    3    0    0  0.89498555586E-01  0.34224634444E-01  0.90735543583E-01  0.14013652970E+00  0.47159209425E-01 0.  0.
         14    1    1    2    0    0  0.42440575410E-02  0.39428416873E-02 -0.13428663349E-01  0.14624876899E-01  0.00000000000E+00 0.  1.
     999901    1    3    3    0    0 -0.93742613127E-01 -0.38167476131E-01 -0.77306880234E-01  0.88916859340E+00  0.88000000000E+00 0.  1.
        -11    1    4    4    0    0  0.30203546808E-01  0.25072549284E-01  0.62544878374E-01  0.73844498097E-01  0.51100000000E-03 0.  1.
         11    1    4    4    0    0  0.59295008778E-01  0.91520851604E-02  0.28190665209E-01  0.66292031607E-01  0.51100000000E-03 0. -1.
</event>
<event>
 8    1  0.1993226E+004  0.1043930E+01  0.7957747E-01            NaN
         13   -1    0    0    0    0  0.00000000000E+00  0.00000000000E+00  0.74505805969E-08  0.10566000000E+00  0.10566000000E+00 0. -1.
     999900   -1    0    0    0    0 -0.00000000000E+00 -0.00000000000E+00 -0.74505805969E-08  0.93827000000E+00  0.93827000000E+00 0.  1.
     999902    2    1    2    0    0 -0.35233168752E-02  0.11290922583E-01  0.75831409248E-02  0.10298799921E+01  0.10297841500E+01 0.  0.
     999903    2    3    3    0    0 -0.34171229726E-01 -0.12361878501E+00  0.30253548418E-01  0.13878298780E+00  0.43544960255E-01 0.  0.
         14    1    1    2    0    0  0.35233168752E-02 -0.11290922583E-01 -0.75831409248E-02  0.14050007860E-01  0.00000000000E+00 0.  1.
     999901    1    3    3    0    0  0.30647912851E-01  0.13490970759E+00 -0.22670407494E-01  0.89109700434E+00  0.88000000000E+00 0. -1.
        -11    1    4    4    0    0 -0.85955522697E-02 -0.52150594509E-02 -0.67515392515E-02  0.12121252706E-01  0.51100000000E-03 0. -1.
         11    1    4    4    0    0 -0.25575677456E-01 -0.11840372556E+00  0.37005087670E-01  0.12666173510E+00  0.51100000000E-03 0.  1.
</event>
<event>
 8    1  0.1993226E+004  0.1043930E+01  0.7957747E-01            NaN
         13   -1    0    0    0    0  0.00000000000E+00  0.00000000000E+00  0.74505805969E-08  0.10566000000E+00  0.10566000000E+00 0.  1.
     999900   -1    0    0    0    0 -0.00000000000E+00 -0.00000000000E+00 -0.74505805969E-08  0.93827000000E+00  0.93827000000E+00 0.  1.
     999902    2    1    2    0    0  0.57017007643E-02  0.47107880167E-02 -0.21176892041E-01  0.10214987345E+01  0.10212524188E+01 0.  0.
     999903    2    3    3    0    0  0.20708535972E-01 -0.12051639082E+00  0.17696183929E-01  0.13165708148E+00  0.45468541431E-01 0.  0.
         14    1    1    2    0    0 -0.57017007643E-02 -0.47107880167E-02  0.21176892041E-01  0.22431265499E-01  0.00000000000E+00 0.  1.
     999901    1    3    3    0    0 -0.15006835208E-01  0.12522717883E+00 -0.38873075971E-01  0.88984165302E+00  0.88000000000E+00 0. -1.
        -11    1    4    4    0    0  0.28589395523E-01 -0.66139362358E-01  0.24905718027E-01  0.76238603745E-01  0.51100000000E-03 0. -1.
         11    1    4    4    0    0 -0.78808595514E-02 -0.54377028458E-01 -0.72095340982E-02  0.55418477732E-01  0.51100000000E-03 0.  1.
</event>
<event>
 8    1  0.1993226E+004  0.1043930E+01  0.7957747E-01            NaN
         13   -1    0    0    0    0  0.00000000000E+00  0.00000000000E+00  0.74505805969E-08  0.10566000000E+00  0.10566000000E+00 0.  1.
     999900   -1    0    0    0    0 -0.00000000000E+00 -0.00000000000E+00 -0.74505805969E-08  0.93827000000E+00  0.93827000000E+00 0.  1.
     999902    2    1    2    0    0  0.57803657196E-02 -0.11649950750E-01  0.53603669400E-02  0.10298634612E+01  0.10297673918E+01 0.  0.
     999903    2    3    3    0    0 -0.31702189174E-01  0.12381268089E+00 -0.25615139170E-01  0.13817150291E+00  0.45832522449E-01 0.  0.
         14    1    1    2    0    0 -0.57803657196E-02  0.11649950750E-01 -0.53603669400E-02  0.14066538809E-01  0.00000000000E+00 0.  1.
     999901    1    3    3    0    0  0.37482554894E-01 -0.13546263164E+00  0.30975506110E-01  0.89169195828E+00  0.88000000000E+00 0. -1.
        -11    1    4    4    0    0  0.50366781961E-02  0.68443650369E-01 -0.19991230547E-01  0.71482947777E-01  0.51100000000E-03 0. -1.
         11    1    4    4    0    0 -0.36738867371E-01  0.55369030517E-01 -0.56239086230E-02  0.66688555130E-01  0.51100000000E-03 0.  1.
</event>
<event>
 8    1  0.1993226E+004  0.1043930E+01  0.7957747E-01            NaN
         13   -1    0    0    0    0  0.00000000000E+00  0.00000000000E+00  0.74505805969E-08  0.10566000000E+00  0.10566000000E+00 0.  1.
     999900   -1    0    0    0    0 -0.00000000000E+00 -0.00000000000E+00 -0.74505805969E-08  0.93827000000E+00  0.93827000000E+00 0.  1.
     999902    2    1    2    0    0 -0.93636098746E-02  0.95240190127E-02 -0.46466839284E-02  0.10297887200E+01  0.10296916199E+01 0.  0.
     999903    2    3    3    0    0 -0.12106750854E+00  0.35013645029E-01 -0.45559135404E-01  0.14141868974E+00  0.45169835357E-01 0.  0.
         14    1    1    2    0    0  0.93636098746E-02 -0.95240190127E-02  0.46466839284E-02  0.14141279983E-01  0.00000000000E+00 0.  1.
     999901    1    3    3    0    0  0.11170389867E+00 -0.25489626016E-01  0.40912451476E-01  0.88837003028E+00  0.88000000000E+00 0.  1.
        -11    1    4    4    0    0 -0.38367363629E-01  0.14276434091E-01  0.65979691382E-02  0.41468849513E-01  0.51100000000E-03 0. -1.
         11    1    4    4    0    0 -0.82700144910E-01  0.20737210938E-01 -0.52157104542E-01  0.99949840225E-01  0.51100000000E-03 0.  1.
</event>
<event>
 8    1  0.1993226E+004  0.1043930E+01  0.7957747E-01            NaN
         13   -1    0    0    0    0  0.00000000000E+00  0.00000000000E+00  0.74505805969E-08  0.10566000000E+00  0.10566000000E+00 0. -1.
     999900   -1    0    0    0    0 -0.00000000000E+00 -0.00000000000E+00 -0.74505805969E-08  0.93827000000E+00  0.93827000000E+00 0.  1.
     999902    2    1    2    0    0 -0.12496921015E-01  0.47037445547E-02 -0.61157140592E-02  0.10292432643E+01  0.10291384731E+01 0.  0.
     999903    2    3    3    0    0  0.88754521272E-01 -0.86542991581E-01 -0.39841815199E-01  0.13811180859E+00  0.46048311538E-01 0.  0.
         14    1    1    2    0    0  0.12496921015E-01 -0.47037445547E-02  0.61157140592E-02  0.14686735721E-01  0.00000000000E+00 0.  1.
     999901    1    3    3    0    0 -0.10125144229E+00  0.91246736136E-01  0.33726101140E-01  0.89113145569E+00  0.88000000000E+00 0. -1.
        -11    1    4    4    0    0  0.16397294728E-01 -0.16519222016E-01  0.10495156425E-01  0.25537529243E-01  0.51100000000E-03 0.  1.
         11    1    4    4    0    0  0.72357226543E-01 -0.70023769565E-01 -0.50336971624E-01  0.11257427935E+00  0.51100000000E-03 0. -1.
</event>
<event>
 8    1  0.1993226E+004  0.1043930E+01  0.7957747E-01            NaN
         13   -1    0    0    0    0  0.00000000000E+00  0.00000000000E+00  0.74505805969E-08  0.10566000000E+00  0.10566000000E+00 0.  1.
     999900   -1    0    0    0    0 -0.00000000000E+00 -0.00000000000E+00 -0.74505805969E-08  0.93827000000E+00  0.93827000000E+00 0.  1.
     999902    2    1    2    0    0  0.25752597891E-02  0.62254236357E-02  0.50858839298E-02  0.10354887869E+01  0.10354543804E+01 0.  0.
     999903    2    3    3    0    0 -0.97207549583E-01 -0.95734472021E-01 -0.14593045773E-01  0.14378273132E+00  0.42966498720E-01 0.  0.
         14    1    1    2    0    0 -0.25752597891E-02 -0.62254236357E-02 -0.50858839298E-02  0.84412130510E-02  0.00000000000E+00 0. -1.
     999901    1    3    3    0    0  0.99782809373E-01  0.10195989566E+00  0.19678929702E-01  0.89170605563E+00  0.88000000000E+00 0. -1.
        -11    1    4    4    0    0 -0.24665980784E-01 -0.30636606154E-01 -0.23643148658E-01  0.45894137361E-01  0.51100000000E-03 0. -1.
         11    1    4    4    0    0 -0.72541568799E-01 -0.65097865867E-01  0.90501028854E-02  0.97888593960E-01  0.51100000000E-03 0.  1.
</event>
<event>
 8    1  0.1993226E+004  0.1043930E+01  0.7957747E-01            NaN
         13   -1    0    0    0    0  0.00000000000E+00  0.00000000000E+00  0.74505805969E-08  0.10566000000E+00  0.10566000000E+00 0.  1.
     999900   -1    0    0    0    0 -0.00000000000E+00 -0.00000000000E+00 -0.74505805969E-08  0.93827000000E+00  0.93827000000E+00 0.  1.
     999902    2    1    2    0    0  0.37176023202E-02  0.65321503946E-02  0.11626542636E-01  0.10300856492E+01  0.10299926109E+01 0.  0.
     999903    2    3    3    0    0 -0.96432409906E-01  0.17718823717E-01 -0.87340909971E-01  0.13882265585E+00  0.45056950957E-01 0.  0.
         14    1    1    2    0    0 -0.37176023202E-02 -0.65321503946E-02 -0.11626542636E-01  0.13844350814E-01  0.00000000000E+00 0. -1.
     999901    1    3    3    0    0  0.10015001223E+00 -0.11186673323E-01  0.98967452606E-01  0.89126299333E+00  0.88000000000E+00 0. -1.
        -11    1    4    4    0    0 -0.92648867256E-04 -0.10632334464E-02 -0.19427499077E-01  0.19463501497E-01  0.51100000000E-03 0.  1.
         11    1    4    4    0    0 -0.96339761039E-01  0.18782057164E-01 -0.67913410894E-01  0.11935915436E+00  0.51100000000E-03 0. -1.
</event>
<event>
 8    1  0.1993226E+004  0.1043930E+01  0.7957747E-01            NaN
         13   -1    0    0    0    0  0.00000000000E+00  0.00000000000E+00  0.74505805969E-08  0.10566000000E+00  0.10566000000E+00 0. -1.
     999900   -1    0    0    0    0 -0.00000000000E+00 -0.00000000000E+00 -0.74505805969E-08  0.93827000000E+00  0.93827000000E+00 0. -1.
     999902    2    1    2    0    0  0.16408672963E-02  0.77473715250E-02 -0.12384877715E-01  0.10292296800E+01  0.10291246935E+01 0.  0.
     999903    2    3    3    0    0 -0.11420901921E-01  0.12645007615E+00 -0.40810312703E-01  0.14070902903E+00  0.44871934091E-01 0.  0.
         14    1    1    2    0    0 -0.16408672963E-02 -0.77473715250E-02  0.12384877715E-01  0.14700319964E-01  0.00000000000E+00 0. -1.
     999901    1    3    3    0    0  0.13061769217E-01 -0.11870270463E+00  0.28425434988E-01  0.88852065100E+00  0.88000000000E+00 0. -1.
        -11    1    4    4    0    0  0.99322607447E-02  0.81606268382E-01 -0.11433571192E-01  0.83001328386E-01  0.51100000000E-03 0. -1.
         11    1    4    4    0    0 -0.21353162666E-01  0.44843807772E-01 -0.29376741511E-01  0.57707700649E-01  0.51100000000E-03 0.  1.
</event>
<event>
 8    1  0.1993226E+004  0.1043930E+01  0.7957747E-01            NaN
         13   -1    0    0    0    0  0.00000000000E+00  0.00000000000E+00  0.74505805969E-08  0.10566000000E+00  0.10566000000E+00 0.  1.
     999900   -1    0    0    0    0 -0.00000000000E+00 -0.00000000000E+00 -0.74505805969E-08  0.93827000000E+00  0.93827000000E+00 0. -1.
     999902    2    1    2    0    0 -0.91892144679E-02 -0.12289478892E-01  0.26910594272E-02  0.10283506947E+01  0.10282326762E+01 0.  0.
     999903    2    3    3    0    0 -0.28816003457E-01  0.19516183154E-01 -0.12508808474E+00  0.13833703147E+00  0.47737426312E-01 0.  0.
         14    1    1    2    0    0  0.91892144679E-02  0.12289478892E-01 -0.26910594272E-02  0.15579305338E-01  0.00000000000E+00 0.  1.
     999901    1    3    3    0    0  0.19626788989E-01 -0.31805662045E-01  0.12777914417E+00  0.89001366319E+00  0.88000000000E+00 0.  1.
        -11    1    4    4    0    0 -0.96635810641E-02  0.30614020944E-01 -0.45236242923E-01  0.55472352322E-01  0.51100000000E-03 0.  1.
         11    1    4    4    0    0 -0.19152422393E-01 -0.11097837790E-01 -0.79851841821E-01  0.82864679148E-01  0.51100000000E-03 0. -1.
</event>
<event>
 7    1  0.1993226E+004  0.1043930E+01  0.7957747E-01            NaN
         13   -1    0    0    0    0  0.00000000000E+00  0.00000000000E+00  0.74505805969E-08  0.10566000000E+00  0.10566000000E+00 0.  1.
     999900   -1    0    0    0    0 -0.00000000000E+00 -0.00000000000E+00 -0.74505805969E-08  0.93827000000E+00  0.93827000000E+00 0.  1.
     999903    2    1    2    0    0 -0.72183595355E-01 -0.54862943766E-01 -0.61209011817E-01  0.11810160917E+00  0.44508796030E-01 0.  0.
         14    1    1    2    0    0 -0.18647599208E-01  0.28941638302E-01  0.19995937353E-01  0.39814430731E-01  0.00000000000E+00 0.  1.
     999901    1    1    2    0    0  0.90831194563E-01  0.25921305464E-01  0.41213074464E-01  0.88601396010E+00  0.88000000000E+00 0.  1.
        -11    1    3    3    0    0 -0.45404446897E-02 -0.64321326584E-02  0.69785821701E-02  0.10533266285E-01  0.51100000000E-03 0.  1.
         11    1    3    3    0    0 -0.67643150665E-01 -0.48430811107E-01 -0.68187593987E-01  0.10756834289E+00  0.51100000000E-03 0. -1.
</event>
<event>
 8    1  0.1993226E+004  0.1043930E+01  0.7957747E-01            NaN
         13   -1    0    0    0    0  0.00000000000E+00  0.00000000000E+00  0.74505805969E-08  0.10566000000E+00  0.10566000000E+00 0.  1.
     999900   -1    0    0    0    0 -0.00000000000E+00 -0.00000000000E+00 -0.74505805969E-08  0.93827000000E+00  0.93827000000E+00 0. -1.
     999902    2    1    2    0    0 -0.90686500572E-02  0.11150596820E-01  0.44400693676E-02  0.10288870469E+01  0.10287770724E+01 0.  0.
     999903    2    3    3    0    0 -0.11614570879E+00  0.21787561458E-01 -0.60602593372E-01  0.13994993463E+00  0.44145060576E-01 0.  0.
         14    1    1    2    0    0  0.90686500572E-02 -0.11150596820E-01 -0.44400693676E-02  0.15042953144E-01  0.00000000000E+00 0. -1.
     999901    1    3    3    0    0  0.10707705873E+00 -0.10636964637E-01  0.65042662740E-01  0.88893711223E+00  0.88000000000E+00 0.  1.
        -11    1    4    4    0    0 -0.40042681563E-01  0.73661907897E-02 -0.45451908528E-01  0.61023063045E-01  0.51100000000E-03 0. -1.
         11    1    4    4    0    0 -0.76103027228E-01  0.14421370668E-01 -0.15150684844E-01  0.78926871581E-01  0.51100000000E-03 0.  1.
</event>
<event>
 8    1  0.1993226E+004  0.1043930E+01  0.7957747E-01            NaN
         13   -1    0    0    0    0  0.00000000000E+00  0.00000000000E+00  0.74505805969E-08  0.10566000000E+00  0.10566000000E+00 0.  1.
     999900   -1    0    0    0    0 -0.00000000000E+00 -0.00000000000E+00 -0.74505805969E-08  0.93827000000E+00  0.93827000000E+00 0. -1.
     999902    2    1    2    0    0 -0.32814252341E-03 -0.10836282556E-01  0.10989311199E-02  0.10330331956E+01  0.10329757223E+01 0.  0.
     999903    2    3    3    0    0 -0.58839581245E-01 -0.11415265013E+00  0.46394026610E-01  0.14390468633E+00  0.45422782724E-01 0.  0.
         14    1    1    2    0    0  0.32814252341E-03  0.10836282556E-01 -0.10989311199E-02  0.10896804429E-01  0.00000000000E+00 0. -1.
     999901    1    3    3    0    0  0.58511438721E-01  0.10331636757E+00 -0.45295095490E-01  0.88912850924E+00  0.88000000000E+00 0. -1.
        -11    1    4    4    0    0 -0.55968109262E-01 -0.64765048852E-01  0.38285776224E-01  0.93771011455E-01  0.51100000000E-03 0. -1.
         11    1    4    4    0    0 -0.28714719821E-02 -0.49387601277E-01  0.81082503859E-02  0.50133674875E-01  0.51100000000E-03 0.  1.
</event>
<event>
 8    1  0.1993226E+004  0.1043930E+01  0.7957747E-01            NaN
         13   -1    0    0    0    0  0.00000000000E+00  0.00000000000E+00  0.74505805969E-08  0.10566000000E+00  0.10566000000E+00 0. -1.
     999900   -1    0    0    0    0 -0.00000000000E+00 -0.00000000000E+00 -0.74505805969E-08  0.93827000000E+00  0.93827000000E+00 0.  1.
     999902    2    1    2    0    0 -0.12188012905E-01 -0.23211047659E-02  0.60258911173E-02  0.10301370109E+01  0.10300446663E+01 0.  0.
     999903    2    3    3    0    0  0.44600020121E-01  0.12342952656E+00  0.14754865646E-01  0.13934281634E+00  0.44437648262E-01 0.  0.
         14    1    1    2    0    0  0.12188012905E-01  0.23211047659E-02 -0.60258911173E-02  0.13792989149E-01  0.00000000000E+00 0. -1.
     999901    1    3    3    0    0 -0.56788033026E-01 -0.12575063133E+00 -0.87289745285E-02  0.89079419451E+00  0.88000000000E+00 0.  1.
        -11    1    4    4    0    0  0.40822365717E-01  0.67693859441E-01  0.24224199628E-01  0.82680089002E-01  0.51100000000E-03 0. -1.
         11    1    4    4    0    0  0.37776544043E-02  0.55735667124E-01 -0.94693339826E-02  0.56662727340E-01  0.51100000000E-03 0.  1.
</event>
<event>
 8    1  0.1993226E+004  0.1043930E+01  0.7957747E-01            NaN
         13   -1    0    0    0    0  0.00000000000E+00  0.00000000000E+00  0.74505805969E-08  0.10566000000E+00  0.10566000000E+00 0.  1.
     999900   -1    0    0    0    0 -0.00000000000E+00 -0.00000000000E+00 -0.74505805969E-08  0.93827000000E+00  0.93827000000E+00 0. -1.
     999902    2    1    2    0    0  0.12858370108E-01  0.24091180826E-03  0.44337818584E-02  0.10303265393E+01  0.10302367318E+01 0.  0.
     999903    2    3    3    0    0 -0.22669316453E-01  0.11038278450E-02 -0.13002016155E+00  0.13940520497E+00  0.44871510098E-01 0.  0.
         14    1    1    2    0    0 -0.12858370108E-01 -0.24091180826E-03 -0.44337818584E-02  0.13603460659E-01  0.00000000000E+00 0. -1.
     999901    1    3    3    0    0  0.35527686561E-01 -0.86291603677E-03  0.13445394341E+00  0.89092133437E+00  0.88000000000E+00 0.  1.
        -11    1    4    4    0    0 -0.20595371416E-01 -0.18605936272E-01 -0.52467665044E-01  0.59358800396E-01  0.51100000000E-03 0.  1.
         11    1    4    4    0    0 -0.20739450366E-02  0.19709764117E-01 -0.77552496509E-01  0.80046404575E-01  0.51100000000E-03 0. -1.
</event>
<event>
 8    1  0.1993226E+004  0.1043930E+01  0.7957747E-01            NaN
         13   -1    0    0    0    0  0.00000000000E+00  0.00000000000E+00  0.74505805969E-08  0.10566000000E+00  0.10566000000E+00 0. -1.
     999900   -1    0    0    0    0 -0.00000000000E+00 -0.00000000000E+00 -0.74505805969E-08  0.93827000000E+00  0.93827000000E+00 0. -1.
     999902    2    1    2    0    0 -0.25598277599E-02  0.13873959710E-01 -0.67908388545E-03  0.10298055308E+01  0.10297086630E+01 0.  0.
     999903    2    3    3    0    0 -0.85702465164E-02  0.13049697273E+00 -0.30053107232E-01  0.14160516737E+00  0.45231904159E-01 0.  0.
         14    1    1    2    0    0  0.25598277599E-02 -0.13873959710E-01  0.67908388545E-03  0.14124469233E-01  0.00000000000E+00 0. -1.
     999901    1    3    3    0    0  0.60104187565E-02 -0.11662301302E+00  0.29374023347E-01  0.88820036340E+00  0.88000000000E+00 0.  1.
        -11    1    4    4    0    0 -0.59034021794E-02  0.60256995115E-01 -0.37020048574E-01  0.70968307962E-01  0.51100000000E-03 0. -1.
         11    1    4    4    0    0 -0.26668443370E-02  0.70239977612E-01  0.69669413415E-02  0.70636859403E-01  0.51100000000E-03 0.  1.
</event>
<event>
 8    1  0.1993226E+004  0.1043930E+01  0.7957747E-01            NaN
         13   -1    0    0    0    0  0.00000000000E+00  0.00000000000E+00  0.74505805969E-08  0.10566000000E+00  0.10566000000E+00 0.  1.
     999900   -1    0    0    0    0 -0.00000000000E+00 -0.00000000000E+00 -0.74505805969E-08  0.93827000000E+00  0.93827000000E+00 0. -1.
     999902    2    1    2    0    0  0.89072305293E-02  0.85370494538E-02  0.68298638464E-02  0.10298279785E+01  0.10297314205E+01 0.  0.
     999903    2    3    3    0    0 -0.10116874263E+00  0.31887519427E-01 -0.78793468342E-01  0.13854052809E+00  0.41630984726E-01 0.  0.
         14    1    1    2    0    0 -0.89072305293E-02 -0.85370494538E-02 -0.68298638464E-02  0.14102021459E-01  0.00000000000E+00 0. -1.
     999901    1    3    3    0    0  0.11007597316E+00 -0.23350469973E-01  0.85623332189E-01  0.89128745045E+00  0.88000000000E+00 0.  1.
        -11    1    4    4    0    0 -0.55828563251E-01  0.32578947139E-01 -0.27987921817E-01  0.70440053663E-01  0.51100000000E-03 0. -1.
         11    1    4    4    0    0 -0.45340179380E-01 -0.69142771216E-03 -0.50805546525E-01  0.68100474427E-01  0.51100000000E-03 0.  1.
</event>
<event>
 8    1  0.1993226E+004  0.1043930E+01  0.7957747E-01            NaN
         13   -1    0    0    0    0  0.00000000000E+00  0.00000000000E+00  0.74505805969E-08  0.10566000000E+00  0.10566000000E+00 0.  1.
     999900   -1    0    0    0    0 -0.00000000000E+00 -0.00000000000E+00 -0.74505805969E-08  0.93827000000E+00  0.93827000000E+00 0. -1.
     999902    2    1    2    0    0  0.79575025085E-02  0.58009750618E-02 -0.72488551369E-02  0.10317022014E+01  0.10316297365E+01 0.  0.
     999903    2    3    3    0    0 -0.11671070561E+00  0.40310712762E-01  0.48281937697E-01  0.14051380770E+00  0.46547204842E-01 0.  0.
         14    1    1    2    0    0 -0.79575025085E-02 -0.58009750618E-02  0.72488551369E-02  0.12227798601E-01  0.00000000000E+00 0.  1.
     999901    1    3    3    0    0  0.12466820812E+00 -0.34509737700E-01 -0.55530792834E-01  0.89118839370E+00  0.88000000000E+00 0.  1.
        -11    1    4    4    0    0 -0.28397481239E-01 -0.71204862272E-02  0.22716007407E-01  0.37059362897E-01  0.51100000000E-03 0. -1.
         11    1    4    4    0    0 -0.88313224373E-01  0.47431198989E-01  0.25565930290E-01  0.10345444480E+00  0.51100000000E-03 0.  1.
</event>
<event>
 8    1  0.1993226E+004  0.1043930E+01  0.7957747E-01            NaN
         13   -1    0    0    0    0  0.00000000000E+00  0.00000000000E+00  0.74505805969E-08  0.10566000000E+00  0.10566000000E+00 0. -1.
     999900   -1    0    0    0    0 -0.00000000000E+00 -0.00000000000E+00 -0.74505805969E-08  0.93827000000E+00  0.93827000000E+00 0.  1.
     999902    2    1    2    0    0 -0.13851094590E-01  0.18896164053E-02 -0.26866963792E-02  0.10296947687E+01  0.10295963651E+01 0.  0.
     999903    2    3    3    0    0 -0.52459399564E-01  0.10136543238E+00 -0.71154401994E-01  0.14060879658E+00  0.40999332545E-01 0.  0.
         14    1    1    2    0    0  0.13851094590E-01 -0.18896164053E-02  0.26866963792E-02  0.14235231256E-01  0.00000000000E+00 0. -1.
     999901    1    3    3    0    0  0.38608304975E-01 -0.99475815977E-01  0.68467705615E-01  0.88908597216E+00  0.88000000000E+00 0. -1.
        -11    1    4    4    0    0 -0.18279017232E-01  0.23305921840E-01 -0.40218556037E-01  0.49950794132E-01  0.51100000000E-03 0.  1.
         11    1    4    4    0    0 -0.34180382332E-01  0.78059510543E-01 -0.30935845957E-01  0.90658002453E-01  0.51100000000E-03 0. -1.
</event>
<event>
 8    1  0.1993226E+004  0.1043930E+01  0.7957747E-01            NaN
         13   -1    0    0    0    0  0.00000000000E+00  0.00000000000E+00  0.74505805969E-08  0.10566000000E+00  0.10566000000E+00 0. -1.
     999900   -1    0    0    0    0 -0.00000000000E+00 -0.00000000000E+00 -0.74505805969E-08  0.93827000000E+00  0.93827000000E+00 0. -1.
     999902    2    1    2    0    0  0.10640981022E-01 -0.60705909027E-02 -0.91094820230E-02  0.10286635265E+01  0.10285502348E+01 0.  0.
     999903    2    3    3    0    0 -0.33696044101E-01  0.97572826045E-01  0.76793538425E-01  0.13732349114E+00  0.48006394419E-01 0.  0.
         14    1    1    2    0    0 -0.10640981022E-01  0.60705909027E-02  0.91094820230E-02  0.15266473520E-01  0.00000000000E+00 0. -1.
     999901    1    3    3    0    0  0.44337025123E-01 -0.10364341695E+00 -0.85903020448E-01  0.89134003534E+00  0.88000000000E+00 0.  1.
        -11    1    4    4    0    0 -0.41786945222E-01  0.48480188042E-01  0.45766200279E-01  0.78684710284E-01  0.51100000000E-03 0.  1.
         11    1    4    4    0    0  0.80909011208E-02  0.49092638004E-01  0.31027338146E-01  0.58638780858E-01  0.51100000000E-03 0. -1.
</event>
<event>
 8    1  0.1993226E+004  0.1043930E+01  0.7957747E-01            NaN
         13   -1    0    0    0    0  0.00000000000E+00  0.00000000000E+00  0.74505805969E-08  0.10566000000E+00  0.10566000000E+00 0. -1.
     999900   -1    0    0    0    0 -0.00000000000E+00 -0.00000000000E+00 -0.74505805969E-08  0.93827000000E+00  0.93827000000E+00 0. -1.
     999902    2    1    2    0    0  0.43293267602E-02  0.12970685177E-01 -0.25150154642E-03  0.10302535605E+01  0.10301627803E+01 0.  0.
     999903    2    3    3    0    0  0.44375115359E-01 -0.10254599036E+00  0.68382910029E-01  0.13915398697E+00  0.46933769331E-01 0.  0.
         14    1    1    2    0    0 -0.43293267602E-02 -0.12970685177E-01  0.25150154642E-03  0.13676439492E-01  0.00000000000E+00 0. -1.
     999901    1    3    3    0    0 -0.40045788599E-01  0.11551667553E+00 -0.68634411575E-01  0.89109957354E+00  0.88000000000E+00 0. -1.
        -11    1    4    4    0    0  0.87482254621E-02 -0.71052664240E-01  0.28375649314E-01  0.77009422406E-01  0.51100000000E-03 0. -1.
         11    1    4    4    0    0  0.35626889897E-01 -0.31493326117E-01  0.40007260715E-01  0.62144564561E-01  0.51100000000E-03 0.  1.
</event>
<event>
 8    1  0.1993226E+004  0.1043930E+01  0.7957747E-01            NaN
         13   -1    0    0    0    0  0.00000000000E+00  0.00000000000E+00  0.74505805969E-08  0.10566000000E+00  0.10566000000E+00 0. -1.
     999900   -1    0    0    0    0 -0.00000000000E+00 -0.00000000000E+00 -0.74505805969E-08  0.93827000000E+00  0.93827000000E+00 0.  1.
     999902    2    1    2    0    0  0.59347585220E-02  0.78621792951E-03 -0.12771543203E-01  0.10298249721E+01  0.10297283726E+01 0.  0.
     999903    2    3    3    0    0 -0.13585345745E-01 -0.19049165219E-01 -0.13190371675E+00  0.14136171921E+00  0.45134386553E-01 0.  0.
         14    1    1    2    0    0 -0.59347585220E-02 -0.78621792951E-03  0.12771543203E-01  0.14105027938E-01  0.00000000000E+00 0. -1.
     999901    1    3    3    0    0  0.19520104267E-01  0.19835383149E-01  0.11913217355E+00  0.88846325285E+00  0.88000000000E+00 0. -1.
        -11    1    4    4    0    0 -0.24499760804E-01  0.44350290051E-02 -0.67227485269E-01  0.71691726568E-01  0.51100000000E-03 0. -1.
         11    1    4    4    0    0  0.10914415058E-01 -0.23484194225E-01 -0.64676231485E-01  0.69669992641E-01  0.51100000000E-03 0.  1.
</event>
<event>
 8    1  0.1993226E+004  0.1043930E+01  0.7957747E-01            NaN
         13   -1    0    0    0    0  0.00000000000E+00  0.00000000000E+00  0.74505805969E-08  0.10566000000E+00  0.10566000000E+00 0. -1.
     999900   -1    0    0    0    0 -0.00000000000E+00 -0.00000000000E+00 -0.74505805969E-08  0.93827000000E+00  0.93827000000E+00 0.  1.
     999902    2    1    2    0    0 -0.40546687325E-02  0.12586542074E-01  0.26377684851E-02  0.10304459649E+01  0.10303577376E+01 0.  0.
     999903    2    3    3    0    0 -0.12558612450E+00  0.13635966986E-01  0.43828106553E-01  0.14113857149E+00  0.45181624298E-01 0.  0.
         14    1    1    2    0    0  0.40546687325E-02 -0.12586542074E-01 -0.26377684851E-02  0.13484035097E-01  0.00000000000E+00 0. -1.
     999901    1    3    3    0    0  0.12153145577E+00 -0.10494249124E-02 -0.41190338068E-01  0.88930739342E+00  0.88000000000E+00 0.  1.
        -11    1    4    4    0    0 -0.58809613143E-01  0.24885819362E-01  0.75249359057E-02  0.64302102491E-01  0.51100000000E-03 0.  1.
         11    1    4    4    0    0 -0.66776511359E-01 -0.11249852375E-01  0.36303170647E-01  0.76836468996E-01  0.51100000000E-03 0. -1.
</event>
<event>
 8    1  0.1993226E+004  0.1043930E+01  0.7957747E-01            NaN
         13   -1    0    0    0    0  0.00000000000E+00  0.00000000000E+00  0.74505805969E-08  0.10566000000E+00  0.10566000000E+00 0.  1.
     999900   -1    0    0    0    0 -0.00000000000E+00 -0.00000000000E+00 -0.74505805969E-08  0.93827000000E+00  0.93827000000E+00 0. -1.
     999902    2    1    2    0    0  0.34142165684E-02 -0.50319123078E-02 -0.12230793046E-01  0.10302709622E+01  0.10301804144E+01 0.  0.
     999903    2    3    3    0    0  0.92294459108E-01  0.39604097687E-01  0.85255532272E-01  0.13931885653E+00  0.45326441132E-01 0.  0.
         14    1    1    2    0    0 -0.34142165684E-02  0.50319123078E-02  0.12230793046E-01  0.13659037842E-01  0.00000000000E+00 0.  1.
     999901    1    3    3    0    0 -0.88880242539E-01 -0.44636009995E-01 -0.97486325318E-01  0.89095210563E+00  0.88000000000E+00 0. -1.
        -11    1    4    4    0    0  0.57164512602E-01  0.43651223088E-01  0.41437611288E-01  0.83009321936E-01  0.51100000000E-03 0.  1.
         11    1    4    4    0    0  0.35129946505E-01 -0.40471254014E-02  0.43817920985E-01  0.56309534591E-01  0.51100000000E-03 0. -1.
</event>
<event>
 8    1  0.1993226E+004  0.1043930E+01  0.7957747E-01            NaN
         13   -1    0    0    0    0  0.00000000000E+00  0.00000000000E+00  0.74505805969E-08  0.10566000000E+00  0.10566000000E+00 0. -1.
     999900   -1    0    0    0    0 -0.00000000000E+00 -0.00000000000E+00 -0.74505805969E-08  0.93827000000E+00  0.93827000000E+00 0. -1.
     999902    2    1    2    0    0 -0.17002500191E-01  0.84202395381E-02 -0.32419396200E-02  0.10246817372E+01  0.10245009356E+01 0.  0.
     999903    2    3    3    0    0 -0.66491613865E-01  0.82501463926E-01  0.74292960556E-01  0.13679161965E+00  0.44326932597E-01 0.  0.
         14    1    1    2    0    0  0.17002500191E-01 -0.84202395381E-02  0.32419396200E-02  0.19248262756E-01  0.00000000000E+00 0. -1.
     999901    1    3    3    0    0  0.49489113674E-01 -0.74081224388E-01 -0.77534900177E-01  0.88789011760E+00  0.88000000000E+00 0. -1.
        -11    1    4    4    0    0 -0.35027780700E-01  0.72583136252E-01  0.61600969540E-01  0.10144061148E+00  0.51100000000E-03 0. -1.
         11    1    4    4    0    0 -0.31463833165E-01  0.99183276741E-02  0.12691991016E-01  0.35351008165E-01  0.51100000000E-03 0.  1.
</event>
<event>
 8    1  0.1993226E+004  0.1043930E+01  0.7957747E-01            NaN
         13   -1    0    0    0    0  0.00000000000E+00  0.00000000000E+00  0.74505805969E-08  0.10566000000E+00  0.10566000000E+00 0. -1.
     999900   -1    0    0    0    0 -0.00000000000E+00 -0.00000000000E+00 -0.74505805969E-08  0.93827000000E+00  0.93827000000E+00 0. -1.
     999902    2    1    2    0    0 -0.48639284311E-02  0.59512759844E-02  0.94169245647E-02  0.10317745916E+01  0.10317029872E+01 0.  0.
     999903    2    3    3    0    0  0.50890930351E-01 -0.12154827365E+00 -0.16501250003E-01  0.14046292263E+00  0.45756658130E-01 0.  0.
         14    1    1    2    0    0  0.48639284311E-02 -0.59512759844E-02 -0.94169245647E-02  0.12155408421E-01  0.00000000000E+00 0.  1.
     999901    1    3    3    0    0 -0.55754858782E-01  0.12749954963E+00  0.25918174568E-01  0.89131166895E+00  0.88000000000E+00 0. -1.
        -11    1    4    4    0    0 -0.23474776238E-02 -0.30739717460E-01  0.90631089488E-02  0.32137858446E-01  0.51100000000E-03 0. -1.
         11    1    4    4    0    0  0.53238407975E-01 -0.90808556187E-01 -0.25564358952E-01  0.10832506418E+00  0.51100000000E-03 0.  1.
</event>
<event>
 8    1  0.1993226E+004  0.1043930E+01  0.7957747E-01            NaN
         13   -1    0    0    0    0  0.00000000000E+00  0.00000000000E+00  0.74505805969E-08  0.10566000000E+00  0.10566000000E+00 0.  1.
     999900   -1    0    0    0    0 -0.00000000000E+00 -0.00000000000E+00 -0.74505805969E-08  0.93827000000E+00  0.93827000000E+00 0. -1.
     999902    2    1    2    0    0 -0.70683663697E-02 -0.14118645747E-01  0.22636851112E-02  0.10279793815E+01  0.10278556253E+01 0.  0.
     999903    2    3    3    0    0 -0.85251870807E-02  0.10784364387E-01 -0.12976943184E+00  0.13777995090E+00  0.44206652194E-01 0.  0.
         14    1    1    2    0    0  0.70683663697E-02  0.14118645747E-01 -0.22636851112E-02  0.15950618519E-01  0.00000000000E+00 0. -1.
     999901    1    3    3    0    0  0.14568207109E-02 -0.24903010134E-01  0.13203311695E+00  0.89019943058E+00  0.88000000000E+00 0.  1.
        -11    1    4    4    0    0 -0.23026060205E-02 -0.13279717512E-01 -0.89090514509E-01  0.90105681220E-01  0.51100000000E-03 0. -1.
         11    1    4    4    0    0 -0.62225810602E-02  0.24064081899E-01 -0.40678917334E-01  0.47674269676E-01  0.51100000000E-03 0.  1.
</event>
<event>
 8    1  0.1993226E+004  0.1043930E+01  0.7957747E-01            NaN
         13   -1    0    0    0    0  0.00000000000E+00  0.00000000000E+00  0.74505805969E-08  0.10566000000E+00  0.10566000000E+00 0.  1.
     999900   -1    0    0    0    0 -0.00000000000E+00 -0.00000000000E+00 -0.74505805969E-08  0.93827000000E+00  0.93827000000E+00 0.  1.
     999902    2    1    2    0    0  0.50260304467E-02 -0.74028891119E-02  0.10359667902E-01  0.10302410823E+01  0.10301501352E+01 0.  0.
     999903    2    3    3    0    0 -0.11466935223E+00 -0.57210497329E-01 -0.31363101844E-01  0.13976448406E+00  0.46134211838E-01 0.  0.
         14    1    1    2    0    0 -0.50260304467E-02  0.74028891119E-02 -0.10359667902E-01  0.13688917718E-01  0.00000000000E+00 0. -1.
     999901    1    3    3    0    0  0.11969538267E+00  0.49807608217E-01  0.41722769746E-01  0.89047659822E+00  0.88000000000E+00 0. -1.
        -11    1    4    4    0    0 -0.90451292383E-01 -0.35089504967E-01 -0.41363359312E-01  0.10546989270E+00  0.51100000000E-03 0. -1.
         11    1    4    4    0    0 -0.24218059844E-01 -0.22120992362E-01  0.10000257467E-01  0.34294591353E-01  0.51100000000E-03 0.  1.
</event>
<event>
 8    1  0.1993226E+004  0.1043930E+01  0.7957747E-01            NaN
         13   -1    0    0    0    0  0.00000000000E+00  0.00000000000E+00  0.74505805969E-08  0.10566000000E+00  0.10566000000E+00 0. -1.
     999900   -1    0    0    0    0 -0.00000000000E+00 -0.00000000000E+00 -0.74505805969E-08  0.93827000000E+00  0.93827000000E+00 0. -1.
     999902    2    1    2    0    0  0.11009945860E-02 -0.13856909954E-01  0.41965465503E-02  0.10294097677E+01  0.10293073558E+01 0.  0.
     999903    2    3    3    0    0 -0.83168795127E-01  0.96314514718E-01 -0.28525903779E-01  0.13794473810E+00  0.44960975920E-01 0.  0.
         14    1    1    2    0    0 -0.11009945860E-02  0.13856909954E-01 -0.41965465503E-02  0.14520232281E-01  0.00000000000E+00 0. -1.
     999901    1    3    3    0    0  0.84269789713E-01 -0.11017142467E+00  0.32722450330E-01  0.89146502962E+00  0.88000000000E+00 0.  1.
        -11    1    4    4    0    0 -0.43526938683E-01  0.50492001206E-01 -0.37815976105E-01  0.76644280587E-01  0.51100000000E-03 0.  1.
         11    1    4    4    0    0 -0.39641856443E-01  0.45822513512E-01  0.92900723257E-02  0.61300457516E-01  0.51100000000E-03 0. -1.
</event>
<event>
 8    1  0.1993226E+004  0.1043930E+01  0.7957747E-01            NaN
         13   -1    0    0    0    0  0.00000000000E+00  0.00000000000E+00  0.74505805969E-08  0.10566000000E+00  0.10566000000E+00 0.  1.
     999900   -1    0    0    0    0 -0.00000000000E+00 -0.00000000000E+00 -0.74505805969E-08  0.93827000000E+00  0.93827000000E+00 0. -1.
     999902    2    1    2    0    0  0.12127851488E-01  0.29844628977E-02 -0.54659474144E-02  0.10302966445E+01  0.10302064392E+01 0.  0.
     999903    2    3    3    0    0  0.49753984637E-01 -0.46865930655E-01 -0.11579669991E+00  0.14121078670E+00  0.43124657976E-01 0.  0.
         14    1    1    2    0    0 -0.12127851488E-01 -0.29844628977E-02  0.54659474144E-02  0.13633355480E-01  0.00000000000E+00 0.  1.
     999901    1    3    3    0    0 -0.37626133149E-01  0.49850393552E-01  0.11033075250E+00  0.88908585782E+00  0.88000000000E+00 0.  1.
        -11    1    4    4    0    0  0.49456028651E-01 -0.20859766208E-01 -0.66396500984E-01  0.85380238230E-01  0.51100000000E-03 0.  1.
         11    1    4    4    0    0  0.29795598610E-03 -0.26006164447E-01 -0.49400198929E-01  0.55830548468E-01  0.51100000000E-03 0. -1.
</event>
<event>
 8    1  0.1993226E+004  0.1043930E+01  0.7957747E-01            NaN
         13   -1    0    0    0    0  0.00000000000E+00  0.00000000000E+00  0.74505805969E-08  0.10566000000E+00  0.10566000000E+00 0.  1.
     999900   -1    0    0    0    0 -0.00000000000E+00 -0.00000000000E+00 -0.74505805969E-08  0.93827000000E+00  0.93827000000E+00 0.  1.
     999902    2    1    2    0    0 -0.98537213344E-02  0.92610618897E-02  0.40858168200E-02  0.10298035358E+01  0.10297066404E+01 0.  0.
     999903    2    3    3    0    0 -0.15493803302E-01 -0.58492084386E-02 -0.13067763855E+00  0.13939839224E+00  0.45617928077E-01 0.  0.
         14    1    1    2    0    0  0.98537213344E-02 -0.92610618897E-02 -0.40858168200E-02  0.14126464191E-01  0.00000000000E+00 0. -1.
     999901    1    3    3    0    0  0.56400819677E-02  0.15110270328E-01  0.13476345537E+00  0.89040514357E+00  0.88000000000E+00 0. -1.
        -11    1    4    4    0    0  0.44000165946E-02  0.16088037886E-02 -0.10878548558E+00  0.10888751715E+00  0.51100000000E-03 0.  1.
         11    1    4    4    0    0 -0.19893819897E-01 -0.74580122272E-02 -0.21892152965E-01  0.30510875092E-01  0.51100000000E-03 0. -1.
</event>
<event>
 8    1  0.1993226E+004  0.1043930E+01  0.7957747E-01            NaN
         13   -1    0    0    0    0  0.00000000000E+00  0.00000000000E+00  0.74505805969E-08  0.10566000000E+00  0.10566000000E+00 0.  1.
     999900   -1    0    0    0    0 -0.00000000000E+00 -0.00000000000E+00 -0.74505805969E-08  0.93827000000E+00  0.93827000000E+00 0. -1.
     999902    2    1    2    0    0  0.12751018929E-01 -0.42733765735E-03  0.55972770625E-02  0.10299980004E+01  0.10299037723E+01 0.  0.
     999903    2    3    3    0    0 -0.44822608125E-01  0.24416073940E-02  0.12478257770E+00  0.14009458475E+00  0.45174919290E-01 0.  0.
         14    1    1    2    0    0 -0.12751018929E-01  0.42733765735E-03 -0.55972770625E-02  0.13931999559E-01  0.00000000000E+00 0.  1.
     999901    1    3    3    0    0  0.57573627054E-01 -0.28689450513E-02 -0.11918530063E+00  0.88990341569E+00  0.88000000000E+00 0. -1.
        -11    1    4    4    0    0 -0.26473407486E-01 -0.12220853829E-01  0.10622653736E+00  0.11015683789E+00  0.51100000000E-03 0.  1.
         11    1    4    4    0    0 -0.18349200638E-01  0.14662461223E-01  0.18556040336E-01  0.29937746861E-01  0.51100000000E-03 0. -1.
</event>
<event>
 8    1  0.1993226E+004  0.1043930E+01  0.7957747E-01            NaN
         13   -1    0    0    0    0  0.00000000000E+00  0.00000000000E+00  0.74505805969E-08  0.10566000000E+00  0.10566000000E+00 0.  1.
     999900   -1    0    0    0    0 -0.00000000000E+00 -0.00000000000E+00 -0.74505805969E-08  0.93827000000E+00  0.93827000000E+00 0. -1.
     999902    2    1    2    0    0  0.73611136949E-02 -0.23216320444E-01  0.46923055483E-02  0.10191267490E+01  0.10188248766E+01 0.  0.
     999903    2    3    3    0    0 -0.30571462353E-01 -0.12009751104E+00 -0.47999787183E-02  0.13294677354E+00  0.47893405909E-01 0.  0.
         14    1    1    2    0    0 -0.73611136949E-02  0.23216320444E-01 -0.46923055483E-02  0.24803251020E-01  0.00000000000E+00 0. -1.
     999901    1    3    3    0    0  0.37932576047E-01  0.96881190596E-01  0.94922842666E-02  0.88617997544E+00  0.88000000000E+00 0.  1.
        -11    1    4    4    0    0 -0.42881512278E-01 -0.10221891784E+00 -0.71221414702E-03  0.11085260317E+00  0.51100000000E-03 0.  1.
         11    1    4    4    0    0  0.12310049926E-01 -0.17878593204E-01 -0.40877645713E-02  0.22094170370E-01  0.51100000000E-03 0. -1.
</event>
<event>
 8    1  0.1993226E+004  0.1043930E+01  0.7957747E-01            NaN
         13   -1    0    0    0    0  0.00000000000E+00  0.00000000000E+00  0.74505805969E-08  0.10566000000E+00  0.10566000000E+00 0. -1.
     999900   -1    0    0    0    0 -0.00000000000E+00 -0.00000000000E+00 -0.74505805969E-08  0.93827000000E+00  0.93827000000E+00 0.  1.
     999902    2    1    2    0    0 -0.35904331280E-02  0.10219456480E-01 -0.88851249144E-02  0.10299202196E+01  0.10298249292E+01 0.  0.
     999903    2    3    3    0    0 -0.34651648824E-01 -0.49075251357E-01 -0.11863656319E+00  0.14057999246E+00  0.45595867048E-01 0.  0.
         14    1    1    2    0    0  0.35904331280E-02 -0.10219456480E-01  0.88851249144E-02  0.14009780353E-01  0.00000000000E+00 0. -1.
     999901    1    3    3    0    0  0.31061215696E-01  0.59294707837E-01  0.10975143827E+00  0.88934022719E+00  0.88000000000E+00 0. -1.
        -11    1    4    4    0    0 -0.19839083826E-01 -0.54822485697E-01 -0.10254077580E+00  0.11795747542E+00  0.51100000000E-03 0. -1.
         11    1    4    4    0    0 -0.14812564998E-01  0.57472343399E-02 -0.16095787391E-01  0.22622517038E-01  0.51100000000E-03 0.  1.
</event>
<event>
 8    1  0.2087465E+004  0.1043930E+01  0.7957747E-01            NaN
         13   -1    0    0    0    0  0.00000000000E+00  0.00000000000E+00  0.74505805969E-08  0.10566000000E+00  0.10566000000E+00 0.  1.
     999900   -1    0    0    0    0 -0.00000000000E+00 -0.00000000000E+00 -0.74505805969E-08  0.93827000000E+00  0.93827000000E+00 0. -1.
     999902    2    1    2    0    0  0.59136753763E-02 -0.97088344802E-02  0.60539438880E-02  0.10310504325E+01  0.10309699855E+01 0.  0.
     999903    2    3    3    0    0 -0.46052807333E-01  0.57910700254E-01 -0.10887070211E+00  0.13948967118E+00  0.46152229855E-01 0.  0.
         14    1    1    2    0    0 -0.59136753763E-02  0.97088344802E-02 -0.60539438880E-02  0.12879567540E-01  0.00000000000E+00 0. -1.
     999901    1    3    3    0    0  0.51966482710E-01 -0.67619534734E-01  0.11492464599E+00  0.89156076128E+00  0.88000000000E+00 0.  1.
        -11    1    4    4    0    0 -0.10701418118E-01  0.42982059050E-01 -0.35804994421E-01  0.56958199554E-01  0.51100000000E-03 0.  1.
         11    1    4    4    0    0 -0.35351389216E-01  0.14928641204E-01 -0.73065707685E-01  0.82531471623E-01  0.51100000000E-03 0. -1.
</event>
<event>
 8    1  0.1993226E+004  0.1043930E+01  0.7957747E-01            NaN
         13   -1    0    0    0    0  0.00000000000E+00  0.00000000000E+00  0.74505805969E-08  0.10566000000E+00  0.10566000000E+00 0.  1.
     999900   -1    0    0    0    0 -0.00000000000E+00 -0.00000000000E+00 -0.74505805969E-08  0.93827000000E+00  0.93827000000E+00 0.  1.
     999902    2    1    2    0    0 -0.52499285830E-02  0.12799354588E-01 -0.78739227379E-03  0.10300734054E+01  0.10299802014E+01 0.  0.
     999903    2    3    3    0    0 -0.47928566192E-01 -0.54652618888E-01  0.11029087021E+00  0.13950638643E+00  0.44876492687E-01 0.  0.
         14    1    1    2    0    0  0.52499285830E-02 -0.12799354588E-01  0.78739227379E-03  0.13856594625E-01  0.00000000000E+00 0.  1.
     999901    1    3    3    0    0  0.42678637609E-01  0.67451973476E-01 -0.11107826248E+00  0.89056701894E+00  0.88000000000E+00 0.  1.
        -11    1    4    4    0    0 -0.35440865679E-01 -0.51389194746E-01  0.56541045268E-01  0.84226214552E-01  0.51100000000E-03 0.  1.
         11    1    4    4    0    0 -0.12487700513E-01 -0.32634241420E-02  0.53749824938E-01  0.55280171880E-01  0.51100000000E-03 0. -1.
</event>
<event>
 8    1  0.1993226E+004  0.1043930E+01  0.7957747E-01            NaN
         13   -1    0    0    0    0  0.00000000000E+00  0.00000000000E+00  0.74505805969E-08  0.10566000000E+00  0.10566000000E+00 0.  1.
     999900   -1    0    0    0    0 -0.00000000000E+00 -0.00000000000E+00 -0.74505805969E-08  0.93827000000E+00  0.93827000000E+00 0.  1.
     999902    2    1    2    0    0  0.98415943121E-02  0.70664308376E-02  0.86179799416E-02  0.10290618797E+01  0.10289544651E+01 0.  0.
     999903    2    3    3    0    0  0.11755082602E+00  0.55387944848E-01 -0.28375857864E-01  0.14040852131E+00  0.44981578630E-01 0.  0.
         14    1    1    2    0    0 -0.98415943121E-02 -0.70664308376E-02 -0.86179799416E-02  0.14868120314E-01  0.00000000000E+00 0. -1.
     999901    1    3    3    0    0 -0.10770923171E+00 -0.48321514011E-01  0.36993837806E-01  0.88865335837E+00  0.88000000000E+00 0. -1.
        -11    1    4    4    0    0  0.49325595382E-01  0.48067031101E-01 -0.15346865761E-01  0.70563738906E-01  0.51100000000E-03 0.  1.
         11    1    4    4    0    0  0.68225230636E-01  0.73209137471E-02 -0.13028992103E-01  0.69844782408E-01  0.51100000000E-03 0. -1.
</event>
<event>
 8    1  0.1993226E+004  0.1043930E+01  0.7957747E-01            NaN
         13   -1    0    0    0    0  0.00000000000E+00  0.00000000000E+00  0.74505805969E-08  0.10566000000E+00  0.10566000000E+00 0. -1.
     999900   -1    0    0    0    0 -0.00000000000E+00 -0.00000000000E+00 -0.74505805969E-08  0.93827000000E+00  0.93827000000E+00 0. -1.
     999902    2    1    2    0    0  0.19639884403E-02 -0.12983398305E-01  0.44281593718E-02  0.10300723495E+01  0.10299791312E+01 0.  0.
     999903    2    3    3    0    0 -0.96251563630E-01 -0.77557412528E-01  0.51028294827E-01  0.14103485276E+00  0.44804319876E-01 0.  0.
         14    1    1    2    0    0 -0.19639884403E-02  0.12983398305E-01 -0.44281593718E-02  0.13857650506E-01  0.00000000000E+00 0. -1.
     999901    1    3    3    0    0  0.98215552070E-01  0.64574014223E-01 -0.46600135456E-01  0.88903749674E+00  0.88000000000E+00 0. -1.
        -11    1    4    4    0    0 -0.59940456707E-01 -0.36310115445E-01  0.66480491684E-02  0.70397020623E-01  0.51100000000E-03 0. -1.
         11    1    4    4    0    0 -0.36311106923E-01 -0.41247297083E-01  0.44380245659E-01  0.70637832133E-01  0.51100000000E-03 0.  1.
</event>
<event>
 8    1  0.1993226E+004  0.1043930E+01  0.7957747E-01            NaN
         13   -1    0    0    0    0  0.00000000000E+00  0.00000000000E+00  0.74505805969E-08  0.10566000000E+00  0.10566000000E+00 0.  1.
     999900   -1    0    0    0    0 -0.00000000000E+00 -0.00000000000E+00 -0.74505805969E-08  0.93827000000E+00  0.93827000000E+00 0. -1.
     999902    2    1    2    0    0 -0.11113555749E-01  0.75905153311E-02  0.56873843756E-02  0.10293192716E+01  0.10292155700E+01 0.  0.
     999903    2    3    3    0    0  0.94838422058E-02  0.49005943284E-01 -0.12169114407E+00  0.13894587799E+00  0.44785005591E-01 0.  0.
         14    1    1    2    0    0  0.11113555749E-01 -0.75905153311E-02 -0.56873843756E-02  0.14610728435E-01  0.00000000000E+00 0. -1.
     999901    1    3    3    0    0 -0.20597397954E-01 -0.41415427953E-01  0.12737852844E+00  0.89037339357E+00  0.88000000000E+00 0.  1.
        -11    1    4    4    0    0  0.99483994532E-02 -0.59882334943E-02 -0.15689241714E-01  0.19525445414E-01  0.51100000000E-03 0. -1.
         11    1    4    4    0    0 -0.46455724747E-03  0.54994176779E-01 -0.10600190236E+00  0.11942043258E+00  0.51100000000E-03 0.  1.
</event>
<event>
 8    1  0.1993226E+004  0.1043930E+01  0.7957747E-01            NaN
         13   -1    0    0    0    0  0.00000000000E+00  0.00000000000E+00  0.74505805969E-08  0.10566000000E+00  0.10566000000E+00 0. -1.
     999900   -1    0    0    0    0 -0.00000000000E+00 -0.00000000000E+00 -0.74505805969E-08  0.93827000000E+00  0.93827000000E+00 0.  1.
     999902    2    1    2    0    0  0.16911624238E-02 -0.12235043474E-01  0.61028196163E-02  0.10301531816E+01  0.10300610549E+01 0.  0.
     999903    2    3    3    0    0 -0.20923029350E-01  0.19337307259E-01 -0.12840433675E+00  0.13908618626E+00  0.45228187034E-01 0.  0.
         14    1    1    2    0    0 -0.16911624238E-02  0.12235043474E-01 -0.61028196163E-02  0.13776818443E-01  0.00000000000E+00 0.  1.
     999901    1    3    3    0    0  0.22614191774E-01 -0.31572350733E-01  0.13450715636E+00  0.89106699530E+00  0.88000000000E+00 0. -1.
        -11    1    4    4    0    0  0.79266762679E-02  0.82143459658E-02 -0.85157074015E-01  0.85920288943E-01  0.51100000000E-03 0. -1.
         11    1    4    4    0    0 -0.28849705618E-01  0.11122961293E-01 -0.43247262733E-01  0.53165897313E-01  0.51100000000E-03 0.  1.
</event>
<event>
 8    1  0.1993226E+004  0.1043930E+01  0.7957747E-01            NaN
         13   -1    0    0    0    0  0.00000000000E+00  0.00000000000E+00  0.74505805969E-08  0.10566000000E+00  0.10566000000E+00 0.  1.
     999900   -1    0    0    0    0 -0.00000000000E+00 -0.00000000000E+00 -0.74505805969E-08  0.93827000000E+00  0.93827000000E+00 0. -1.
     999902    2    1    2    0    0  0.33420283314E-02  0.17672401800E-02  0.13187603090E-01  0.10302112112E+01  0.10301198641E+01 0.  0.
     999903    2    3    3    0    0  0.12223025206E+00 -0.39330385813E-01 -0.33408258493E-01  0.14004572156E+00  0.44828323911E-01 0.  0.
         14    1    1    2    0    0 -0.33420283314E-02 -0.17672401800E-02 -0.13187603090E-01  0.13718788813E-01  0.00000000000E+00 0. -1.
     999901    1    3    3    0    0 -0.11888822373E+00  0.41097625993E-01  0.46595861583E-01  0.89016548963E+00  0.88000000000E+00 0. -1.
        -11    1    4    4    0    0  0.86667246828E-01 -0.27788560458E-01 -0.44126240272E-01  0.10114742689E+00  0.51100000000E-03 0.  1.
         11    1    4    4    0    0  0.35563005234E-01 -0.11541825355E-01  0.10717981780E-01  0.38898294670E-01  0.51100000000E-03 0. -1.
</event>
<event>
 8    1  0.1993226E+004  0.1043930E+01  0.7957747E-01            NaN
         13   -1    0    0    0    0  0.00000000000E+00  0.00000000000E+00  0.74505805969E-08  0.10566000000E+00  0.10566000000E+00 0. -1.
     999900   -1    0    0    0    0 -0.00000000000E+00 -0.00000000000E+00 -0.74505805969E-08  0.93827000000E+00  0.93827000000E+00 0.  1.
     999902    2    1    2    0    0  0.39014613960E-03  0.66054134576E-02 -0.11481547455E-01  0.10306782215E+01  0.10305930267E+01 0.  0.
     999903    2    3    3    0    0 -0.12629630122E+00 -0.63117994018E-02 -0.41176885405E-01  0.14101641868E+00  0.46898826560E-01 0.  0.
         14    1    1    2    0    0 -0.39014613960E-03 -0.66054134576E-02  0.11481547455E-01  0.13251778481E-01  0.00000000000E+00 0. -1.
     999901    1    3    3    0    0  0.12668644736E+00  0.12917212859E-01  0.29695337950E-01  0.88966180284E+00  0.88000000000E+00 0. -1.
        -11    1    4    4    0    0 -0.11006707943E+00 -0.20429297709E-01 -0.41783360613E-01  0.11949154164E+00  0.51100000000E-03 0.  1.
         11    1    4    4    0    0 -0.16229221790E-01  0.14117498307E-01  0.60647520761E-03  0.21524877039E-01  0.51100000000E-03 0. -1.
</event>
<event>
 8    1  0.1993226E+004  0.1043930E+01  0.7957747E-01            NaN
         13   -1    0    0    0    0  0.00000000000E+00  0.00000000000E+00  0.74505805969E-08  0.10566000000E+00  0.10566000000E+00 0.  1.
     999900   -1    0    0    0    0 -0.00000000000E+00 -0.00000000000E+00 -0.74505805969E-08  0.93827000000E+00  0.93827000000E+00 0.  1.
     999902    2    1    2    0    0  0.67540733668E-02 -0.14874545771E-02  0.14313781620E-01  0.10280330074E+01  0.10279100885E+01 0.  0.
     999903    2    3    3    0    0 -0.12147358018E+00 -0.38335421799E-01  0.24234483793E-01  0.13792148400E+00  0.47006279357E-01 0.  0.
         14    1    1    2    0    0 -0.67540733668E-02  0.14874545771E-02 -0.14313781620E-01  0.15896992560E-01  0.00000000000E+00 0. -1.
     999901    1    3    3    0    0  0.12822765355E+00  0.36847967222E-01 -0.99207021724E-02  0.89011152344E+00  0.88000000000E+00 0. -1.
        -11    1    4    4    0    0 -0.97614076440E-01 -0.48760620872E-01  0.24690177591E-01  0.11187480529E+00  0.51100000000E-03 0.  1.
         11    1    4    4    0    0 -0.23859503740E-01  0.10425199074E-01 -0.45569379828E-03  0.26046678719E-01  0.51100000000E-03 0. -1.
</event>
<event>
 8    1  0.1993226E+004  0.1043930E+01  0.7957747E-01            NaN
         13   -1    0    0    0    0  0.00000000000E+00  0.00000000000E+00  0.74505805969E-08  0.10566000000E+00  0.10566000000E+00 0.  1.
     999900   -1    0    0    0    0 -0.00000000000E+00 -0.00000000000E+00 -0.74505805969E-08  0.93827000000E+00  0.93827000000E+00 0. -1.
     999902    2    1    2    0    0 -0.71431565254E-02  0.11787298951E-02 -0.10893071129E-01  0.10308505089E+01  0.10307675289E+01 0.  0.
     999903    2    3    3    0    0 -0.40844665676E-02  0.64451251877E-01  0.11477652923E+00  0.13966836359E+00  0.46507562728E-01 0.  0.
         14    1    1    2    0    0  0.71431565254E-02 -0.11787298951E-02  0.10893071129E-01  0.13079491119E-01  0.00000000000E+00 0. -1.
     999901    1    3    3    0    0 -0.30586899578E-02 -0.63272521982E-01 -0.12566960036E+00  0.89118214529E+00  0.88000000000E+00 0. -1.
        -11    1    4    4    0    0 -0.24753343076E-01  0.31744795819E-01  0.67292082397E-01  0.78415212359E-01  0.51100000000E-03 0. -1.
         11    1    4    4    0    0  0.20668876508E-01  0.32706456058E-01  0.47484446835E-01  0.61253151235E-01  0.51100000000E-03 0.  1.
</event>
<event>
 8    1  0.1993226E+004  0.1043930E+01  0.7957747E-01            NaN
         13   -1    0    0    0    0  0.00000000000E+00  0.00000000000E+00  0.74505805969E-08  0.10566000000E+00  0.10566000000E+00 0.  1.
     999900   -1    0    0    0    0 -0.00000000000E+00 -0.00000000000E+00 -0.74505805969E-08  0.93827000000E+00  0.93827000000E+00 0. -1.
     999902    2    1    2    0    0 -0.13882790663E-01 -0.42887089437E-03 -0.57829735303E-02  0.10288847818E+01  0.10287747740E+01 0.  0.
     999903    2    3    3    0    0  0.89268741010E-01  0.49222488728E-01 -0.81685358310E-01  0.13822959153E+00  0.45201335094E-01 0.  0.
         14    1    1    2    0    0  0.13882790663E-01  0.42887089437E-03  0.57829735303E-02  0.15045218166E-01  0.00000000000E+00 0.  1.
     999901    1    3    3    0    0 -0.10315153167E+00 -0.49651359622E-01  0.75902384780E-01  0.89065519030E+00  0.88000000000E+00 0.  1.
        -11    1    4    4    0    0  0.46565139556E-01  0.36836135299E-01 -0.20964701630E-01  0.62968189756E-01  0.51100000000E-03 0. -1.
         11    1    4    4    0    0  0.42703601454E-01  0.12386353429E-01 -0.60720656680E-01  0.75261401775E-01  0.51100000000E-03 0.  1.
</event>
<event>
 8    1  0.1993226E+004  0.1043930E+01  0.7957747E-01            NaN
         13   -1    0    0    0    0  0.00000000000E+00  0.00000000000E+00  0.74505805969E-08  0.10566000000E+00  0.10566000000E+00 0.  1.
     999900   -1    0    0    0    0 -0.00000000000E+00 -0.00000000000E+00 -0.74505805969E-08  0.93827000000E+00  0.93827000000E+00 0.  1.
     999902    2    1    2    0    0  0.34809787540E-02 -0.73575401876E-02 -0.11791457712E-01  0.10296020872E+01  0.10295023889E+01 0.  0.
     999903    2    3    3    0    0  0.87496364866E-01  0.37674656351E-01 -0.93583352394E-01  0.14068341944E+00  0.44260445817E-01 0.  0.
         14    1    1    2    0    0 -0.34809787540E-02  0.73575401876E-02  0.11791457712E-01  0.14327912817E-01  0.00000000000E+00 0.  1.
     999901    1    3    3    0    0 -0.84015386112E-01 -0.45032196539E-01  0.81791894682E-01  0.88891866774E+00  0.88000000000E+00 0. -1.
        -11    1    4    4    0    0  0.61424729186E-01  0.31066432611E-02 -0.59532169994E-01  0.85597832760E-01  0.51100000000E-03 0.  1.
         11    1    4    4    0    0  0.26071635680E-01  0.34568013090E-01 -0.34051182400E-01  0.55085586680E-01  0.51100000000E-03 0. -1.
</event>
<event>
 8    1  0.1993226E+004  0.1043930E+01  0.7957747E-01            NaN
         13   -1    0    0    0    0  0.00000000000E+00  0.00000000000E+00  0.74505805969E-08  0.10566000000E+00  0.10566000000E+00 0. -1.
     999900   -1    0    0    0    0 -0.00000000000E+00 -0.00000000000E+00 -0.74505805969E-08  0.93827000000E+00  0.93827000000E+00 0.  1.
     999902    2    1    2    0    0 -0.28912604214E-02 -0.11522004493E-01  0.59470423407E-02  0.10306452988E+01  0.10305596773E+01 0.  0.
     999903    2    3    3    0    0  0.12925387655E+00  0.26961888977E-01 -0.85368413594E-02  0.13982930757E+00  0.45231068241E-01 0.  0.
         14    1    1    2    0    0  0.28912604214E-02  0.11522004493E-01 -0.59470423407E-02  0.13284701238E-01  0.00000000000E+00 0. -1.
     999901    1    3    3    0    0 -0.13214513697E+00 -0.38483893471E-01  0.14483883700E-01  0.89081599119E+00  0.88000000000E+00 0.  1.
        -11    1    4    4    0    0  0.57345371132E-01 -0.93490009266E-02 -0.11435331833E-01  0.59219281858E-01  0.51100000000E-03 0.  1.
         11    1    4    4    0    0  0.71908505417E-01  0.36310889904E-01  0.28984904739E-02  0.80610025710E-01  0.51100000000E-03 0. -1.
</event>
<event>
 8    1  0.1993226E+004  0.1043930E+01  0.7957747E-01            NaN
         13   -1    0    0    0    0  0.00000000000E+00  0.00000000000E+00  0.74505805969E-08  0.10566000000E+00  0.10566000000E+00 0. -1.
     999900   -1    0    0    0    0 -0.00000000000E+00 -0.00000000000E+00 -0.74505805969E-08  0.93827000000E+00  0.93827000000E+00 0.  1.
     999902    2    1    2    0    0  0.96620088462E-02 -0.90564611493E-02  0.38502673279E-05  0.10306871182E+01  0.10306020385E+01 0.  0.
     999903    2    3    3    0    0 -0.13106200045E+00 -0.12102241311E-02 -0.14483194543E-01  0.13935402407E+00  0.45067377293E-01 0.  0.
         14    1    1    2    0    0 -0.96620088462E-02  0.90564611493E-02 -0.38502673279E-05  0.13242881798E-01  0.00000000000E+00 0. -1.
     999901    1    3    3    0    0  0.14072400930E+00 -0.78462370182E-02  0.14487044810E-01  0.89133309413E+00  0.88000000000E+00 0. -1.
        -11    1    4    4    0    0 -0.72158668036E-01  0.20771440836E-01 -0.14515716022E-01  0.76480672459E-01  0.51100000000E-03 0.  1.
         11    1    4    4    0    0 -0.58903332413E-01 -0.21981664967E-01  0.32521479243E-04  0.62873351611E-01  0.51100000000E-03 0. -1.
</event>
<event>
 8    1  0.1993226E+004  0.1043930E+01  0.7957747E-01            NaN
         13   -1    0    0    0    0  0.00000000000E+00  0.00000000000E+00  0.74505805969E-08  0.10566000000E+00  0.10566000000E+00 0.  1.
     999900   -1    0    0    0    0 -0.00000000000E+00 -0.00000000000E+00 -0.74505805969E-08  0.93827000000E+00  0.93827000000E+00 0.  1.
     999902    2    1    2    0    0 -0.70177499959E-02  0.45319356625E-02 -0.10748774361E-01  0.10303166460E+01  0.10302267069E+01 0.  0.
     999903    2    3    3    0    0 -0.69152463748E-01 -0.89587268806E-01  0.68840029036E-01  0.13955656334E+00  0.43922008137E-01 0.  0.
         14    1    1    2    0    0  0.70177499959E-02 -0.45319356625E-02  0.10748774361E-01  0.13613353963E-01  0.00000000000E+00 0.  1.
     999901    1    3    3    0    0  0.62134713752E-01  0.94119204468E-01 -0.79588803397E-01  0.89076008270E+00  0.88000000000E+00 0.  1.
        -11    1    4    4    0    0 -0.39174727596E-01 -0.33099875566E-01  0.52831618765E-01  0.73632208353E-01  0.51100000000E-03 0.  1.
         11    1    4    4    0    0 -0.29977736153E-01 -0.56487393240E-01  0.16008410271E-01  0.65924354986E-01  0.51100000000E-03 0. -1.
</event>
<event>
 8    1  0.1993226E+004  0.1043930E+01  0.7957747E-01            NaN
         13   -1    0    0    0    0  0.00000000000E+00  0.00000000000E+00  0.74505805969E-08  0.10566000000E+00  0.10566000000E+00 0.  1.
     999900   -1    0    0    0    0 -0.00000000000E+00 -0.00000000000E+00 -0.74505805969E-08  0.93827000000E+00  0.93827000000E+00 0.  1.
     999902    2    1    2    0    0  0.13933337107E-02 -0.88333591106E-02  0.10401815556E-01  0.10302125885E+01  0.10301212599E+01 0.  0.
     999903    2    3    3    0    0  0.20429775412E-01 -0.49192055128E-02 -0.12964772949E+00  0.13892611277E+00  0.45280865062E-01 0.  0.
         14    1    1    2    0    0 -0.13933337107E-02  0.88333591106E-02 -0.10401815556E-01  0.13717411522E-01  0.00000000000E+00 0. -1.
     999901    1    3    3    0    0 -0.19036441701E-01 -0.39141535978E-02  0.14004954505E+00  0.89128647571E+00  0.88000000000E+00 0. -1.
        -11    1    4    4    0    0 -0.90704720206E-02  0.11900665707E-01 -0.53348869917E-01  0.55409948108E-01  0.51100000000E-03 0.  1.
         11    1    4    4    0    0  0.29500247432E-01 -0.16819871220E-01 -0.76298859575E-01  0.83516164662E-01  0.51100000000E-03 0. -1.
</event>
<event>
 8    1  0.1993226E+004  0.1043930E+01  0.7957747E-01            NaN
         13   -1    0    0    0    0  0.00000000000E+00  0.00000000000E+00  0.74505805969E-08  0.10566000000E+00  0.10566000000E+00 0.  1.
     999900   -1    0    0    0    0 -0.00000000000E+00 -0.00000000000E+00 -0.74505805969E-08  0.93827000000E+00  0.93827000000E+00 0. -1.
     999902    2    1    2    0    0  0.20344185146E-02  0.18396519569E-02 -0.14363784605E-01  0.10293066801E+01  0.10292027983E+01 0.  0.
     999903    2    3    3    0    0  0.10395612022E+00  0.78929784772E-01  0.20728919100E-01  0.13938397571E+00  0.44287907395E-01 0.  0.
         14    1    1    2    0    0 -0.20344185146E-02 -0.18396519569E-02  0.14363784605E-01  0.14623319945E-01  0.00000000000E+00 0.  1.
     999901    1    3    3    0    0 -0.10192170171E+00 -0.77090132815E-01 -0.35092703705E-01  0.88992270435E+00  0.88000000000E+00 0. -1.
        -11    1    4    4    0    0  0.17759957789E-01  0.25831326422E-01  0.21718173514E-01  0.38139398359E-01  0.51100000000E-03 0.  1.
         11    1    4    4    0    0  0.86196162435E-01  0.53098458350E-01 -0.98925441408E-03  0.10124457735E+00  0.51100000000E-03 0. -1.
</event>
<event>
 8    1  0.1993226E+004  0.1043930E+01  0.7957747E-01            NaN
         13   -1    0    0    0    0  0.00000000000E+00  0.00000000000E+00  0.74505805969E-08  0.10566000000E+00  0.10566000000E+00 0. -1.
     999900   -1    0    0    0    0 -0.00000000000E+00 -0.00000000000E+00 -0.74505805969E-08  0.93827000000E+00  0.93827000000E+00 0. -1.
     999902    2    1    2    0    0 -0.20610135094E-02 -0.82907421920E-03 -0.14264179476E-01  0.10294938663E+01  0.10293926456E+01 0.  0.
     999903    2    3    3    0    0 -0.41547578706E-01  0.42654171058E-02  0.12357496387E+00  0.13787468069E+00  0.44657147238E-01 0.  0.
         14    1    1    2    0    0  0.20610135094E-02  0.82907421920E-03  0.14264179476E-01  0.14436133724E-01  0.00000000000E+00 0. -1.
     999901    1    3    3    0    0  0.39486565197E-01 -0.50944913250E-02 -0.13783914335E+00  0.89161918559E+00  0.88000000000E+00 0. -1.
        -11    1    4    4    0    0 -0.28774417778E-01 -0.17694931431E-01  0.87090810225E-01  0.93413853702E-01  0.51100000000E-03 0. -1.
         11    1    4    4    0    0 -0.12773160928E-01  0.21960348536E-01  0.36484153646E-01  0.44460826985E-01  0.51100000000E-03 0.  1.
</event>
<event>
 8    1  0.1993226E+004  0.1043930E+01  0.7957747E-01            NaN
         13   -1    0    0    0    0  0.00000000000E+00  0.00000000000E+00  0.74505805969E-08  0.10566000000E+00  0.10566000000E+00 0.  1.
     999900   -1    0    0    0    0 -0.00000000000E+00 -0.00000000000E+00 -0.74505805969E-08  0.93827000000E+00  0.93827000000E+00 0.  1.
     999902    2    1    2    0    0 -0.11531511411E-03  0.11854099998E-01 -0.61184702998E-02  0.10305895104E+01  0.10305031636E+01 0.  0.
     999903    2    3    3    0    0 -0.93106565759E-01 -0.92584114044E-01 -0.13402818610E-01  0.13951837126E+00  0.45222667016E-01 0.  0.
         14    1    1    2    0    0  0.11531511411E-03 -0.11854099998E-01  0.61184702998E-02  0.13340489614E-01  0.00000000000E+00 0.  1.
     999901    1    3    3    0    0  0.92991250645E-01  0.10443821404E+00  0.72843483101E-02  0.89107113912E+00  0.88000000000E+00 0. -1.
        -11    1    4    4    0    0 -0.61228892732E-01 -0.45097095005E-01 -0.27054327993E-01  0.80715073359E-01  0.51100000000E-03 0.  1.
         11    1    4    4    0    0 -0.31877673027E-01 -0.47487019039E-01  0.13651509384E-01  0.58803297904E-01  0.51100000000E-03 0. -1.
</event>
<event>
 8    1  0.1993226E+004  0.1043930E+01  0.7957747E-01            NaN
         13   -1    0    0    0    0  0.00000000000E+00  0.00000000000E+00  0.74505805969E-08  0.10566000000E+00  0.10566000000E+00 0.  1.
     999900   -1    0    0    0    0 -0.00000000000E+00 -0.00000000000E+00 -0.74505805969E-08  0.93827000000E+00  0.93827000000E+00 0.  1.
     999902    2    1    2    0    0  0.39998729739E-02  0.49155413049E-02  0.82358868999E-02  0.10335381107E+01  0.10334858659E+01 0.  0.
     999903    2    3    3    0    0 -0.59677370203E-01 -0.10359418917E+00 -0.62209730816E-01  0.14180287087E+00  0.44100555936E-01 0.  0.
         14    1    1    2    0    0 -0.39998729739E-02 -0.49155413049E-02 -0.82358868999E-02  0.10391889297E-01  0.00000000000E+00 0. -1.
     999901    1    3    3    0    0  0.63677243177E-01  0.10850973048E+00  0.70445617716E-01  0.89173523983E+00  0.88000000000E+00 0.  1.
        -11    1    4    4    0    0 -0.23106852027E-01 -0.35124913911E-01 -0.46338433475E-01  0.62571540861E-01  0.51100000000E-03 0.  1.
         11    1    4    4    0    0 -0.36570518176E-01 -0.68469275261E-01 -0.15871297341E-01  0.79231330008E-01  0.51100000000E-03 0. -1.
</event>
<event>
 8    1  0.1993226E+004  0.1043930E+01  0.7957747E-01            NaN
         13   -1    0    0    0    0  0.00000000000E+00  0.00000000000E+00  0.74505805969E-08  0.10566000000E+00  0.10566000000E+00 0.  1.
     999900   -1    0    0    0    0 -0.00000000000E+00 -0.00000000000E+00 -0.74505805969E-08  0.93827000000E+00  0.93827000000E+00 0. -1.
     999902    2    1    2    0    0 -0.17028993545E-01  0.61157225792E-03 -0.13550816230E-01  0.10221587974E+01  0.10219269161E+01 0.  0.
     999903    2    3    3    0    0  0.69374894513E-01  0.61479031178E-02  0.10087363976E+00  0.13053710691E+00  0.44875075272E-01 0.  0.
         14    1    1    2    0    0  0.17028993545E-01 -0.61157225792E-03  0.13550816230E-01  0.21771202592E-01  0.00000000000E+00 0.  1.
     999901    1    3    3    0    0 -0.86403888058E-01 -0.55363308599E-02 -0.11442445599E+00  0.89162169049E+00  0.88000000000E+00 0. -1.
        -11    1    4    4    0    0  0.69163790928E-01  0.70870525730E-02  0.66707391256E-01  0.96353481820E-01  0.51100000000E-03 0. -1.
         11    1    4    4    0    0  0.21110358529E-03 -0.93914945512E-03  0.34166248508E-01  0.34183625093E-01  0.51100000000E-03 0.  1.
</event>
<event>
 8    1  0.1993226E+004  0.1043930E+01  0.7957747E-01            NaN
         13   -1    0    0    0    0  0.00000000000E+00  0.00000000000E+00  0.74505805969E-08  0.10566000000E+00  0.10566000000E+00 0.  1.
     999900   -1    0    0    0    0 -0.00000000000E+00 -0.00000000000E+00 -0.74505805969E-08  0.93827000000E+00  0.93827000000E+00 0. -1.
     999902    2    1    2    0    0 -0.56059857003E-02 -0.89604248231E-02 -0.28241002334E-02  0.10329896238E+01  0.10329316875E+01 0.  0.
     999903    2    3    3    0    0 -0.70148357419E-01 -0.51194713030E-01  0.10439003538E+00  0.14313327378E+00  0.45256644636E-01 0.  0.
         14    1    1    2    0    0  0.56059857003E-02  0.89604248231E-02  0.28241002334E-02  0.10940376173E-01  0.00000000000E+00 0.  1.
     999901    1    3    3    0    0  0.64542371719E-01  0.42234288207E-01 -0.10721413562E+00  0.88985635005E+00  0.88000000000E+00 0. -1.
        -11    1    4    4    0    0  0.62160470492E-02 -0.78310169754E-02  0.88268890714E-02  0.13346878267E-01  0.51100000000E-03 0. -1.
         11    1    4    4    0    0 -0.76364404468E-01 -0.43363696055E-01  0.95563146313E-01  0.12978639551E+00  0.51100000000E-03 0.  1.
</event>
<event>
 8    1  0.1993226E+004  0.1043930E+01  0.7957747E-01            NaN
         13   -1    0    0    0    0  0.00000000000E+00  0.00000000000E+00  0.74505805969E-08  0.10566000000E+00  0.10566000000E+00 0.  1.
     999900   -1    0    0    0    0 -0.00000000000E+00 -0.00000000000E+00 -0.74505805969E-08  0.93827000000E+00  0.93827000000E+00 0. -1.
     999902    2    1    2    0    0 -0.39341340095E-02  0.10241403387E-01  0.11484794785E-01  0.10280471708E+01  0.10279244724E+01 0.  0.
     999903    2    3    3    0    0 -0.27282208933E-01 -0.10576268180E+00 -0.68057185908E-01  0.13657142398E+00  0.45715528106E-01 0.  0.
         14    1    1    2    0    0  0.39341340095E-02 -0.10241403387E-01 -0.11484794785E-01  0.15882829250E-01  0.00000000000E+00 0.  1.
     999901    1    3    3    0    0  0.23348074923E-01  0.11600408518E+00  0.79541980692E-01  0.89147574677E+00  0.88000000000E+00 0.  1.
        -11    1    4    4    0    0  0.93609392148E-02 -0.43136812906E-01 -0.37178707440E-01  0.57714202919E-01  0.51100000000E-03 0. -1.
         11    1    4    4    0    0 -0.36643148147E-01 -0.62625868890E-01 -0.30878478468E-01  0.78857221064E-01  0.51100000000E-03 0.  1.
</event>
<event>
 8    1  0.1993226E+004  0.1043930E+01  0.7957747E-01            NaN
         13   -1    0    0    0    0  0.00000000000E+00  0.00000000000E+00  0.74505805969E-08  0.10566000000E+00  0.10566000000E+00 0. -1.
     999900   -1    0    0    0    0 -0.00000000000E+00 -0.00000000000E+00 -0.74505805969E-08  0.93827000000E+00  0.93827000000E+00 0.  1.
     999902    2    1    2    0    0 -0.35474569662E-02 -0.94447008337E-02  0.12054051557E-01  0.10282109993E+01  0.10280908384E+01 0.  0.
     999903    2    3    3    0    0  0.13663765353E-01  0.59372256084E-02 -0.12839843967E+00  0.13677410744E+00  0.44710714878E-01 0.  0.
         14    1    1    2    0    0  0.35474569662E-02  0.94447008337E-02 -0.12054051557E-01  0.15719000722E-01  0.00000000000E+00 0.  1.
     999901    1    3    3    0    0 -0.17211222320E-01 -0.15381926442E-01  0.14045249123E+00  0.89143689184E+00  0.88000000000E+00 0. -1.
        -11    1    4    4    0    0 -0.25564680500E-02  0.22744438856E-01 -0.50485375548E-01  0.55433557463E-01  0.51100000000E-03 0. -1.
         11    1    4    4    0    0  0.16220233403E-01 -0.16807213248E-01 -0.77913064123E-01  0.81340549978E-01  0.51100000000E-03 0.  1.
</event>
<event>
 8    1  0.1993226E+004  0.1043930E+01  0.7957747E-01            NaN
         13   -1    0    0    0    0  0.00000000000E+00  0.00000000000E+00  0.74505805969E-08  0.10566000000E+00  0.10566000000E+00 0.  1.
     999900   -1    0    0    0    0 -0.00000000000E+00 -0.00000000000E+00 -0.74505805969E-08  0.93827000000E+00  0.93827000000E+00 0. -1.
     999902    2    1    2    0    0  0.13601039371E-01  0.15954759970E-01 -0.14720268979E-01  0.10183130338E+01  0.10179907691E+01 0.  0.
     999903    2    3    3    0    0 -0.85781924604E-01  0.77601181409E-01  0.29119726203E-01  0.12949404213E+00  0.50401057014E-01 0.  0.
         14    1    1    2    0    0 -0.13601039371E-01 -0.15954759970E-01  0.14720268979E-01  0.25616966184E-01  0.00000000000E+00 0. -1.
     999901    1    3    3    0    0  0.99382963975E-01 -0.61646421439E-01 -0.43839995182E-01  0.88881899169E+00  0.88000000000E+00 0. -1.
        -11    1    4    4    0    0 -0.28628031029E-01  0.21916443623E-02 -0.45194978766E-02  0.29069820221E-01  0.51100000000E-03 0. -1.
         11    1    4    4    0    0 -0.57153893575E-01  0.75409537046E-01  0.33639224079E-01  0.10042422191E+00  0.51100000000E-03 0.  1.
</event>
<event>
 8    1  0.2158462E+004  0.1043930E+01  0.7957747E-01            NaN
         13   -1    0    0    0    0  0.00000000000E+00  0.00000000000E+00  0.74505805969E-08  0.10566000000E+00  0.10566000000E+00 0.  1.
     999900   -1    0    0    0    0 -0.00000000000E+00 -0.00000000000E+00 -0.74505805969E-08  0.93827000000E+00  0.93827000000E+00 0. -1.
     999902    2    1    2    0    0  0.12605525386E-01 -0.72839678084E-02 -0.13794383816E-02  0.10293061049E+01  0.10292022150E+01 0.  0.
     999903    2    3    3    0    0  0.83961055069E-01 -0.10401850293E+00 -0.25858481281E-02  0.14113346554E+00  0.45195804737E-01 0.  0.
         14    1    1    2    0    0 -0.12605525386E-01  0.72839678084E-02  0.13794383816E-02  0.14623895088E-01  0.00000000000E+00 0. -1.
     999901    1    3    3    0    0 -0.71355529683E-01  0.96734535119E-01  0.12064097465E-02  0.88817263937E+00  0.88000000000E+00 0. -1.
        -11    1    4    4    0    0  0.42203458601E-01 -0.39639651693E-01  0.19805792874E-01  0.61196114718E-01  0.51100000000E-03 0. -1.
         11    1    4    4    0    0  0.41757596468E-01 -0.64378851234E-01 -0.22391641002E-01  0.79937350824E-01  0.51100000000E-03 0.  1.
</event>
<event>
 8    1  0.1993226E+004  0.1043930E+01  0.7957747E-01            NaN
         13   -1    0    0    0    0  0.00000000000E+00  0.00000000000E+00  0.74505805969E-08  0.10566000000E+00  0.10566000000E+00 0. -1.
     999900   -1    0    0    0    0 -0.00000000000E+00 -0.00000000000E+00 -0.74505805969E-08  0.93827000000E+00  0.93827000000E+00 0.  1.
     999902    2    1    2    0    0 -0.75755313895E-02  0.10192844170E-01  0.69062799507E-02  0.10294738784E+01  0.10293723752E+01 0.  0.
     999903    2    3    3    0    0 -0.96452010865E-01  0.36566212254E-01  0.85150804554E-01  0.14115142077E+00  0.45088643705E-01 0.  0.
         14    1    1    2    0    0  0.75755313895E-02 -0.10192844170E-01 -0.69062799507E-02  0.14456121571E-01  0.00000000000E+00 0.  1.
     999901    1    3    3    0    0  0.88876479475E-01 -0.26373368084E-01 -0.78244524603E-01  0.88832245766E+00  0.88000000000E+00 0.  1.
        -11    1    4    4    0    0 -0.42283768208E-01  0.33425222751E-01  0.22882239285E-01  0.58557839488E-01  0.51100000000E-03 0.  1.
         11    1    4    4    0    0 -0.54168242657E-01  0.31409895034E-02  0.62268565269E-01  0.82593581284E-01  0.51100000000E-03 0. -1.
</event>
<event>
 8    1  0.1993226E+004  0.1043930E+01  0.7957747E-01            NaN
         13   -1    0    0    0    0  0.00000000000E+00  0.00000000000E+00  0.74505805969E-08  0.10566000000E+00  0.10566000000E+00 0.  1.
     999900   -1    0    0    0    0 -0.00000000000E+00 -0.00000000000E+00 -0.74505805969E-08  0.93827000000E+00  0.93827000000E+00 0. -1.
     999902    2    1    2    0    0 -0.11172342863E-01  0.76237216489E-02  0.17229785618E-02  0.10302950804E+01  0.10302048542E+01 0.  0.
     999903    2    3    3    0    0  0.51041009786E-01  0.90840430253E-03  0.12232551087E+00  0.13986789781E+00  0.44648497715E-01 0.  0.
         14    1    1    2    0    0  0.11172342863E-01 -0.76237216489E-02 -0.17229785618E-02  0.13634919580E-01  0.00000000000E+00 0.  1.
     999901    1    3    3    0    0 -0.62213352649E-01  0.67153173464E-02 -0.12060253231E+00  0.89042718261E+00  0.88000000000E+00 0. -1.
        -11    1    4    4    0    0  0.35342219708E-01 -0.64636002113E-02  0.32718379611E-01  0.48596338411E-01  0.51100000000E-03 0.  1.
         11    1    4    4    0    0  0.15698790078E-01  0.73720045138E-02  0.89607131263E-01  0.91271559397E-01  0.51100000000E-03 0. -1.
</event>
<event>
 8    1  0.1993226E+004  0.1043930E+01  0.7957747E-01            NaN
         13   -1    0    0    0    0  0.00000000000E+00  0.00000000000E+00  0.74505805969E-08  0.10566000000E+00  0.10566000000E+00 0. -1.
     999900   -1    0    0    0    0 -0.00000000000E+00 -0.00000000000E+00 -0.74505805969E-08  0.93827000000E+00  0.93827000000E+00 0. -1.
     999902    2    1    2    0    0  0.21012478115E-02 -0.70192884528E-02 -0.11779237931E-01  0.10300578661E+01  0.10299644515E+01 0.  0.
     999903    2    3    3    0    0  0.18569440200E-01  0.12892971997E+00 -0.19411847637E-01  0.13943359572E+00  0.45795316218E-01 0.  0.
         14    1    1    2    0    0 -0.21012478115E-02  0.70192884528E-02  0.11779237931E-01  0.13872133902E-01  0.00000000000E+00 0. -1.
     999901    1    3    3    0    0 -0.16468192389E-01 -0.13594900842E+00  0.76326097057E-02  0.89062427038E+00  0.88000000000E+00 0.  1.
        -11    1    4    4    0    0  0.31416986286E-01  0.88854477679E-01 -0.31051878364E-02  0.94297659268E-01  0.51100000000E-03 0.  1.
         11    1    4    4    0    0 -0.12847546086E-01  0.40075242287E-01 -0.16306659800E-01  0.45135936455E-01  0.51100000000E-03 0. -1.
</event>
<event>
 8    1  0.1993226E+004  0.1043930E+01  0.7957747E-01            NaN
         13   -1    0    0    0    0  0.00000000000E+00  0.00000000000E+00  0.74505805969E-08  0.10566000000E+00  0.10566000000E+00 0. -1.
     999900   -1    0    0    0    0 -0.00000000000E+00 -0.00000000000E+00 -0.74505805969E-08  0.93827000000E+00  0.93827000000E+00 0.  1.
     999902    2    1    2    0    0 -0.33176827508E-02  0.10047052903E-01  0.86180005340E-02  0.10302837469E+01  0.10301933697E+01 0.  0.
     999903    2    3    3    0    0  0.38287710334E-01 -0.94857041440E-01 -0.81497709738E-01  0.13851207264E+00  0.45606035804E-01 0.  0.
         14    1    1    2    0    0  0.33176827508E-02 -0.10047052903E-01 -0.86180005340E-02  0.13646253115E-01  0.00000000000E+00 0.  1.
     999901    1    3    3    0    0 -0.41605393085E-01  0.10490409434E+00  0.90115710272E-01  0.89177167424E+00  0.88000000000E+00 0.  1.
        -11    1    4    4    0    0 -0.97721707457E-02 -0.27832610206E-01 -0.20324768633E-01  0.35826063877E-01  0.51100000000E-03 0.  1.
         11    1    4    4    0    0  0.48059881080E-01 -0.67024431235E-01 -0.61172941105E-01  0.10268600877E+00  0.51100000000E-03 0. -1.
</event>
<event>
 8    1  0.1993226E+004  0.1043930E+01  0.7957747E-01            NaN
         13   -1    0    0    0    0  0.00000000000E+00  0.00000000000E+00  0.74505805969E-08  0.10566000000E+00  0.10566000000E+00 0. -1.
     999900   -1    0    0    0    0 -0.00000000000E+00 -0.00000000000E+00 -0.74505805969E-08  0.93827000000E+00  0.93827000000E+00 0.  1.
     999902    2    1    2    0    0 -0.11258126089E-01  0.16788391744E-02 -0.15294122396E-01  0.10248650037E+01  0.10246876606E+01 0.  0.
     999903    2    3    3    0    0  0.12368031813E+00 -0.13393643058E-01 -0.25331510028E-01  0.13439528911E+00  0.44093055798E-01 0.  0.
         14    1    1    2    0    0  0.11258126089E-01 -0.16788391744E-02  0.15294122396E-01  0.19064996299E-01  0.00000000000E+00 0. -1.
     999901    1    3    3    0    0 -0.13493844421E+00  0.15072482232E-01  0.10037387632E-01  0.89046971459E+00  0.88000000000E+00 0. -1.
        -11    1    4    4    0    0  0.69414317912E-01 -0.22522563071E-01 -0.30555363382E-01  0.79117031863E-01  0.51100000000E-03 0. -1.
         11    1    4    4    0    0  0.54266000213E-01  0.91289200129E-02  0.52238533533E-02  0.55278257250E-01  0.51100000000E-03 0.  1.
</event>
<event>
 8    1  0.1993226E+004  0.1043930E+01  0.7957747E-01            NaN
         13   -1    0    0    0    0  0.00000000000E+00  0.00000000000E+00  0.74505805969E-08  0.10566000000E+00  0.10566000000E+00 0.  1.
     999900   -1    0    0    0    0 -0.00000000000E+00 -0.00000000000E+00 -0.74505805969E-08  0.93827000000E+00  0.93827000000E+00 0.  1.
     999902    2    1    2    0    0 -0.24101080752E-02 -0.10500851088E-01  0.93071434567E-02  0.10296927456E+01  0.10295943137E+01 0.  0.
     999903    2    3    3    0    0 -0.12340512828E+00  0.16482073329E-01  0.49002937058E-01  0.14011777450E+00  0.41607913467E-01 0.  0.
         14    1    1    2    0    0  0.24101080752E-02  0.10500851088E-01 -0.93071434567E-02  0.14237254435E-01  0.00000000000E+00 0. -1.
     999901    1    3    3    0    0  0.12099502020E+00 -0.26982924417E-01 -0.39695793601E-01  0.88957497107E+00  0.88000000000E+00 0. -1.
        -11    1    4    4    0    0 -0.59660880874E-01  0.16416648037E-01  0.38501109491E-02  0.62000092861E-01  0.51100000000E-03 0.  1.
         11    1    4    4    0    0 -0.63744247403E-01  0.65425291775E-04  0.45152826108E-01  0.78117681635E-01  0.51100000000E-03 0. -1.
</event>
<event>
 8    1  0.1993226E+004  0.1043930E+01  0.7957747E-01            NaN
         13   -1    0    0    0    0  0.00000000000E+00  0.00000000000E+00  0.74505805969E-08  0.10566000000E+00  0.10566000000E+00 0.  1.
     999900   -1    0    0    0    0 -0.00000000000E+00 -0.00000000000E+00 -0.74505805969E-08  0.93827000000E+00  0.93827000000E+00 0.  1.
     999902    2    1    2    0    0 -0.11530369207E-02 -0.92262669185E-02 -0.10263360941E-01  0.10300811707E+01  0.10299880718E+01 0.  0.
     999903    2    3    3    0    0 -0.97043314395E-01 -0.60615478676E-01  0.66661148501E-01  0.14005129673E+00  0.45596226504E-01 0.  0.
         14    1    1    2    0    0  0.11530369207E-02  0.92262669185E-02  0.10263360941E-01  0.13848829308E-01  0.00000000000E+00 0.  1.
     999901    1    3    3    0    0  0.95890277474E-01  0.51389211757E-01 -0.76924509442E-01  0.89002987397E+00  0.88000000000E+00 0.  1.
        -11    1    4    4    0    0 -0.54389324891E-01 -0.22063189764E-01  0.10405776118E-01  0.59611444390E-01  0.51100000000E-03 0.  1.
         11    1    4    4    0    0 -0.42653989504E-01 -0.38552288912E-01  0.56255372383E-01  0.80439852336E-01  0.51100000000E-03 0. -1.
</event>
<event>
 8    1  0.1993226E+004  0.1043930E+01  0.7957747E-01            NaN
         13   -1    0    0    0    0  0.00000000000E+00  0.00000000000E+00  0.74505805969E-08  0.10566000000E+00  0.10566000000E+00 0.  1.
     999900   -1    0    0    0    0 -0.00000000000E+00 -0.00000000000E+00 -0.74505805969E-08  0.93827000000E+00  0.93827000000E+00 0.  1.
     999902    2    1    2    0    0 -0.25288728765E-02 -0.40444492813E-02  0.12609369308E-01  0.10304485697E+01  0.10303603767E+01 0.  0.
     999903    2    3    3    0    0 -0.11548902757E-01 -0.11552903419E+00 -0.64308330491E-01  0.14004051374E+00  0.44670451328E-01 0.  0.
         14    1    1    2    0    0  0.25288728765E-02  0.40444492813E-02 -0.12609369308E-01  0.13481430279E-01  0.00000000000E+00 0. -1.
     999901    1    3    3    0    0  0.90200298810E-02  0.11148458491E+00  0.76917699799E-01  0.89040805598E+00  0.88000000000E+00 0. -1.
        -11    1    4    4    0    0  0.34232496390E-02 -0.42760552929E-01 -0.47235826758E-01  0.63809622905E-01  0.51100000000E-03 0.  1.
         11    1    4    4    0    0 -0.14972152397E-01 -0.72768481264E-01 -0.17072503734E-01  0.76230890836E-01  0.51100000000E-03 0. -1.
</event>
<event>
 8    1  0.1993226E+004  0.1043930E+01  0.7957747E-01            NaN
         13   -1    0    0    0    0  0.00000000000E+00  0.00000000000E+00  0.74505805969E-08  0.10566000000E+00  0.10566000000E+00 0. -1.
     999900   -1    0    0    0    0 -0.00000000000E+00 -0.00000000000E+00 -0.74505805969E-08  0.93827000000E+00  0.93827000000E+00 0.  1.
     999902    2    1    2    0    0  0.93323924486E-03  0.24315184794E-02  0.13854558619E-01  0.10298327658E+01  0.10297362738E+01 0.  0.
     999903    2    3    3    0    0  0.74913065307E-01 -0.10145725091E+00 -0.37004990932E-01  0.13918548160E+00  0.45800522037E-01 0.  0.
         14    1    1    2    0    0 -0.93323924486E-03 -0.24315184794E-02 -0.13854558619E-01  0.14097234202E-01  0.00000000000E+00 0.  1.
     999901    1    3    3    0    0 -0.73979826063E-01  0.10388876939E+00  0.50859549551E-01  0.89064728420E+00  0.88000000000E+00 0. -1.
        -11    1    4    4    0    0  0.24454757540E-01 -0.17026991496E-01  0.82353015291E-02  0.30919814327E-01  0.51100000000E-03 0. -1.
         11    1    4    4    0    0  0.50458307767E-01 -0.84430259412E-01 -0.45240292461E-01  0.10826566727E+00  0.51100000000E-03 0.  1.
</event>
<event>
 8    1  0.1993226E+004  0.1043930E+01  0.7957747E-01            NaN
         13   -1    0    0    0    0  0.00000000000E+00  0.00000000000E+00  0.74505805969E-08  0.10566000000E+00  0.10566000000E+00 0.  1.
     999900   -1    0    0    0    0 -0.00000000000E+00 -0.00000000000E+00 -0.74505805969E-08  0.93827000000E+00  0.93827000000E+00 0. -1.
     999902    2    1    2    0    0 -0.13744650189E-01  0.23861450957E-02  0.61735115258E-03  0.10299661102E+01  0.10298714472E+01 0.  0.
     999903    2    3    3    0    0  0.10105843926E+00  0.78870175792E-01  0.25389526483E-01  0.13887508395E+00  0.46993064514E-01 0.  0.
         14    1    1    2    0    0  0.13744650189E-01 -0.23861450957E-02 -0.61735115258E-03  0.13963889847E-01  0.00000000000E+00 0.  1.
     999901    1    3    3    0    0 -0.11480308945E+00 -0.76484030696E-01 -0.24772175331E-01  0.89109102620E+00  0.88000000000E+00 0. -1.
        -11    1    4    4    0    0  0.11697535926E-01  0.27702292891E-01  0.19269545058E-01  0.35718704707E-01  0.51100000000E-03 0. -1.
         11    1    4    4    0    0  0.89360903338E-01  0.51167882900E-01  0.61199814253E-02  0.10315637925E+00  0.51100000000E-03 0.  1.
</event>
<event>
 8    1  0.1993226E+004  0.1043930E+01  0.7957747E-01            NaN
         13   -1    0    0    0    0  0.00000000000E+00  0.00000000000E+00  0.74505805969E-08  0.10566000000E+00  0.10566000000E+00 0. -1.
     999900   -1    0    0    0    0 -0.00000000000E+00 -0.00000000000E+00 -0.74505805969E-08  0.93827000000E+00  0.93827000000E+00 0.  1.
     999902    2    1    2    0    0  0.22075028890E-02  0.12719233397E-01  0.40238540720E-03  0.10310143552E+01  0.10309334541E+01 0.  0.
     999903    2    3    3    0    0 -0.12158066491E+00  0.35613912243E-01 -0.44139357191E-01  0.14094040115E+00  0.43193807392E-01 0.  0.
         14    1    1    2    0    0 -0.22075028890E-02 -0.12719233397E-01 -0.40238540720E-03  0.12915644824E-01  0.00000000000E+00 0. -1.
     999901    1    3    3    0    0  0.12378816780E+00 -0.22894678846E-01  0.44541742598E-01  0.89007395403E+00  0.88000000000E+00 0. -1.
        -11    1    4    4    0    0 -0.10108397731E+00  0.13018385672E-01 -0.42375052992E-01  0.11037823640E+00  0.51100000000E-03 0.  1.
         11    1    4    4    0    0 -0.20496687603E-01  0.22595526571E-01 -0.17643041995E-02  0.30562164747E-01  0.51100000000E-03 0. -1.
</event>
<event>
 8    1  0.1993226E+004  0.1043930E+01  0.7957747E-01            NaN
         13   -1    0    0    0    0  0.00000000000E+00  0.00000000000E+00  0.74505805969E-08  0.10566000000E+00  0.10566000000E+00 0.  1.
     999900   -1    0    0    0    0 -0.00000000000E+00 -0.00000000000E+00 -0.74505805969E-08  0.93827000000E+00  0.93827000000E+00 0.  1.
     999902    2    1    2    0    0 -0.10046265309E-01  0.71431350296E-02  0.61081073509E-02  0.10301727910E+01  0.10300809281E+01 0.  0.
     999903    2    3    3    0    0  0.12694984772E+00  0.25307628250E-01 -0.23644877880E-01  0.13889106003E+00  0.44439919242E-01 0.  0.
         14    1    1    2    0    0  0.10046265309E-01 -0.71431350296E-02 -0.61081073509E-02  0.13757209023E-01  0.00000000000E+00 0.  1.
     999901    1    3    3    0    0 -0.13699611302E+00 -0.18164493221E-01  0.29752985231E-01  0.89128173095E+00  0.88000000000E+00 0. -1.
        -11    1    4    4    0    0  0.29905255555E-01  0.24067486832E-01 -0.15819896507E-01  0.41522264855E-01  0.51100000000E-03 0.  1.
         11    1    4    4    0    0  0.97044592161E-01  0.12401414186E-02 -0.78249813730E-02  0.97368795170E-01  0.51100000000E-03 0. -1.
</event>
<event>
 8    1  0.1993226E+004  0.1043930E+01  0.7957747E-01            NaN
         13   -1    0    0    0    0  0.00000000000E+00  0.00000000000E+00  0.74505805969E-08  0.10566000000E+00  0.10566000000E+00 0.  1.
     999900   -1    0    0    0    0 -0.00000000000E+00 -0.00000000000E+00 -0.74505805969E-08  0.93827000000E+00  0.93827000000E+00 0.  1.
     999902    2    1    2    0    0  0.13551041818E-01  0.30319679907E-02  0.51643038555E-03  0.10300343077E+01  0.10299405734E+01 0.  0.
     999903    2    3    3    0    0 -0.43687935710E-01 -0.12261591806E+00  0.19450344261E-01  0.13906731341E+00  0.44923297720E-01 0.  0.
         14    1    1    2    0    0 -0.13551041818E-01 -0.30319679907E-02 -0.51643038555E-03  0.13895692303E-01  0.00000000000E+00 0. -1.
     999901    1    3    3    0    0  0.57238977527E-01  0.12564788605E+00 -0.18933913876E-01  0.89096699429E+00  0.88000000000E+00 0.  1.
        -11    1    4    4    0    0  0.37125532834E-02 -0.50731835045E-01  0.14131137534E-01  0.52796328546E-01  0.51100000000E-03 0.  1.
         11    1    4    4    0    0 -0.47400488993E-01 -0.71884083016E-01  0.53192067270E-02  0.86270984862E-01  0.51100000000E-03 0. -1.
</event>
<event>
 8    1  0.1993226E+004  0.1043930E+01  0.7957747E-01            NaN
         13   -1    0    0    0    0  0.00000000000E+00  0.00000000000E+00  0.74505805969E-08  0.10566000000E+00  0.10566000000E+00 0.  1.
     999900   -1    0    0    0    0 -0.00000000000E+00 -0.00000000000E+00 -0.74505805969E-08  0.93827000000E+00  0.93827000000E+00 0. -1.
     999902    2    1    2    0    0 -0.46203649514E-02 -0.79945424719E-02 -0.12231739095E-01  0.10286043378E+01  0.10284901593E+01 0.  0.
     999903    2    3    3    0    0 -0.27381305256E-01 -0.12564622184E+00  0.29902127757E-01  0.13948385055E+00  0.44998870867E-01 0.  0.
         14    1    1    2    0    0  0.46203649514E-02  0.79945424719E-02  0.12231739095E-01  0.15325662234E-01  0.00000000000E+00 0.  1.
     999901    1    3    3    0    0  0.22760940305E-01  0.11765167936E+00 -0.42133866852E-01  0.88912048722E+00  0.88000000000E+00 0.  1.
        -11    1    4    4    0    0  0.12196846474E-01 -0.29192035823E-01  0.11164939479E-01  0.33553763037E-01  0.51100000000E-03 0.  1.
         11    1    4    4    0    0 -0.39578151731E-01 -0.96454186013E-01  0.18737188278E-01  0.10593008751E+00  0.51100000000E-03 0. -1.
</event>
<event>
 8    1  0.1993226E+004  0.1043930E+01  0.7957747E-01            NaN
         13   -1    0    0    0    0  0.00000000000E+00  0.00000000000E+00  0.74505805969E-08  0.10566000000E+00  0.10566000000E+00 0. -1.
     999900   -1    0    0    0    0 -0.00000000000E+00 -0.00000000000E+00 -0.74505805969E-08  0.93827000000E+00  0.93827000000E+00 0.  1.
     999902    2    1    2    0    0  0.69454077380E-03 -0.12206117689E-01 -0.71946234350E-02  0.10297442923E+01  0.10296465769E+01 0.  0.
     999903    2    3    3    0    0 -0.12796423887E+00 -0.26239712476E-01  0.20834094136E-01  0.13983663848E+00  0.45352585838E-01 0.  0.
         14    1    1    2    0    0 -0.69454077380E-03  0.12206117689E-01  0.71946234350E-02  0.14185707677E-01  0.00000000000E+00 0. -1.
     999901    1    3    3    0    0  0.12865877964E+00  0.14033594786E-01 -0.28028717571E-01  0.88990765384E+00  0.88000000000E+00 0. -1.
        -11    1    4    4    0    0 -0.84156005172E-01 -0.35797279143E-01  0.27794491480E-02  0.91496802454E-01  0.51100000000E-03 0.  1.
         11    1    4    4    0    0 -0.43808233697E-01  0.95575666677E-02  0.18054644988E-01  0.48339836025E-01  0.51100000000E-03 0. -1.
</event>
<event>
 8    1  0.1993226E+004  0.1043930E+01  0.7957747E-01            NaN
         13   -1    0    0    0    0  0.00000000000E+00  0.00000000000E+00  0.74505805969E-08  0.10566000000E+00  0.10566000000E+00 0. -1.
     999900   -1    0    0    0    0 -0.00000000000E+00 -0.00000000000E+00 -0.74505805969E-08  0.93827000000E+00  0.93827000000E+00 0. -1.
     999902    2    1    2    0    0  0.89960789540E-02 -0.72741960024E-02  0.75285499241E-02  0.10301270138E+01  0.10300345344E+01 0.  0.
     999903    2    3    3    0    0  0.80487283672E-01 -0.30703836535E-01 -0.10121721275E+00  0.14024748190E+00  0.44760513969E-01 0.  0.
         14    1    1    2    0    0 -0.89960789540E-02  0.72741960024E-02 -0.75285499241E-02  0.13802986198E-01  0.00000000000E+00 0.  1.
     999901    1    3    3    0    0 -0.71491204718E-01  0.23429640533E-01  0.10874576267E+00  0.88987953191E+00  0.88000000000E+00 0.  1.
        -11    1    4    4    0    0  0.46587063294E-01  0.60712927439E-02 -0.46240753260E-01  0.65921797950E-01  0.51100000000E-03 0.  1.
         11    1    4    4    0    0  0.33900220378E-01 -0.36775129279E-01 -0.54976459487E-01  0.74325683945E-01  0.51100000000E-03 0. -1.
</event>
<event>
 8    1  0.1993226E+004  0.1043930E+01  0.7957747E-01            NaN
         13   -1    0    0    0    0  0.00000000000E+00  0.00000000000E+00  0.74505805969E-08  0.10566000000E+00  0.10566000000E+00 0.  1.
     999900   -1    0    0    0    0 -0.00000000000E+00 -0.00000000000E+00 -0.74505805969E-08  0.93827000000E+00  0.93827000000E+00 0. -1.
     999902    2    1    2    0    0 -0.11526987574E-01  0.31909251822E-02 -0.71947740824E-02  0.10299722702E+01  0.10298776914E+01 0.  0.
     999903    2    3    3    0    0  0.11104129325E+00 -0.37279233461E-01  0.58105390974E-01  0.13816235284E+00  0.44639547804E-01 0.  0.
         14    1    1    2    0    0  0.11526987574E-01 -0.31909251822E-02  0.71947740824E-02  0.13957729763E-01  0.00000000000E+00 0.  1.
     999901    1    3    3    0    0 -0.12256828083E+00  0.40470158643E-01 -0.65300165056E-01  0.89180991739E+00  0.88000000000E+00 0. -1.
        -11    1    4    4    0    0  0.16396997351E-01 -0.11383324812E-01 -0.61241643026E-02  0.20885595881E-01  0.51100000000E-03 0. -1.
         11    1    4    4    0    0  0.94644295902E-01 -0.25895908649E-01  0.64229555277E-01  0.11727675696E+00  0.51100000000E-03 0.  1.
</event>
<event>
 8    1  0.1993226E+004  0.1043930E+01  0.7957747E-01            NaN
         13   -1    0    0    0    0  0.00000000000E+00  0.00000000000E+00  0.74505805969E-08  0.10566000000E+00  0.10566000000E+00 0. -1.
     999900   -1    0    0    0    0 -0.00000000000E+00 -0.00000000000E+00 -0.74505805969E-08  0.93827000000E+00  0.93827000000E+00 0.  1.
     999902    2    1    2    0    0  0.28523184441E-02  0.60420246618E-03  0.13460935351E-01  0.10301569262E+01  0.10300648499E+01 0.  0.
     999903    2    3    3    0    0  0.23898901390E-01 -0.60947853026E-01  0.11686275838E+00  0.14171809815E+00  0.46274364084E-01 0.  0.
         14    1    1    2    0    0 -0.28523184441E-02 -0.60420246618E-03 -0.13460935351E-01  0.13773073791E-01  0.00000000000E+00 0. -1.
     999901    1    3    3    0    0 -0.21046582945E-01  0.61552055492E-01 -0.10340182303E+00  0.88843882805E+00  0.88000000000E+00 0.  1.
        -11    1    4    4    0    0  0.31433025515E-01 -0.49911790991E-01  0.63352442386E-01  0.86562203358E-01  0.51100000000E-03 0. -1.
         11    1    4    4    0    0 -0.75341241256E-02 -0.11036062034E-01  0.53510315998E-01  0.55155894796E-01  0.51100000000E-03 0.  1.
</event>
<event>
 8    1  0.2206873E+004  0.1043930E+01  0.7957747E-01            NaN
         13   -1    0    0    0    0  0.00000000000E+00  0.00000000000E+00  0.74505805969E-08  0.10566000000E+00  0.10566000000E+00 0. -1.
     999900   -1    0    0    0    0 -0.00000000000E+00 -0.00000000000E+00 -0.74505805969E-08  0.93827000000E+00  0.93827000000E+00 0.  1.
     999902    2    1    2    0    0 -0.12623641134E-01 -0.37845155690E-02  0.10045693048E-01  0.10273590971E+01  0.10272254473E+01 0.  0.
     999903    2    3    3    0    0  0.65177610780E-01  0.88654725241E-01 -0.66212907043E-01  0.13583600592E+00  0.44266129171E-01 0.  0.
         14    1    1    2    0    0  0.12623641134E-01  0.37845155690E-02 -0.10045693048E-01  0.16570902884E-01  0.00000000000E+00 0.  1.
     999901    1    3    3    0    0 -0.77801251914E-01 -0.92439240810E-01  0.76258600091E-01  0.89152309119E+00  0.88000000000E+00 0.  1.
        -11    1    4    4    0    0  0.56065266542E-01  0.50987938153E-01 -0.26342383675E-01  0.80232575979E-01  0.51100000000E-03 0.  1.
         11    1    4    4    0    0  0.91123442380E-02  0.37666787088E-01 -0.39870523368E-01  0.55603429945E-01  0.51100000000E-03 0. -1.
</event>
<event>
 8    1  0.1993226E+004  0.1043930E+01  0.7957747E-01            NaN
         13   -1    0    0    0    0  0.00000000000E+00  0.00000000000E+00  0.74505805969E-08  0.10566000000E+00  0.10566000000E+00 0. -1.
     999900   -1    0    0    0    0 -0.00000000000E+00 -0.00000000000E+00 -0.74505805969E-08  0.93827000000E+00  0.93827000000E+00 0.  1.
     999902    2    1    2    0    0  0.45232190851E-02  0.11432905548E-01  0.66844900826E-02  0.10299352421E+01  0.10298401574E+01 0.  0.
     999903    2    3    3    0    0 -0.46706901402E-01 -0.99919145184E-01  0.71718699581E-01  0.13906305553E+00  0.45050985913E-01 0.  0.
         14    1    1    2    0    0 -0.45232190851E-02 -0.11432905548E-01 -0.66844900826E-02  0.13994757870E-01  0.00000000000E+00 0.  1.
     999901    1    3    3    0    0  0.51230120488E-01  0.11135205073E+00 -0.65034209499E-01  0.89087218660E+00  0.88000000000E+00 0.  1.
        -11    1    4    4    0    0 -0.19691837414E-01 -0.86954658771E-01  0.54643411884E-01  0.10457076420E+00  0.51100000000E-03 0. -1.
         11    1    4    4    0    0 -0.27015063988E-01 -0.12964486413E-01  0.17075287697E-01  0.34492291330E-01  0.51100000000E-03 0.  1.
</event>
<event>
 8    1  0.1993226E+004  0.1043930E+01  0.7957747E-01            NaN
         13   -1    0    0    0    0  0.00000000000E+00  0.00000000000E+00  0.74505805969E-08  0.10566000000E+00  0.10566000000E+00 0. -1.
     999900   -1    0    0    0    0 -0.00000000000E+00 -0.00000000000E+00 -0.74505805969E-08  0.93827000000E+00  0.93827000000E+00 0.  1.
     999902    2    1    2    0    0  0.25188409872E-02  0.16760463711E-01  0.74669206255E-02  0.10254094005E+01  0.10252421304E+01 0.  0.
     999903    2    3    3    0    0  0.65222407056E-01  0.63803310486E-01 -0.90928093260E-01  0.13646263862E+00  0.45047849935E-01 0.  0.
         14    1    1    2    0    0 -0.25188409872E-02 -0.16760463711E-01 -0.74669206255E-02  0.18520599540E-01  0.00000000000E+00 0.  1.
     999901    1    3    3    0    0 -0.62703566069E-01 -0.47042846775E-01  0.98395013885E-01  0.88894676184E+00  0.88000000000E+00 0. -1.
        -11    1    4    4    0    0  0.58628448843E-02  0.10397064542E-01 -0.40019017030E-01  0.41764275958E-01  0.51100000000E-03 0. -1.
         11    1    4    4    0    0  0.59359562172E-01  0.53406245944E-01 -0.50909076229E-01  0.94698362660E-01  0.51100000000E-03 0.  1.
</event>
<event>
 8    1  0.1993226E+004  0.1043930E+01  0.7957747E-01            NaN
         13   -1    0    0    0    0  0.00000000000E+00  0.00000000000E+00  0.74505805969E-08  0.10566000000E+00  0.10566000000E+00 0.  1.
     999900   -1    0    0    0    0 -0.00000000000E+00 -0.00000000000E+00 -0.74505805969E-08  0.93827000000E+00  0.93827000000E+00 0.  1.
     999902    2    1    2    0    0  0.10426254869E-01 -0.68100336539E-02 -0.82416759238E-02  0.10289965285E+01  0.10288881606E+01 0.  0.
     999903    2    3    3    0    0 -0.56013667315E-01 -0.11868469979E+00  0.35415164454E-02  0.13935106664E+00  0.46718182167E-01 0.  0.
         14    1    1    2    0    0 -0.10426254869E-01  0.68100336539E-02  0.82416759238E-02  0.14933471498E-01  0.00000000000E+00 0.  1.
     999901    1    3    3    0    0  0.66439922184E-01  0.11187466614E+00 -0.11783192369E-01  0.88964546186E+00  0.88000000000E+00 0. -1.
        -11    1    4    4    0    0 -0.27424258240E-01 -0.10313885740E+00  0.13817400734E-02  0.10673276991E+00  0.51100000000E-03 0. -1.
         11    1    4    4    0    0 -0.28589409075E-01 -0.15545842394E-01  0.21597763720E-02  0.32618296736E-01  0.51100000000E-03 0.  1.
</event>
<event>
 8    1  0.1993226E+004  0.1043930E+01  0.7957747E-01            NaN
         13   -1    0    0    0    0  0.00000000000E+00  0.00000000000E+00  0.74505805969E-08  0.10566000000E+00  0.10566000000E+00 0. -1.
     999900   -1    0    0    0    0 -0.00000000000E+00 -0.00000000000E+00 -0.74505805969E-08  0.93827000000E+00  0.93827000000E+00 0. -1.
     999902    2    1    2    0    0  0.12631881118E-01 -0.46691099800E-02  0.58941192894E-02  0.10292294677E+01  0.10291244781E+01 0.  0.
     999903    2    3    3    0    0  0.91828639369E-01 -0.95773485492E-01 -0.10345158985E-01  0.14083999907E+00  0.46084959509E-01 0.  0.
         14    1    1    2    0    0 -0.12631881118E-01  0.46691099800E-02 -0.58941192894E-02  0.14700532330E-01  0.00000000000E+00 0. -1.
     999901    1    3    3    0    0 -0.79196758251E-01  0.91104375512E-01  0.16239278275E-01  0.88838946860E+00  0.88000000000E+00 0.  1.
        -11    1    4    4    0    0  0.12592670115E-01 -0.81215729184E-02  0.13642563876E-01  0.20271062069E-01  0.51100000000E-03 0. -1.
         11    1    4    4    0    0  0.79235969254E-01 -0.87651912573E-01 -0.23987722861E-01  0.12056893700E+00  0.51100000000E-03 0.  1.
</event>
<event>
 8    1  0.1993226E+004  0.1043930E+01  0.7957747E-01            NaN
         13   -1    0    0    0    0  0.00000000000E+00  0.00000000000E+00  0.74505805969E-08  0.10566000000E+00  0.10566000000E+00 0.  1.
     999900   -1    0    0    0    0 -0.00000000000E+00 -0.00000000000E+00 -0.74505805969E-08  0.93827000000E+00  0.93827000000E+00 0.  1.
     999902    2    1    2    0    0 -0.62834238429E-02  0.81555722325E-02  0.97639070802E-02  0.10297409671E+01  0.10296432055E+01 0.  0.
     999903    2    3    3    0    0  0.13069006659E+00 -0.15535314640E-01  0.12233720258E-01  0.13882621517E+00  0.42447786740E-01 0.  0.
         14    1    1    2    0    0  0.62834238429E-02 -0.81555722325E-02 -0.97639070802E-02  0.14189032916E-01  0.00000000000E+00 0. -1.
     999901    1    3    3    0    0 -0.13697349044E+00  0.23690886873E-01 -0.24698131773E-02  0.89091475192E+00  0.88000000000E+00 0. -1.
        -11    1    4    4    0    0  0.46883279674E-01 -0.15707333257E-03 -0.15236698343E-01  0.49299946069E-01  0.51100000000E-03 0. -1.
         11    1    4    4    0    0  0.83806786921E-01 -0.15378241308E-01  0.27470418601E-01  0.89526269099E-01  0.51100000000E-03 0.  1.
</event>
<event>
 8    1  0.1993226E+004  0.1043930E+01  0.7957747E-01            NaN
         13   -1    0    0    0    0  0.00000000000E+00  0.00000000000E+00  0.74505805969E-08  0.10566000000E+00  0.10566000000E+00 0.  1.
     999900   -1    0    0    0    0 -0.00000000000E+00 -0.00000000000E+00 -0.74505805969E-08  0.93827000000E+00  0.93827000000E+00 0.  1.
     999902    2    1    2    0    0 -0.44048066155E-02 -0.15393922007E-01  0.90531735178E-03  0.10278927073E+01  0.10277675920E+01 0.  0.
     999903    2    3    3    0    0  0.90457531719E-01  0.82639084515E-01  0.41954998984E-01  0.13643636520E+00  0.42928737159E-01 0.  0.
         14    1    1    2    0    0  0.44048066155E-02  0.15393922007E-01 -0.90531735178E-03  0.16037292651E-01  0.00000000000E+00 0.  1.
     999901    1    3    3    0    0 -0.94862338335E-01 -0.98033006521E-01 -0.41049681633E-01  0.89145634215E+00  0.88000000000E+00 0.  1.
        -11    1    4    4    0    0  0.38114310521E-02  0.20712251856E-01 -0.21234566815E-02  0.21172967976E-01  0.51100000000E-03 0.  1.
         11    1    4    4    0    0  0.86646100667E-01  0.61926832658E-01  0.44078455666E-01  0.11526339722E+00  0.51100000000E-03 0. -1.
</event>
<event>
 8    1  0.1993226E+004  0.1043930E+01  0.7957747E-01            NaN
         13   -1    0    0    0    0  0.00000000000E+00  0.00000000000E+00  0.74505805969E-08  0.10566000000E+00  0.10566000000E+00 0. -1.
     999900   -1    0    0    0    0 -0.00000000000E+00 -0.00000000000E+00 -0.74505805969E-08  0.93827000000E+00  0.93827000000E+00 0.  1.
     999902    2    1    2    0    0  0.73455435249E-03 -0.11395162002E-01  0.32204447873E-02  0.10320657448E+01  0.10319975489E+01 0.  0.
     999903    2    3    3    0    0 -0.33691640968E-01  0.77186926105E-01 -0.10245172896E+00  0.14066316595E+00  0.46870259820E-01 0.  0.
         14    1    1    2    0    0 -0.73455435249E-03  0.11395162002E-01 -0.32204447873E-02  0.11864255214E-01  0.00000000000E+00 0.  1.
     999901    1    3    3    0    0  0.34426195320E-01 -0.88582088108E-01  0.10567217374E+00  0.89140257884E+00  0.88000000000E+00 0. -1.
        -11    1    4    4    0    0  0.19926224391E-02  0.41000222585E-01 -0.67421723193E-01  0.78936295046E-01  0.51100000000E-03 0. -1.
         11    1    4    4    0    0 -0.35684263407E-01  0.36186703520E-01 -0.35030005762E-01  0.61726870901E-01  0.51100000000E-03 0.  1.
</event>
<event>
 8    1  0.1993226E+004  0.1043930E+01  0.7957747E-01            NaN
         13   -1    0    0    0    0  0.00000000000E+00  0.00000000000E+00  0.74505805969E-08  0.10566000000E+00  0.10566000000E+00 0. -1.
     999900   -1    0    0    0    0 -0.00000000000E+00 -0.00000000000E+00 -0.74505805969E-08  0.93827000000E+00  0.93827000000E+00 0. -1.
     999902    2    1    2    0    0 -0.10152371675E-01 -0.26045849750E-02  0.10585457372E-01  0.10290334762E+01  0.10289256478E+01 0.  0.
     999903    2    3    3    0    0 -0.12879279622E+00 -0.24380506212E-01 -0.19793611288E-01  0.14028568920E+00  0.45894379910E-01 0.  0.
         14    1    1    2    0    0  0.10152371675E-01  0.26045849750E-02 -0.10585457372E-01  0.14896523799E-01  0.00000000000E+00 0.  1.
     999901    1    3    3    0    0  0.11864042454E+00  0.21775921237E-01  0.30379068660E-01  0.88874778700E+00  0.88000000000E+00 0.  1.
        -11    1    4    4    0    0 -0.49014559237E-01 -0.26040175849E-01 -0.23790619644E-01  0.60388512811E-01  0.51100000000E-03 0. -1.
         11    1    4    4    0    0 -0.79778236978E-01  0.16596696369E-02  0.39970083566E-02  0.79897176392E-01  0.51100000000E-03 0.  1.
</event>
<event>
 8    1  0.1993226E+004  0.1043930E+01  0.7957747E-01            NaN
         13   -1    0    0    0    0  0.00000000000E+00  0.00000000000E+00  0.74505805969E-08  0.10566000000E+00  0.10566000000E+00 0.  1.
     999900   -1    0    0    0    0 -0.00000000000E+00 -0.00000000000E+00 -0.74505805969E-08  0.93827000000E+00  0.93827000000E+00 0. -1.
     999902    2    1    2    0    0  0.12878944070E-01 -0.61826310904E-02  0.36113656584E-02  0.10291945295E+01  0.10290890367E+01 0.  0.
     999903    2    3    3    0    0  0.60739379977E-01  0.11676481177E+00  0.93342540016E-04  0.13935236853E+00  0.45779693691E-01 0.  0.
         14    1    1    2    0    0 -0.12878944070E-01  0.61826310904E-02 -0.36113656584E-02  0.14735470454E-01  0.00000000000E+00 0. -1.
     999901    1    3    3    0    0 -0.47860435907E-01 -0.12294744286E+00  0.35180231184E-02  0.88984216101E+00  0.88000000000E+00 0. -1.
        -11    1    4    4    0    0  0.41600833631E-01  0.52054328434E-01  0.18958475974E-01  0.69281797031E-01  0.51100000000E-03 0.  1.
         11    1    4    4    0    0  0.19138546346E-01  0.64710483338E-01 -0.18865133434E-01  0.70070571502E-01  0.51100000000E-03 0. -1.
</event>
<event>
 8    1  0.1993226E+004  0.1043930E+01  0.7957747E-01            NaN
         13   -1    0    0    0    0  0.00000000000E+00  0.00000000000E+00  0.74505805969E-08  0.10566000000E+00  0.10566000000E+00 0. -1.
     999900   -1    0    0    0    0 -0.00000000000E+00 -0.00000000000E+00 -0.74505805969E-08  0.93827000000E+00  0.93827000000E+00 0.  1.
     999902    2    1    2    0    0  0.41360869547E-02  0.35462314222E-02  0.13642534541E-01  0.10292398087E+01  0.10291349678E+01 0.  0.
     999903    2    3    3    0    0  0.32754502912E-01  0.92422954926E-02 -0.12500681473E+00  0.13790648105E+00  0.47256918014E-01 0.  0.
         14    1    1    2    0    0 -0.41360869547E-02 -0.35462314222E-02 -0.13642534541E-01  0.14690191330E-01  0.00000000000E+00 0.  1.
     999901    1    3    3    0    0 -0.28618415958E-01 -0.56960640704E-02  0.13864934927E+00  0.89133332762E+00  0.88000000000E+00 0. -1.
        -11    1    4    4    0    0  0.17973461955E-01  0.23956465965E-01 -0.10428572915E+00  0.10850222127E+00  0.51100000000E-03 0.  1.
         11    1    4    4    0    0  0.14781040957E-01 -0.14714170472E-01 -0.20721085580E-01  0.29404259777E-01  0.51100000000E-03 0. -1.
</event>
<event>
 8    1  0.1993226E+004  0.1043930E+01  0.7957747E-01            NaN
         13   -1    0    0    0    0  0.00000000000E+00  0.00000000000E+00  0.74505805969E-08  0.10566000000E+00  0.10566000000E+00 0.  1.
     999900   -1    0    0    0    0 -0.00000000000E+00 -0.00000000000E+00 -0.74505805969E-08  0.93827000000E+00  0.93827000000E+00 0.  1.
     999902    2    1    2    0    0  0.13684224607E-02 -0.31687721011E-02  0.12562374451E-01  0.10309020704E+01  0.10308197475E+01 0.  0.
     999903    2    3    3    0    0 -0.64442488462E-02 -0.12697337847E+00 -0.40571059886E-01  0.14061459988E+00  0.44302230376E-01 0.  0.
         14    1    1    2    0    0 -0.13684224607E-02  0.31687721011E-02 -0.12562374451E-01  0.13027929556E-01  0.00000000000E+00 0. -1.
     999901    1    3    3    0    0  0.78126713070E-02  0.12380460637E+00  0.53133434338E-01  0.89028747056E+00  0.88000000000E+00 0.  1.
        -11    1    4    4    0    0 -0.23901830991E-01 -0.86054522430E-01 -0.34350141511E-01  0.95691544550E-01  0.51100000000E-03 0.  1.
         11    1    4    4    0    0  0.17457582145E-01 -0.40918856042E-01 -0.62209183751E-02  0.44923055334E-01  0.51100000000E-03 0. -1.
</event>
<event>
 8    1  0.1993226E+004  0.1043930E+01  0.7957747E-01            NaN
         13   -1    0    0    0    0  0.00000000000E+00  0.00000000000E+00  0.74505805969E-08  0.10566000000E+00  0.10566000000E+00 0. -1.
     999900   -1    0    0    0    0 -0.00000000000E+00 -0.00000000000E+00 -0.74505805969E-08  0.93827000000E+00  0.93827000000E+00 0.  1.
     999902    2    1    2    0    0 -0.31282885975E-02 -0.13126117326E-01  0.26741384305E-02  0.10301738319E+01  0.10300819830E+01 0.  0.
     999903    2    3    3    0    0  0.96632868710E-01  0.88254992690E-01  0.11872641225E-01  0.13870592417E+00  0.44401787596E-01 0.  0.
         14    1    1    2    0    0  0.31282885975E-02  0.13126117326E-01 -0.26741384305E-02  0.13756168142E-01  0.00000000000E+00 0. -1.
     999901    1    3    3    0    0 -0.99761157307E-01 -0.10138111002E+00 -0.91985027942E-02  0.89146790768E+00  0.88000000000E+00 0.  1.
        -11    1    4    4    0    0  0.81847374294E-02 -0.43742657238E-02  0.47350119795E-02  0.10430991653E-01  0.51100000000E-03 0. -1.
         11    1    4    4    0    0  0.88448131280E-01  0.92629258414E-01  0.71376292452E-02  0.12827493252E+00  0.51100000000E-03 0.  1.
</event>
<event>
 8    1  0.1993226E+004  0.1043930E+01  0.7957747E-01            NaN
         13   -1    0    0    0    0  0.00000000000E+00  0.00000000000E+00  0.74505805969E-08  0.10566000000E+00  0.10566000000E+00 0. -1.
     999900   -1    0    0    0    0 -0.00000000000E+00 -0.00000000000E+00 -0.74505805969E-08  0.93827000000E+00  0.93827000000E+00 0. -1.
     999902    2    1    2    0    0  0.21407870901E-02  0.11184546615E-02  0.13674237760E-01  0.10300440831E+01  0.10299504815E+01 0.  0.
     999903    2    3    3    0    0 -0.62411275994E-01  0.11555651012E+00 -0.15763472265E-01  0.13980275841E+00  0.45253174471E-01 0.  0.
         14    1    1    2    0    0 -0.21407870901E-02 -0.11184546615E-02 -0.13674237760E-01  0.13885916913E-01  0.00000000000E+00 0.  1.
     999901    1    3    3    0    0  0.64552063085E-01 -0.11443805546E+00  0.29437710025E-01  0.89024132467E+00  0.88000000000E+00 0.  1.
        -11    1    4    4    0    0 -0.12118114538E-01  0.24960313256E-02  0.66354964884E-02  0.14048836499E-01  0.51100000000E-03 0.  1.
         11    1    4    4    0    0 -0.50293161457E-01  0.11306047879E+00 -0.22398968753E-01  0.12575392191E+00  0.51100000000E-03 0. -1.
</event>
<event>
 8    1  0.1993226E+004  0.1043930E+01  0.7957747E-01            NaN
         13   -1    0    0    0    0  0.00000000000E+00  0.00000000000E+00  0.74505805969E-08  0.10566000000E+00  0.10566000000E+00 0. -1.
     999900   -1    0    0    0    0 -0.00000000000E+00 -0.00000000000E+00 -0.74505805969E-08  0.93827000000E+00  0.93827000000E+00 0.  1.
     999902    2    1    2    0    0  0.85345409187E-02 -0.79327890074E-02  0.22876515262E-02  0.10320556209E+01  0.10319873079E+01 0.  0.
     999903    2    3    3    0    0 -0.81741462250E-01  0.49161936678E-01 -0.93370686014E-01  0.14045028106E+00  0.43699356672E-01 0.  0.
         14    1    1    2    0    0 -0.85345409187E-02  0.79327890074E-02 -0.22876515262E-02  0.11874379126E-01  0.00000000000E+00 0.  1.
     999901    1    3    3    0    0  0.90276003168E-01 -0.57094725685E-01  0.95658337540E-01  0.89160533982E+00  0.88000000000E+00 0. -1.
        -11    1    4    4    0    0 -0.71678432941E-01  0.21795194962E-01 -0.74848327221E-01  0.10590260375E+00  0.51100000000E-03 0.  1.
         11    1    4    4    0    0 -0.10063029309E-01  0.27366741716E-01 -0.18522358793E-01  0.34547677306E-01  0.51100000000E-03 0. -1.
</event>
<event>
 8    1  0.1993226E+004  0.1043930E+01  0.7957747E-01            NaN
         13   -1    0    0    0    0  0.00000000000E+00  0.00000000000E+00  0.74505805969E-08  0.10566000000E+00  0.10566000000E+00 0.  1.
     999900   -1    0    0    0    0 -0.00000000000E+00 -0.00000000000E+00 -0.74505805969E-08  0.93827000000E+00  0.93827000000E+00 0.  1.
     999902    2    1    2    0    0 -0.50645533009E-02  0.52183120819E-02  0.12425313824E-01  0.10295331634E+01  0.10294324969E+01 0.  0.
     999903    2    3    3    0    0  0.44818821403E-01  0.10062590952E+00  0.75423410050E-01  0.14073638073E+00  0.44539169937E-01 0.  0.
         14    1    1    2    0    0  0.50645533009E-02 -0.52183120819E-02 -0.12425313824E-01  0.14396836623E-01  0.00000000000E+00 0. -1.
     999901    1    3    3    0    0 -0.49883374704E-01 -0.95407597435E-01 -0.62998096226E-01  0.88879678265E+00  0.88000000000E+00 0.  1.
        -11    1    4    4    0    0  0.66781341369E-02  0.54558258901E-01  0.54409571422E-01  0.77342508837E-01  0.51100000000E-03 0. -1.
         11    1    4    4    0    0  0.38140687266E-01  0.46067650616E-01  0.21013838628E-01  0.63393871891E-01  0.51100000000E-03 0.  1.
</event>
<event>
 8    1  0.1993226E+004  0.1043930E+01  0.7957747E-01            NaN
         13   -1    0    0    0    0  0.00000000000E+00  0.00000000000E+00  0.74505805969E-08  0.10566000000E+00  0.10566000000E+00 0. -1.
     999900   -1    0    0    0    0 -0.00000000000E+00 -0.00000000000E+00 -0.74505805969E-08  0.93827000000E+00  0.93827000000E+00 0. -1.
     999902    2    1    2    0    0 -0.60988216931E-02  0.10996290082E-01 -0.24892202291E-02  0.10311116445E+01  0.10310319651E+01 0.  0.
     999903    2    3    3    0    0 -0.36300220803E-01 -0.74782434360E-01  0.10436915074E+00  0.13999502721E+00  0.42374160740E-01 0.  0.
         14    1    1    2    0    0  0.60988216931E-02 -0.10996290082E-01  0.24892202291E-02  0.12818355548E-01  0.00000000000E+00 0. -1.
     999901    1    3    3    0    0  0.30201399110E-01  0.85778724442E-01 -0.10685837097E+00  0.89111661724E+00  0.88000000000E+00 0. -1.
        -11    1    4    4    0    0  0.33775623185E-02 -0.33529757103E-01  0.24211901268E-01  0.41498552055E-01  0.51100000000E-03 0.  1.
         11    1    4    4    0    0 -0.39677783122E-01 -0.41252677257E-01  0.80157249473E-01  0.98496475157E-01  0.51100000000E-03 0. -1.
</event>
<event>
 8    1  0.1993226E+004  0.1043930E+01  0.7957747E-01            NaN
         13   -1    0    0    0    0  0.00000000000E+00  0.00000000000E+00  0.74505805969E-08  0.10566000000E+00  0.10566000000E+00 0. -1.
     999900   -1    0    0    0    0 -0.00000000000E+00 -0.00000000000E+00 -0.74505805969E-08  0.93827000000E+00  0.93827000000E+00 0.  1.
     999902    2    1    2    0    0 -0.93146895112E-02  0.42402720624E-02  0.73396854413E-02  0.10313357819E+01  0.10312588815E+01 0.  0.
     999903    2    3    3    0    0 -0.70635467605E-01  0.49957177805E-01  0.10140448812E+00  0.14302364056E+00  0.51844022328E-01 0.  0.
         14    1    1    2    0    0  0.93146895112E-02 -0.42402720624E-02 -0.73396854413E-02  0.12594218127E-01  0.00000000000E+00 0. -1.
     999901    1    3    3    0    0  0.61320778094E-01 -0.45716905743E-01 -0.94064802678E-01  0.88831214131E+00  0.88000000000E+00 0.  1.
        -11    1    4    4    0    0 -0.19355981092E-01  0.37526625804E-01  0.69613186408E-01  0.81419644381E-01  0.51100000000E-03 0.  1.
         11    1    4    4    0    0 -0.51279486513E-01  0.12430552001E-01  0.31791301711E-01  0.61603996182E-01  0.51100000000E-03 0. -1.
</event>
<event>
 8    1  0.1993226E+004  0.1043930E+01  0.7957747E-01            NaN
         13   -1    0    0    0    0  0.00000000000E+00  0.00000000000E+00  0.74505805969E-08  0.10566000000E+00  0.10566000000E+00 0.  1.
     999900   -1    0    0    0    0 -0.00000000000E+00 -0.00000000000E+00 -0.74505805969E-08  0.93827000000E+00  0.93827000000E+00 0. -1.
     999902    2    1    2    0    0  0.85359036305E-02  0.79655285576E-02 -0.55377222240E-02  0.10310080163E+01  0.10309270352E+01 0.  0.
     999903    2    3    3    0    0  0.11612640750E+00  0.63122514968E-01  0.29390351022E-01  0.14205471043E+00  0.42964562208E-01 0.  0.
         14    1    1    2    0    0 -0.85359036305E-02 -0.79655285576E-02  0.55377222240E-02  0.12921983726E-01  0.00000000000E+00 0.  1.
     999901    1    3    3    0    0 -0.10759050387E+00 -0.55156986411E-01 -0.34928073246E-01  0.88895330585E+00  0.88000000000E+00 0. -1.
        -11    1    4    4    0    0  0.27062078892E-02  0.35644380609E-02 -0.74934663894E-02  0.87431081063E-02  0.51100000000E-03 0. -1.
         11    1    4    4    0    0  0.11342019962E+00  0.59558076908E-01  0.36883817411E-01  0.13331160232E+00  0.51100000000E-03 0.  1.
</event>
<event>
 8    1  0.1993226E+004  0.1043930E+01  0.7957747E-01            NaN
         13   -1    0    0    0    0  0.00000000000E+00  0.00000000000E+00  0.74505805969E-08  0.10566000000E+00  0.10566000000E+00 0. -1.
     999900   -1    0    0    0    0 -0.00000000000E+00 -0.00000000000E+00 -0.74505805969E-08  0.93827000000E+00  0.93827000000E+00 0. -1.
     999902    2    1    2    0    0  0.60677867918E-02  0.40283258459E-02  0.12092423104E-01  0.10298136215E+01  0.10297168654E+01 0.  0.
     999903    2    3    3    0    0 -0.44295167683E-01  0.12435998584E+00  0.15784171088E-01  0.14019023793E+00  0.44460035936E-01 0.  0.
         14    1    1    2    0    0 -0.60677867918E-02 -0.40283258459E-02 -0.12092423104E-01  0.14116378508E-01  0.00000000000E+00 0.  1.
     999901    1    3    3    0    0  0.50362954475E-01 -0.12033165999E+00 -0.36917479840E-02  0.88962338356E+00  0.88000000000E+00 0.  1.
        -11    1    4    4    0    0 -0.38138118960E-01  0.58082854259E-01  0.23098199054E-01  0.73225145935E-01  0.51100000000E-03 0. -1.
         11    1    4    4    0    0 -0.61570487223E-02  0.66277131580E-01 -0.73140279665E-02  0.66965091993E-01  0.51100000000E-03 0.  1.
</event>
<event>
 8    1  0.1993226E+004  0.1043930E+01  0.7957747E-01            NaN
         13   -1    0    0    0    0  0.00000000000E+00  0.00000000000E+00  0.74505805969E-08  0.10566000000E+00  0.10566000000E+00 0. -1.
     999900   -1    0    0    0    0 -0.00000000000E+00 -0.00000000000E+00 -0.74505805969E-08  0.93827000000E+00  0.93827000000E+00 0.  1.
     999902    2    1    2    0    0  0.27566777165E-02 -0.16298747335E-01 -0.45529984083E-02  0.10267842066E+01  0.10266410418E+01 0.  0.
     999903    2    3    3    0    0  0.12780104409E-02  0.12504115368E+00 -0.20114376312E-01  0.13536886539E+00  0.47783032116E-01 0.  0.
         14    1    1    2    0    0 -0.27566777165E-02  0.16298747335E-01  0.45529984083E-02  0.17145793398E-01  0.00000000000E+00 0. -1.
     999901    1    3    3    0    0  0.14786672757E-02 -0.14133990101E+00  0.15561377904E-01  0.89141534122E+00  0.88000000000E+00 0. -1.
        -11    1    4    4    0    0  0.19608880256E-01  0.30762184259E-01 -0.14170408409E-01  0.39139261117E-01  0.51100000000E-03 0. -1.
         11    1    4    4    0    0 -0.18330869815E-01  0.94278969416E-01 -0.59439679034E-02  0.96229604269E-01  0.51100000000E-03 0.  1.
</event>
<event>
 8    1  0.1993226E+004  0.1043930E+01  0.7957747E-01            NaN
         13   -1    0    0    0    0  0.00000000000E+00  0.00000000000E+00  0.74505805969E-08  0.10566000000E+00  0.10566000000E+00 0.  1.
     999900   -1    0    0    0    0 -0.00000000000E+00 -0.00000000000E+00 -0.74505805969E-08  0.93827000000E+00  0.93827000000E+00 0. -1.
     999902    2    1    2    0    0  0.35889231849E-02  0.11836533651E-01  0.61112786011E-02  0.10301339272E+01  0.10300415411E+01 0.  0.
     999903    2    3    3    0    0  0.12663519522E+00  0.39851578982E-01 -0.13389480570E-01  0.14091769510E+00  0.45319946910E-01 0.  0.
         14    1    1    2    0    0 -0.35889231849E-02 -0.11836533651E-01 -0.61112786011E-02  0.13796072798E-01  0.00000000000E+00 0. -1.
     999901    1    3    3    0    0 -0.12304627203E+00 -0.28015045332E-01  0.19500759171E-01  0.88921623210E+00  0.88000000000E+00 0. -1.
        -11    1    4    4    0    0  0.66747538187E-01  0.34681808151E-01 -0.25826674076E-01  0.79532005416E-01  0.51100000000E-03 0. -1.
         11    1    4    4    0    0  0.59887657028E-01  0.51697708313E-02  0.12437193505E-01  0.61385689685E-01  0.51100000000E-03 0.  1.
</event>
<event>
 8    1  0.1993226E+004  0.1043930E+01  0.7957747E-01            NaN
         13   -1    0    0    0    0  0.00000000000E+00  0.00000000000E+00  0.74505805969E-08  0.10566000000E+00  0.10566000000E+00 0.  1.
     999900   -1    0    0    0    0 -0.00000000000E+00 -0.00000000000E+00 -0.74505805969E-08  0.93827000000E+00  0.93827000000E+00 0.  1.
     999902    2    1    2    0    0  0.13131351300E-01 -0.63692779859E-02 -0.14523975213E-02  0.10292633866E+01  0.10291588845E+01 0.  0.
     999903    2    3    3    0    0  0.85808288059E-01 -0.31731193887E-01  0.96076805316E-01  0.14053558279E+00  0.46363418192E-01 0.  0.
         14    1    1    2    0    0 -0.13131351300E-01  0.63692779859E-02  0.14523975213E-02  0.14666613365E-01  0.00000000000E+00 0. -1.
     999901    1    3    3    0    0 -0.72676936758E-01  0.25361915901E-01 -0.97529202837E-01  0.88872780384E+00  0.88000000000E+00 0.  1.
        -11    1    4    4    0    0  0.52852349012E-01 -0.15935539857E-01  0.86731856023E-01  0.10281044790E+00  0.51100000000E-03 0.  1.
         11    1    4    4    0    0  0.32955939047E-01 -0.15795654030E-01  0.93449492925E-02  0.37725134896E-01  0.51100000000E-03 0. -1.
</event>
<event>
 8    1  0.1993226E+004  0.1043930E+01  0.7957747E-01            NaN
         13   -1    0    0    0    0  0.00000000000E+00  0.00000000000E+00  0.74505805969E-08  0.10566000000E+00  0.10566000000E+00 0.  1.
     999900   -1    0    0    0    0 -0.00000000000E+00 -0.00000000000E+00 -0.74505805969E-08  0.93827000000E+00  0.93827000000E+00 0.  1.
     999902    2    1    2    0    0  0.42221749773E-02 -0.16849183588E-01  0.44870388911E-02  0.10259896748E+01  0.10258328117E+01 0.  0.
     999903    2    3    3    0    0  0.17833282953E-01  0.27394650093E-01  0.12454386932E+00  0.13663236665E+00  0.45702684797E-01 0.  0.
         14    1    1    2    0    0 -0.42221749773E-02  0.16849183588E-01 -0.44870388911E-02  0.17940325167E-01  0.00000000000E+00 0. -1.
     999901    1    3    3    0    0 -0.13611107976E-01 -0.44243833681E-01 -0.12005683043E+00  0.88935730818E+00  0.88000000000E+00 0.  1.
        -11    1    4    4    0    0 -0.13123951896E-01  0.16926783082E-01  0.68305153995E-01  0.71586376373E-01  0.51100000000E-03 0.  1.
         11    1    4    4    0    0  0.30957234849E-01  0.10467867011E-01  0.56238715324E-01  0.65045990280E-01  0.51100000000E-03 0. -1.
</event>
<event>
 8    1  0.1993226E+004  0.1043930E+01  0.7957747E-01            NaN
         13   -1    0    0    0    0  0.00000000000E+00  0.00000000000E+00  0.74505805969E-08  0.10566000000E+00  0.10566000000E+00 0. -1.
     999900   -1    0    0    0    0 -0.00000000000E+00 -0.00000000000E+00 -0.74505805969E-08  0.93827000000E+00  0.93827000000E+00 0.  1.
     999902    2    1    2    0    0  0.16521209019E-01  0.30055914016E-02  0.40504315343E-02  0.10266560334E+01  0.10265107018E+01 0.  0.
     999903    2    3    3    0    0 -0.15872686169E-01  0.85713246397E-01  0.96254363507E-01  0.13739145762E+00  0.44864321655E-01 0.  0.
         14    1    1    2    0    0 -0.16521209019E-01 -0.30055914016E-02 -0.40504315343E-02  0.17273966619E-01  0.00000000000E+00 0. -1.
     999901    1    3    3    0    0  0.32393895189E-01 -0.82707654996E-01 -0.92203931972E-01  0.88926457577E+00  0.88000000000E+00 0.  1.
        -11    1    4    4    0    0 -0.11092597417E-02  0.17850209130E-01  0.52112956144E-01  0.55098836124E-01  0.51100000000E-03 0.  1.
         11    1    4    4    0    0 -0.14763426428E-01  0.67863037267E-01  0.44141407362E-01  0.82292621492E-01  0.51100000000E-03 0. -1.
</event>
<event>
 8    1  0.1993226E+004  0.1043930E+01  0.7957747E-01            NaN
         13   -1    0    0    0    0  0.00000000000E+00  0.00000000000E+00  0.74505805969E-08  0.10566000000E+00  0.10566000000E+00 0.  1.
     999900   -1    0    0    0    0 -0.00000000000E+00 -0.00000000000E+00 -0.74505805969E-08  0.93827000000E+00  0.93827000000E+00 0.  1.
     999902    2    1    2    0    0  0.76242170921E-02 -0.19010532429E-03 -0.11374955902E-01  0.10302349480E+01  0.10301439189E+01 0.  0.
     999903    2    3    3    0    0 -0.84599557058E-01 -0.19179087367E-01 -0.10131381742E+00  0.14065369556E+00  0.44654787297E-01 0.  0.
         14    1    1    2    0    0 -0.76242170921E-02  0.19010532429E-03  0.11374955902E-01  0.13695051956E-01  0.00000000000E+00 0.  1.
     999901    1    3    3    0    0  0.92223774150E-01  0.18988982042E-01  0.89938861516E-01  0.88958125248E+00  0.88000000000E+00 0. -1.
        -11    1    4    4    0    0 -0.24287553596E-01  0.70950640941E-02 -0.53944186277E-01  0.59585749540E-01  0.51100000000E-03 0. -1.
         11    1    4    4    0    0 -0.60312003462E-01 -0.26274151461E-01 -0.47369631142E-01  0.81067946021E-01  0.51100000000E-03 0.  1.
</event>
<event>
 8    1  0.1993226E+004  0.1043930E+01  0.7957747E-01            NaN
         13   -1    0    0    0    0  0.00000000000E+00  0.00000000000E+00  0.74505805969E-08  0.10566000000E+00  0.10566000000E+00 0.  1.
     999900   -1    0    0    0    0 -0.00000000000E+00 -0.00000000000E+00 -0.74505805969E-08  0.93827000000E+00  0.93827000000E+00 0. -1.
     999902    2    1    2    0    0  0.20252030327E-04 -0.26987151731E-02 -0.12349931636E-01  0.10312886280E+01  0.10312111472E+01 0.  0.
     999903    2    3    3    0    0  0.78146028598E-02 -0.91354767957E-01 -0.96581935320E-01  0.14279795389E+00  0.51540506000E-01 0.  0.
         14    1    1    2    0    0 -0.20252030327E-04  0.26987151731E-02  0.12349931636E-01  0.12641371964E-01  0.00000000000E+00 0.  1.
     999901    1    3    3    0    0 -0.77943508294E-02  0.88656052783E-01  0.84232003684E-01  0.88849067415E+00  0.88000000000E+00 0.  1.
        -11    1    4    4    0    0 -0.19511522638E-02 -0.49567738540E-01 -0.84881866009E-01  0.98315614209E-01  0.51100000000E-03 0. -1.
         11    1    4    4    0    0  0.97657551235E-02 -0.41787029416E-01 -0.11700069311E-01  0.44482339681E-01  0.51100000000E-03 0.  1.
</event>
<event>
 8    1  0.1993226E+004  0.1043930E+01  0.7957747E-01            NaN
         13   -1    0    0    0    0  0.00000000000E+00  0.00000000000E+00  0.74505805969E-08  0.10566000000E+00  0.10566000000E+00 0.  1.
     999900   -1    0    0    0    0 -0.00000000000E+00 -0.00000000000E+00 -0.74505805969E-08  0.93827000000E+00  0.93827000000E+00 0. -1.
     999902    2    1    2    0    0 -0.13369958776E-01  0.22625298416E-02 -0.58752198726E-03  0.10303572324E+01  0.10302678323E+01 0.  0.
     999903    2    3    3    0    0  0.93670072955E-01  0.89201598317E-01 -0.20608520072E-01  0.13939325421E+00  0.47694449466E-01 0.  0.
         14    1    1    2    0    0  0.13369958776E-01 -0.22625298416E-02  0.58752198726E-03  0.13572767627E-01  0.00000000000E+00 0. -1.
     999901    1    3    3    0    0 -0.10704003173E+00 -0.86939068476E-01  0.20020998085E-01  0.89096397816E+00  0.88000000000E+00 0. -1.
        -11    1    4    4    0    0  0.67210054294E-01  0.88496249602E-01 -0.13237201112E-01  0.11191185016E+00  0.51100000000E-03 0.  1.
         11    1    4    4    0    0  0.26460018661E-01  0.70534871502E-03 -0.73713189602E-02  0.27481404050E-01  0.51100000000E-03 0. -1.
</event>
<event>
 8    1  0.1993226E+004  0.1043930E+01  0.7957747E-01            NaN
         13   -1    0    0    0    0  0.00000000000E+00  0.00000000000E+00  0.74505805969E-08  0.10566000000E+00  0.10566000000E+00 0. -1.
     999900   -1    0    0    0    0 -0.00000000000E+00 -0.00000000000E+00 -0.74505805969E-08  0.93827000000E+00  0.93827000000E+00 0. -1.
     999902    2    1    2    0    0  0.12115524666E-01 -0.62031641538E-02 -0.55471861833E-02  0.10292318213E+01  0.10291268656E+01 0.  0.
     999903    2    3    3    0    0 -0.44275394610E-01 -0.44250734263E-01  0.11515020552E+00  0.13839209734E+00  0.44433824091E-01 0.  0.
         14    1    1    2    0    0 -0.12115524666E-01  0.62031641538E-02  0.55471861833E-02  0.14698178731E-01  0.00000000000E+00 0. -1.
     999901    1    3    3    0    0  0.56390919276E-01  0.38047570110E-01 -0.12069739171E+00  0.89083972393E+00  0.88000000000E+00 0. -1.
        -11    1    4    4    0    0 -0.53194797120E-01 -0.36492176206E-01  0.91602225009E-01  0.11203836000E+00  0.51100000000E-03 0. -1.
         11    1    4    4    0    0  0.89194025093E-02 -0.77585580576E-02  0.23547980513E-01  0.26353737334E-01  0.51100000000E-03 0.  1.
</event>
<event>
 8    1  0.1993226E+004  0.1043930E+01  0.7957747E-01            NaN
         13   -1    0    0    0    0  0.00000000000E+00  0.00000000000E+00  0.74505805969E-08  0.10566000000E+00  0.10566000000E+00 0. -1.
     999900   -1    0    0    0    0 -0.00000000000E+00 -0.00000000000E+00 -0.74505805969E-08  0.93827000000E+00  0.93827000000E+00 0. -1.
     999902    2    1    2    0    0 -0.10564624672E-01 -0.36804445763E-03  0.47742785990E-02  0.10323308411E+01  0.10322656756E+01 0.  0.
     999903    2    3    3    0    0 -0.77724705646E-01 -0.10475113504E+00 -0.36166427552E-01  0.14267784835E+00  0.45111282046E-01 0.  0.
         14    1    1    2    0    0  0.10564624672E-01  0.36804445763E-03 -0.47742785990E-02  0.11599158906E-01  0.00000000000E+00 0.  1.
     999901    1    3    3    0    0  0.67160080974E-01  0.10438309058E+00  0.40940706151E-01  0.88965299274E+00  0.88000000000E+00 0.  1.
        -11    1    4    4    0    0 -0.58605469125E-02 -0.17702162122E-01 -0.22104622094E-01  0.28923830881E-01  0.51100000000E-03 0. -1.
         11    1    4    4    0    0 -0.71864158734E-01 -0.87048972919E-01 -0.14061805458E-01  0.11375401747E+00  0.51100000000E-03 0.  1.
</event>
<event>
 8    1  0.1993226E+004  0.1043930E+01  0.7957747E-01            NaN
         13   -1    0    0    0    0  0.00000000000E+00  0.00000000000E+00  0.74505805969E-08  0.10566000000E+00  0.10566000000E+00 0.  1.
     999900   -1    0    0    0    0 -0.00000000000E+00 -0.00000000000E+00 -0.74505805969E-08  0.93827000000E+00  0.93827000000E+00 0. -1.
     999902    2    1    2    0    0  0.65083302998E-02 -0.92511957110E-02  0.78522136150E-02  0.10301604596E+01  0.10300684308E+01 0.  0.
     999903    2    3    3    0    0 -0.19795609447E-01 -0.11227104736E+00 -0.68957595879E-01  0.14043874244E+00  0.44398604934E-01 0.  0.
         14    1    1    2    0    0 -0.65083302998E-02  0.92511957110E-02 -0.78522136150E-02  0.13769540444E-01  0.00000000000E+00 0.  1.
     999901    1    3    3    0    0  0.26303939747E-01  0.10301985165E+00  0.76809809494E-01  0.88972171712E+00  0.88000000000E+00 0.  1.
        -11    1    4    4    0    0  0.91296444684E-02 -0.56682636340E-01 -0.46454744275E-01  0.73855101768E-01  0.51100000000E-03 0.  1.
         11    1    4    4    0    0 -0.28925253916E-01 -0.55588411016E-01 -0.22502851604E-01  0.66583640669E-01  0.51100000000E-03 0. -1.
</event>
<event>
 8    1  0.1993226E+004  0.1043930E+01  0.7957747E-01            NaN
         13   -1    0    0    0    0  0.00000000000E+00  0.00000000000E+00  0.74505805969E-08  0.10566000000E+00  0.10566000000E+00 0. -1.
     999900   -1    0    0    0    0 -0.00000000000E+00 -0.00000000000E+00 -0.74505805969E-08  0.93827000000E+00  0.93827000000E+00 0. -1.
     999902    2    1    2    0    0 -0.12265223532E-01 -0.11320176160E-01  0.74951974100E-03  0.10272224006E+01  0.10270865185E+01 0.  0.
     999903    2    3    3    0    0 -0.10205016854E+00 -0.27811492554E-01 -0.80427861229E-01  0.13878384505E+00  0.40057443357E-01 0.  0.
         14    1    1    2    0    0  0.12265223532E-01  0.11320176160E-01 -0.74951974100E-03  0.16707599362E-01  0.00000000000E+00 0.  1.
     999901    1    3    3    0    0  0.89784945011E-01  0.16491316394E-01  0.81177380970E-01  0.88843855558E+00  0.88000000000E+00 0.  1.
        -11    1    4    4    0    0 -0.80542901823E-01 -0.32304813965E-01 -0.46759532126E-01  0.98577253994E-01  0.51100000000E-03 0.  1.
         11    1    4    4    0    0 -0.21507266720E-01  0.44933214113E-02 -0.33668329103E-01  0.40206591060E-01  0.51100000000E-03 0. -1.
</event>
<event>
 8    1  0.1993226E+004  0.1043930E+01  0.7957747E-01            NaN
         13   -1    0    0    0    0  0.00000000000E+00  0.00000000000E+00  0.74505805969E-08  0.10566000000E+00  0.10566000000E+00 0. -1.
     999900   -1    0    0    0    0 -0.00000000000E+00 -0.00000000000E+00 -0.74505805969E-08  0.93827000000E+00  0.93827000000E+00 0. -1.
     999902    2    1    2    0    0 -0.12126192148E-01  0.44251129949E-02 -0.47681092112E-02  0.10301691488E+01  0.10300772369E+01 0.  0.
     999903    2    3    3    0    0 -0.33726076186E-01 -0.11213842884E+00 -0.62810389834E-01  0.14032504972E+00  0.45094335238E-01 0.  0.
         14    1    1    2    0    0  0.12126192148E-01 -0.44251129949E-02  0.47681092112E-02  0.13760851226E-01  0.00000000000E+00 0. -1.
     999901    1    3    3    0    0  0.21599884039E-01  0.11656354184E+00  0.58042280623E-01  0.88984409905E+00  0.88000000000E+00 0.  1.
        -11    1    4    4    0    0 -0.85377004183E-02 -0.70182058580E-01 -0.57437089534E-01  0.91091679368E-01  0.51100000000E-03 0.  1.
         11    1    4    4    0    0 -0.25188375768E-01 -0.41956370262E-01 -0.53733003004E-02  0.49233370355E-01  0.51100000000E-03 0. -1.
</event>
<event>
 8    1  0.1993226E+004  0.1043930E+01  0.7957747E-01            NaN
         13   -1    0    0    0    0  0.00000000000E+00  0.00000000000E+00  0.74505805969E-08  0.10566000000E+00  0.10566000000E+00 0.  1.
     999900   -1    0    0    0    0 -0.00000000000E+00 -0.00000000000E+00 -0.74505805969E-08  0.93827000000E+00  0.93827000000E+00 0.  1.
     999902    2    1    2    0    0 -0.76990715468E-03  0.12220887861E-01  0.80632952533E-02  0.10292684998E+01  0.10291640710E+01 0.  0.
     999903    2    3    3    0    0  0.16376323199E-01  0.78199320307E-01  0.10730554507E+00  0.14107022752E+00  0.44755015729E-01 0.  0.
         14    1    1    2    0    0  0.76990715468E-03 -0.12220887861E-01 -0.80632952533E-02  0.14661500178E-01  0.00000000000E+00 0. -1.
     999901    1    3    3    0    0 -0.17146230354E-01 -0.65978432446E-01 -0.99242249817E-01  0.88819827230E+00  0.88000000000E+00 0.  1.
        -11    1    4    4    0    0 -0.10915356442E-01  0.46960247518E-01  0.43344235654E-01  0.64833584959E-01  0.51100000000E-03 0.  1.
         11    1    4    4    0    0  0.27291679641E-01  0.31239072789E-01  0.63961309417E-01  0.76236642566E-01  0.51100000000E-03 0. -1.
</event>
<event>
 8    1  0.1993226E+004  0.1043930E+01  0.7957747E-01            NaN
         13   -1    0    0    0    0  0.00000000000E+00  0.00000000000E+00  0.74505805969E-08  0.10566000000E+00  0.10566000000E+00 0. -1.
     999900   -1    0    0    0    0 -0.00000000000E+00 -0.00000000000E+00 -0.74505805969E-08  0.93827000000E+00  0.93827000000E+00 0.  1.
     999902    2    1    2    0    0 -0.94717870085E-02 -0.42661480222E-02 -0.87753113490E-02  0.10303314391E+01  0.10302416967E+01 0.  0.
     999903    2    3    3    0    0  0.60138121650E-01 -0.78470610881E-01 -0.89512302374E-01  0.14079768295E+00  0.45136512932E-01 0.  0.
         14    1    1    2    0    0  0.94717870085E-02  0.42661480222E-02  0.87753113490E-02  0.13598560856E-01  0.00000000000E+00 0. -1.
     999901    1    3    3    0    0 -0.69609908658E-01  0.74204462859E-01  0.80736991025E-01  0.88953375620E+00  0.88000000000E+00 0. -1.
        -11    1    4    4    0    0  0.99009883172E-02 -0.23931805353E-01 -0.18362322634E-02  0.25969092149E-01  0.51100000000E-03 0.  1.
         11    1    4    4    0    0  0.50237133333E-01 -0.54538805528E-01 -0.87676070111E-01  0.11482859080E+00  0.51100000000E-03 0. -1.
</event>
<event>
 8    1  0.1993226E+004  0.1043930E+01  0.7957747E-01            NaN
         13   -1    0    0    0    0  0.00000000000E+00  0.00000000000E+00  0.74505805969E-08  0.10566000000E+00  0.10566000000E+00 0. -1.
     999900   -1    0    0    0    0 -0.00000000000E+00 -0.00000000000E+00 -0.74505805969E-08  0.93827000000E+00  0.93827000000E+00 0. -1.
     999902    2    1    2    0    0 -0.61575107255E-02  0.71733990184E-02  0.10768503453E-01  0.10296005458E+01  0.10295008259E+01 0.  0.
     999903    2    3    3    0    0 -0.12267814495E+00  0.36193889101E-01 -0.25930786667E-01  0.14068767887E+00  0.52542291844E-01 0.  0.
         14    1    1    2    0    0  0.61575107255E-02 -0.71733990184E-02 -0.10768503453E-01  0.14329454227E-01  0.00000000000E+00 0.  1.
     999901    1    3    3    0    0  0.11652063423E+00 -0.29020490083E-01  0.36699290121E-01  0.88891286690E+00  0.88000000000E+00 0.  1.
        -11    1    4    4    0    0 -0.16366334811E-01  0.17465882948E-01 -0.22236157535E-01  0.32674482478E-01  0.51100000000E-03 0. -1.
         11    1    4    4    0    0 -0.10631181014E+00  0.18728006154E-01 -0.36946291323E-02  0.10801319639E+00  0.51100000000E-03 0.  1.
</event>
<event>
 8    1  0.1993226E+004  0.1043930E+01  0.7957747E-01            NaN
         13   -1    0    0    0    0  0.00000000000E+00  0.00000000000E+00  0.74505805969E-08  0.10566000000E+00  0.10566000000E+00 0. -1.
     999900   -1    0    0    0    0 -0.00000000000E+00 -0.00000000000E+00 -0.74505805969E-08  0.93827000000E+00  0.93827000000E+00 0. -1.
     999902    2    1    2    0    0 -0.12233235211E-01  0.20222919943E-02 -0.46398482332E-02  0.10306910461E+01  0.10306060172E+01 0.  0.
     999903    2    3    3    0    0  0.49362274291E-01 -0.44753614655E-01  0.11339806775E+00  0.13944756543E+00  0.46335532677E-01 0.  0.
         14    1    1    2    0    0  0.12233235211E-01 -0.20222919943E-02  0.46398482332E-02  0.13238953896E-01  0.00000000000E+00 0. -1.
     999901    1    3    3    0    0 -0.61595509502E-01  0.46775906649E-01 -0.11803791598E+00  0.89124348067E+00  0.88000000000E+00 0. -1.
        -11    1    4    4    0    0 -0.59615032679E-02 -0.14736271847E-01  0.38223690889E-01  0.41400590519E-01  0.51100000000E-03 0.  1.
         11    1    4    4    0    0  0.55323777559E-01 -0.30017342808E-01  0.75174376857E-01  0.98046974912E-01  0.51100000000E-03 0. -1.
</event>
<event>
 8    1  0.1993226E+004  0.1043930E+01  0.7957747E-01            NaN
         13   -1    0    0    0    0  0.00000000000E+00  0.00000000000E+00  0.74505805969E-08  0.10566000000E+00  0.10566000000E+00 0.  1.
     999900   -1    0    0    0    0 -0.00000000000E+00 -0.00000000000E+00 -0.74505805969E-08  0.93827000000E+00  0.93827000000E+00 0.  1.
     999902    2    1    2    0    0 -0.30840173373E-02  0.71160565752E-02 -0.12621713216E-01  0.10291159165E+01  0.10290092869E+01 0.  0.
     999903    2    3    3    0    0  0.11151064959E-01 -0.70958360930E-01  0.10795965367E+00  0.13735467144E+00  0.45294411449E-01 0.  0.
         14    1    1    2    0    0  0.30840173373E-02 -0.71160565752E-02  0.12621713216E-01  0.14814083456E-01  0.00000000000E+00 0.  1.
     999901    1    3    3    0    0 -0.14235082296E-01  0.78074417505E-01 -0.12058136689E+00  0.89176124511E+00  0.88000000000E+00 0.  1.
        -11    1    4    4    0    0  0.11882358637E-01 -0.36058021983E-01  0.20423048392E-01  0.43113030776E-01  0.51100000000E-03 0.  1.
         11    1    4    4    0    0 -0.73129367846E-03 -0.34900338947E-01  0.87536605281E-01  0.94241640660E-01  0.51100000000E-03 0. -1.
</event>
<event>
 8    1  0.1993226E+004  0.1043930E+01  0.7957747E-01            NaN
         13   -1    0    0    0    0  0.00000000000E+00  0.00000000000E+00  0.74505805969E-08  0.10566000000E+00  0.10566000000E+00 0.  1.
     999900   -1    0    0    0    0 -0.00000000000E+00 -0.00000000000E+00 -0.74505805969E-08  0.93827000000E+00  0.93827000000E+00 0.  1.
     999902    2    1    2    0    0  0.29988278658E-02  0.80424281622E-03 -0.13733201302E-01  0.10298502062E+01  0.10297539544E+01 0.  0.
     999903    2    3    3    0    0 -0.72763473740E-01 -0.81549548654E-01  0.70839410097E-01  0.13874157091E+00  0.47813695519E-01 0.  0.
         14    1    1    2    0    0 -0.29988278658E-02 -0.80424281622E-03  0.13733201302E-01  0.14079793787E-01  0.00000000000E+00 0.  1.
     999901    1    3    3    0    0  0.75762301606E-01  0.82353791471E-01 -0.84572611399E-01  0.89110863530E+00  0.88000000000E+00 0.  1.
        -11    1    4    4    0    0 -0.54675416998E-01 -0.32077388883E-01  0.22562381422E-01  0.67288054497E-01  0.51100000000E-03 0. -1.
         11    1    4    4    0    0 -0.18088056741E-01 -0.49472159771E-01  0.48277028674E-01  0.71453516413E-01  0.51100000000E-03 0.  1.
</event>
<event>
 8    1  0.1993226E+004  0.1043930E+01  0.7957747E-01            NaN
         13   -1    0    0    0    0  0.00000000000E+00  0.00000000000E+00  0.74505805969E-08  0.10566000000E+00  0.10566000000E+00 0. -1.
     999900   -1    0    0    0    0 -0.00000000000E+00 -0.00000000000E+00 -0.74505805969E-08  0.93827000000E+00  0.93827000000E+00 0.  1.
     999902    2    1    2    0    0 -0.11095596165E-01 -0.79037003999E-03 -0.92397439776E-02  0.10294693704E+01  0.10293678035E+01 0.  0.
     999903    2    3    3    0    0  0.98457720798E-01  0.28551058273E-01  0.79928694015E-01  0.13772172730E+00  0.45492772293E-01 0.  0.
         14    1    1    2    0    0  0.11095596165E-01  0.79037003999E-03  0.92397439776E-02  0.14460629580E-01  0.00000000000E+00 0. -1.
     999901    1    3    3    0    0 -0.10955331696E+00 -0.29341428313E-01 -0.89168437992E-01  0.89174764312E+00  0.88000000000E+00 0.  1.
        -11    1    4    4    0    0  0.71720680803E-01  0.33769066220E-01  0.76663776814E-01  0.11028055896E+00  0.51100000000E-03 0.  1.
         11    1    4    4    0    0  0.26737039995E-01 -0.52180079474E-02  0.32649172011E-02  0.27441168342E-01  0.51100000000E-03 0. -1.
</event>
<event>
 8    1  0.1993226E+004  0.1043930E+01  0.7957747E-01            NaN
         13   -1    0    0    0    0  0.00000000000E+00  0.00000000000E+00  0.74505805969E-08  0.10566000000E+00  0.10566000000E+00 0. -1.
     999900   -1    0    0    0    0 -0.00000000000E+00 -0.00000000000E+00 -0.74505805969E-08  0.93827000000E+00  0.93827000000E+00 0.  1.
     999902    2    1    2    0    0 -0.87232619446E-02 -0.98039168698E-02  0.33611187759E-02  0.10303834431E+01  0.10302943902E+01 0.  0.
     999903    2    3    3    0    0 -0.23763470729E-01  0.50616987134E-01  0.12064953296E+00  0.14042082273E+00  0.45110040181E-01 0.  0.
         14    1    1    2    0    0  0.87232619446E-02  0.98039168698E-02 -0.33611187759E-02  0.13546556919E-01  0.00000000000E+00 0. -1.
     999901    1    3    3    0    0  0.15040208784E-01 -0.60420904004E-01 -0.11728841418E+00  0.88996262035E+00  0.88000000000E+00 0.  1.
        -11    1    4    4    0    0 -0.73915322752E-02  0.46592207568E-01  0.54165651637E-01  0.71830686296E-01  0.51100000000E-03 0. -1.
         11    1    4    4    0    0 -0.16371938454E-01  0.40247795654E-02  0.66483881322E-01  0.68590136434E-01  0.51100000000E-03 0.  1.
</event>
<event>
 8    1  0.2008420E+004  0.1043930E+01  0.7957747E-01            NaN
         13   -1    0    0    0    0  0.00000000000E+00  0.00000000000E+00  0.74505805969E-08  0.10566000000E+00  0.10566000000E+00 0.  1.
     999900   -1    0    0    0    0 -0.00000000000E+00 -0.00000000000E+00 -0.74505805969E-08  0.93827000000E+00  0.93827000000E+00 0.  1.
     999902    2    1    2    0    0  0.13299955586E-02 -0.71185635088E-02  0.12049639919E-01  0.10298716695E+01  0.10297757129E+01 0.  0.
     999903    2    3    3    0    0 -0.10040005512E+00  0.80952217498E-01 -0.26737723973E-01  0.13879932379E+00  0.43782574331E-01 0.  0.
         14    1    1    2    0    0 -0.13299955586E-02  0.71185635088E-02 -0.12049639919E-01  0.14058330513E-01  0.00000000000E+00 0. -1.
     999901    1    3    3    0    0  0.10173005067E+00 -0.88070781006E-01  0.38787363892E-01  0.89107234570E+00  0.88000000000E+00 0.  1.
        -11    1    4    4    0    0 -0.47764682081E-01  0.54909374849E-01  0.32635157912E-02  0.72852014090E-01  0.51100000000E-03 0. -1.
         11    1    4    4    0    0 -0.52635373035E-01  0.26042842648E-01 -0.30001239764E-01  0.65947309696E-01  0.51100000000E-03 0.  1.
</event>
<event>
 8    1  0.1993226E+004  0.1043930E+01  0.7957747E-01            NaN
         13   -1    0    0    0    0  0.00000000000E+00  0.00000000000E+00  0.74505805969E-08  0.10566000000E+00  0.10566000000E+00 0. -1.
     999900   -1    0    0    0    0 -0.00000000000E+00 -0.00000000000E+00 -0.74505805969E-08  0.93827000000E+00  0.93827000000E+00 0.  1.
     999902    2    1    2    0    0 -0.45853054519E-02  0.11444051199E-01  0.80123226315E-02  0.10292266450E+01  0.10291216149E+01 0.  0.
     999903    2    3    3    0    0 -0.25528812139E-02  0.34343076770E-01  0.12872317959E+00  0.14068874086E+00  0.45140898496E-01 0.  0.
         14    1    1    2    0    0  0.45853054519E-02 -0.11444051199E-01 -0.80123226315E-02  0.14703354988E-01  0.00000000000E+00 0.  1.
     999901    1    3    3    0    0 -0.20324242381E-02 -0.22899025570E-01 -0.12071085696E+00  0.88853790415E+00  0.88000000000E+00 0.  1.
        -11    1    4    4    0    0 -0.97336681357E-02  0.10143946396E-01  0.10534443507E+00  0.10627960795E+00  0.51100000000E-03 0. -1.
         11    1    4    4    0    0  0.71807869218E-02  0.24199130374E-01  0.23378744519E-01  0.34409132915E-01  0.51100000000E-03 0.  1.
</event>
<event>
 8    1  0.1993226E+004  0.1043930E+01  0.7957747E-01            NaN
         13   -1    0    0    0    0  0.00000000000E+00  0.00000000000E+00  0.74505805969E-08  0.10566000000E+00  0.10566000000E+00 0.  1.
     999900   -1    0    0    0    0 -0.00000000000E+00 -0.00000000000E+00 -0.74505805969E-08  0.93827000000E+00  0.93827000000E+00 0. -1.
     999902    2    1    2    0    0  0.48516532909E-02 -0.98301281605E-02  0.78173594357E-02  0.10304659342E+01  0.10303779697E+01 0.  0.
     999903    2    3    3    0    0  0.12541141704E+00  0.32654862695E-01 -0.28664559057E-01  0.14048247286E+00  0.46035906126E-01 0.  0.
         14    1    1    2    0    0 -0.48516532909E-02  0.98301281605E-02 -0.78173594357E-02  0.13464065799E-01  0.00000000000E+00 0. -1.
     999901    1    3    3    0    0 -0.12055976375E+00 -0.42484990855E-01  0.36481918493E-01  0.88998346134E+00  0.88000000000E+00 0.  1.
        -11    1    4    4    0    0  0.69755088993E-01  0.41412254778E-01 -0.14870392349E-01  0.82475068814E-01  0.51100000000E-03 0. -1.
         11    1    4    4    0    0  0.55656328049E-01 -0.87573920833E-02 -0.13794166709E-01  0.58007404046E-01  0.51100000000E-03 0.  1.
</event>
<event>
 8    1  0.1993226E+004  0.1043930E+01  0.7957747E-01            NaN
         13   -1    0    0    0    0  0.00000000000E+00  0.00000000000E+00  0.74505805969E-08  0.10566000000E+00  0.10566000000E+00 0. -1.
     999900   -1    0    0    0    0 -0.00000000000E+00 -0.00000000000E+00 -0.74505805969E-08  0.93827000000E+00  0.93827000000E+00 0. -1.
     999902    2    1    2    0    0 -0.10604572945E-01  0.56778938399E-02  0.66287482293E-02  0.10301955270E+01  0.10301039695E+01 0.  0.
     999903    2    3    3    0    0  0.60774795494E-01  0.22543350551E-02 -0.11633882032E+00  0.13877656942E+00  0.45006191948E-01 0.  0.
         14    1    1    2    0    0  0.10604572945E-01 -0.56778938399E-02 -0.66287482293E-02  0.13734473011E-01  0.00000000000E+00 0.  1.
     999901    1    3    3    0    0 -0.71379368439E-01  0.34235587848E-02  0.12296756855E+00  0.89141895757E+00  0.88000000000E+00 0.  1.
        -11    1    4    4    0    0  0.45515286356E-01  0.15344686600E-01 -0.10552203184E+00  0.11594076515E+00  0.51100000000E-03 0. -1.
         11    1    4    4    0    0  0.15259509138E-01 -0.13090351545E-01 -0.10816788475E-01  0.22835804269E-01  0.51100000000E-03 0.  1.
</event>
<event>
 8    1  0.1993226E+004  0.1043930E+01  0.7957747E-01            NaN
         13   -1    0    0    0    0  0.00000000000E+00  0.00000000000E+00  0.74505805969E-08  0.10566000000E+00  0.10566000000E+00 0.  1.
     999900   -1    0    0    0    0 -0.00000000000E+00 -0.00000000000E+00 -0.74505805969E-08  0.93827000000E+00  0.93827000000E+00 0.  1.
     999902    2    1    2    0    0 -0.48124124213E-02  0.11897548792E-01  0.57930012505E-02  0.10298491675E+01  0.10297529014E+01 0.  0.
     999903    2    3    3    0    0 -0.20495397533E-01  0.11561939098E+00 -0.63069704924E-01  0.14094745815E+00  0.45831139955E-01 0.  0.
         14    1    1    2    0    0  0.48124124213E-02 -0.11897548792E-01 -0.57930012505E-02  0.14080832506E-01  0.00000000000E+00 0.  1.
     999901    1    3    3    0    0  0.15682985111E-01 -0.10372184219E+00  0.68862706175E-01  0.88890170934E+00  0.88000000000E+00 0. -1.
        -11    1    4    4    0    0 -0.20252421136E-01  0.42319431848E-01 -0.45265637319E-02  0.47136459074E-01  0.51100000000E-03 0.  1.
         11    1    4    4    0    0 -0.24297639614E-03  0.73299959133E-01 -0.58543141192E-01  0.93810999078E-01  0.51100000000E-03 0. -1.
</event>
<event>
 8    1  0.1993226E+004  0.1043930E+01  0.7957747E-01            NaN
         13   -1    0    0    0    0  0.00000000000E+00  0.00000000000E+00  0.74505805969E-08  0.10566000000E+00  0.10566000000E+00 0. -1.
     999900   -1    0    0    0    0 -0.00000000000E+00 -0.00000000000E+00 -0.74505805969E-08  0.93827000000E+00  0.93827000000E+00 0.  1.
     999902    2    1    2    0    0 -0.12703349841E-02 -0.69936259601E-02  0.12328056356E-01  0.10296995563E+01  0.10296012192E+01 0.  0.
     999903    2    3    3    0    0  0.11651995934E-01 -0.10857922059E+00  0.71817000627E-01  0.14176625126E+00  0.54906941856E-01 0.  0.
         14    1    1    2    0    0  0.12703349841E-02  0.69936259601E-02 -0.12328056356E-01  0.14230443723E-01  0.00000000000E+00 0.  1.
     999901    1    3    3    0    0 -0.12922330918E-01  0.10158559463E+00 -0.59488944270E-01  0.88793330502E+00  0.88000000000E+00 0.  1.
        -11    1    4    4    0    0  0.23017846587E-02  0.60111167064E-02  0.79636305724E-02  0.10252427496E-01  0.51100000000E-03 0. -1.
         11    1    4    4    0    0  0.93502112754E-02 -0.11459033729E+00  0.63853370054E-01  0.13151382376E+00  0.51100000000E-03 0.  1.
</event>
<event>
 8    1  0.1993226E+004  0.1043930E+01  0.7957747E-01            NaN
         13   -1    0    0    0    0  0.00000000000E+00  0.00000000000E+00  0.74505805969E-08  0.10566000000E+00  0.10566000000E+00 0.  1.
     999900   -1    0    0    0    0 -0.00000000000E+00 -0.00000000000E+00 -0.74505805969E-08  0.93827000000E+00  0.93827000000E+00 0.  1.
     999902    2    1    2    0    0 -0.10351312738E-01 -0.80619048775E-02  0.43833077860E-02  0.10300968018E+01  0.10300039144E+01 0.  0.
     999903    2    3    3    0    0 -0.12912816037E+00  0.28079172173E-01  0.21119098358E-01  0.14122436793E+00  0.45119663920E-01 0.  0.
         14    1    1    2    0    0  0.10351312738E-01  0.80619048775E-02 -0.43833077860E-02  0.13833198213E-01  0.00000000000E+00 0.  1.
     999901    1    3    3    0    0  0.11877684763E+00 -0.36141077051E-01 -0.16735790572E-01  0.88887243386E+00  0.88000000000E+00 0. -1.
        -11    1    4    4    0    0 -0.81691192690E-01  0.85709335079E-02  0.33083400481E-01  0.88553285499E-01  0.51100000000E-03 0.  1.
         11    1    4    4    0    0 -0.47436967677E-01  0.19508238666E-01 -0.11964302123E-01  0.52671082431E-01  0.51100000000E-03 0. -1.
</event>
<event>
 8    1  0.1993226E+004  0.1043930E+01  0.7957747E-01            NaN
         13   -1    0    0    0    0  0.00000000000E+00  0.00000000000E+00  0.74505805969E-08  0.10566000000E+00  0.10566000000E+00 0.  1.
     999900   -1    0    0    0    0 -0.00000000000E+00 -0.00000000000E+00 -0.74505805969E-08  0.93827000000E+00  0.93827000000E+00 0. -1.
     999902    2    1    2    0    0 -0.33285613013E-02  0.29730691558E-02 -0.12852601032E-01  0.10303245668E+01  0.10302347330E+01 0.  0.
     999903    2    3    3    0    0 -0.97061603595E-02  0.99585208538E-01 -0.87425047092E-01  0.14187894154E+00  0.49750094327E-01 0.  0.
         14    1    1    2    0    0  0.33285613013E-02 -0.29730691558E-02  0.12852601032E-01  0.13605433247E-01  0.00000000000E+00 0.  1.
     999901    1    3    3    0    0  0.63775990581E-02 -0.96612139382E-01  0.74572446059E-01  0.88844562521E+00  0.88000000000E+00 0.  1.
        -11    1    4    4    0    0  0.52604700714E-02  0.73496425453E-01 -0.83785763601E-01  0.11157827926E+00  0.51100000000E-03 0. -1.
         11    1    4    4    0    0 -0.14966630431E-01  0.26088783085E-01 -0.36392834911E-02  0.30300662280E-01  0.51100000000E-03 0.  1.
</event>
<event>
 8    1  0.1993226E+004  0.1043930E+01  0.7957747E-01            NaN
         13   -1    0    0    0    0  0.00000000000E+00  0.00000000000E+00  0.74505805969E-08  0.10566000000E+00  0.10566000000E+00 0.  1.
     999900   -1    0    0    0    0 -0.00000000000E+00 -0.00000000000E+00 -0.74505805969E-08  0.93827000000E+00  0.93827000000E+00 0. -1.
     999902    2    1    2    0    0 -0.12334262812E-01  0.51766538670E-02  0.61586912501E-02  0.10292037900E+01  0.10290984307E+01 0.  0.
     999903    2    3    3    0    0  0.11677451370E+00  0.43294767655E-01  0.40076963953E-01  0.13832079203E+00  0.44897154826E-01 0.  0.
         14    1    1    2    0    0  0.12334262812E-01 -0.51766538670E-02 -0.61586912501E-02  0.14726210045E-01  0.00000000000E+00 0.  1.
     999901    1    3    3    0    0 -0.12910877651E+00 -0.38118113788E-01 -0.33918272703E-01  0.89088299793E+00  0.88000000000E+00 0. -1.
        -11    1    4    4    0    0  0.78924553725E-01  0.41261050132E-01  0.45527634624E-01  0.10002292774E+00  0.51100000000E-03 0.  1.
         11    1    4    4    0    0  0.37849959976E-01  0.20337175237E-02 -0.54506706716E-02  0.38297864287E-01  0.51100000000E-03 0. -1.
</event>
<event>
 8    1  0.1993226E+004  0.1043930E+01  0.7957747E-01            NaN
         13   -1    0    0    0    0  0.00000000000E+00  0.00000000000E+00  0.74505805969E-08  0.10566000000E+00  0.10566000000E+00 0.  1.
     999900   -1    0    0    0    0 -0.00000000000E+00 -0.00000000000E+00 -0.74505805969E-08  0.93827000000E+00  0.93827000000E+00 0.  1.
     999902    2    1    2    0    0  0.46028396240E-02 -0.12278922647E-01 -0.19267923701E-01  0.10206231135E+01  0.10203569615E+01 0.  0.
     999903    2    3    3    0    0 -0.72373205123E-01  0.61979878397E-01 -0.79799668000E-01  0.13208286509E+00  0.44704698769E-01 0.  0.
         14    1    1    2    0    0 -0.46028396240E-02  0.12278922647E-01  0.19267923701E-01  0.23306886487E-01  0.00000000000E+00 0.  1.
     999901    1    3    3    0    0  0.76976044747E-01 -0.74258801045E-01  0.60531744299E-01  0.88854024842E+00  0.88000000000E+00 0. -1.
        -11    1    4    4    0    0 -0.23211835025E-01  0.18273703739E-01 -0.53739930726E-01  0.61326656594E-01  0.51100000000E-03 0. -1.
         11    1    4    4    0    0 -0.49161370098E-01  0.43706174659E-01 -0.26059737274E-01  0.70756208498E-01  0.51100000000E-03 0.  1.
</event>
<event>
 8    1  0.1993226E+004  0.1043930E+01  0.7957747E-01            NaN
         13   -1    0    0    0    0  0.00000000000E+00  0.00000000000E+00  0.74505805969E-08  0.10566000000E+00  0.10566000000E+00 0.  1.
     999900   -1    0    0    0    0 -0.00000000000E+00 -0.00000000000E+00 -0.74505805969E-08  0.93827000000E+00  0.93827000000E+00 0. -1.
     999902    2    1    2    0    0 -0.79829171305E-03  0.91123297306E-02  0.10557041867E-01  0.10299613581E+01  0.10298666303E+01 0.  0.
     999903    2    3    3    0    0  0.12800169854E+00  0.34916847417E-01  0.67395059372E-04  0.14014938736E+00  0.45146707238E-01 0.  0.
         14    1    1    2    0    0  0.79829171305E-03 -0.91123297306E-02 -0.10557041867E-01  0.13968641873E-01  0.00000000000E+00 0. -1.
     999901    1    3    3    0    0 -0.12879999025E+00 -0.25804517687E-01  0.10489646808E-01  0.88981197076E+00  0.88000000000E+00 0. -1.
        -11    1    4    4    0    0  0.51169743076E-01  0.36106117213E-01  0.68822727799E-02  0.63004929222E-01  0.51100000000E-03 0. -1.
         11    1    4    4    0    0  0.76831955462E-01 -0.11892697957E-02 -0.68148777206E-02  0.77144458143E-01  0.51100000000E-03 0.  1.
</event>
<event>
 8    1  0.1993226E+004  0.1043930E+01  0.7957747E-01            NaN
         13   -1    0    0    0    0  0.00000000000E+00  0.00000000000E+00  0.74505805969E-08  0.10566000000E+00  0.10566000000E+00 0. -1.
     999900   -1    0    0    0    0 -0.00000000000E+00 -0.00000000000E+00 -0.74505805969E-08  0.93827000000E+00  0.93827000000E+00 0.  1.
     999902    2    1    2    0    0 -0.68550147731E-02 -0.33857123303E-02 -0.11898248647E-01  0.10297870655E+01  0.10296899425E+01 0.  0.
     999903    2    3    3    0    0 -0.11546146237E+00 -0.52673591994E-01 -0.44101769316E-01  0.14115794022E+00  0.43298284543E-01 0.  0.
         14    1    1    2    0    0  0.68550147731E-02  0.33857123303E-02  0.11898248647E-01  0.14142934504E-01  0.00000000000E+00 0. -1.
     999901    1    3    3    0    0  0.10860644760E+00  0.49287879664E-01  0.32203520669E-01  0.88862912527E+00  0.88000000000E+00 0. -1.
        -11    1    4    4    0    0 -0.94914590887E-01 -0.34216155041E-01 -0.16736042599E-01  0.10227355998E+00  0.51100000000E-03 0.  1.
         11    1    4    4    0    0 -0.20546871484E-01 -0.18457436953E-01 -0.27365726717E-01  0.38884380237E-01  0.51100000000E-03 0. -1.
</event>
<event>
 8    1  0.1993226E+004  0.1043930E+01  0.7957747E-01            NaN
         13   -1    0    0    0    0  0.00000000000E+00  0.00000000000E+00  0.74505805969E-08  0.10566000000E+00  0.10566000000E+00 0. -1.
     999900   -1    0    0    0    0 -0.00000000000E+00 -0.00000000000E+00 -0.74505805969E-08  0.93827000000E+00  0.93827000000E+00 0. -1.
     999902    2    1    2    0    0 -0.60548202226E-03 -0.14188844228E-01 -0.15723327045E-03  0.10297273724E+01  0.10296294221E+01 0.  0.
     999903    2    3    3    0    0 -0.30055000390E-01  0.44699223099E-01 -0.11971386493E+00  0.13920569000E+00  0.46319446008E-01 0.  0.
         14    1    1    2    0    0  0.60548202226E-03  0.14188844228E-01  0.15723327045E-03  0.14202627620E-01  0.00000000000E+00 0. -1.
     999901    1    3    3    0    0  0.29449518367E-01 -0.58888067328E-01  0.11955663166E+00  0.89052168238E+00  0.88000000000E+00 0.  1.
        -11    1    4    4    0    0 -0.37284439554E-01  0.25426942222E-01 -0.54189790676E-01  0.70522715192E-01  0.51100000000E-03 0.  1.
         11    1    4    4    0    0  0.72294391649E-02  0.19272280878E-01 -0.65524074257E-01  0.68682974813E-01  0.51100000000E-03 0. -1.
</event>
<event>
 8    1  0.1993226E+004  0.1043930E+01  0.7957747E-01            NaN
         13   -1    0    0    0    0  0.00000000000E+00  0.00000000000E+00  0.74505805969E-08  0.10566000000E+00  0.10566000000E+00 0. -1.
     999900   -1    0    0    0    0 -0.00000000000E+00 -0.00000000000E+00 -0.74505805969E-08  0.93827000000E+00  0.93827000000E+00 0. -1.
     999902    2    1    2    0    0 -0.10702289110E-01 -0.81631790455E-02 -0.31645712637E-02  0.10301028168E+01  0.10300100107E+01 0.  0.
     999903    2    3    3    0    0  0.99137893932E-01 -0.61868651223E-01 -0.61721407107E-01  0.13972197323E+00  0.45350255680E-01 0.  0.
         14    1    1    2    0    0  0.10702289110E-01  0.81631790455E-02  0.31645712637E-02  0.13827183213E-01  0.00000000000E+00 0. -1.
     999901    1    3    3    0    0 -0.10984018304E+00  0.53705472177E-01  0.58556835844E-01  0.89038084356E+00  0.88000000000E+00 0.  1.
        -11    1    4    4    0    0  0.82970510489E-02 -0.26608883631E-01 -0.12510206368E-01  0.30555525336E-01  0.51100000000E-03 0. -1.
         11    1    4    4    0    0  0.90840842883E-01 -0.35259767592E-01 -0.49211200739E-01  0.10916644789E+00  0.51100000000E-03 0.  1.
</event>
<event>
 8    1  0.1993226E+004  0.1043930E+01  0.7957747E-01            NaN
         13   -1    0    0    0    0  0.00000000000E+00  0.00000000000E+00  0.74505805969E-08  0.10566000000E+00  0.10566000000E+00 0.  1.
     999900   -1    0    0    0    0 -0.00000000000E+00 -0.00000000000E+00 -0.74505805969E-08  0.93827000000E+00  0.93827000000E+00 0. -1.
     999902    2    1    2    0    0 -0.63299089185E-03 -0.29575926517E-02  0.15587982803E-01  0.10280512960E+01  0.10279286619E+01 0.  0.
     999903    2    3    3    0    0  0.12081420801E+00  0.83392695404E-02  0.51080717852E-01  0.13892994579E+00  0.45018594243E-01 0.  0.
         14    1    1    2    0    0  0.63299089185E-03  0.29575926517E-02 -0.15587982803E-01  0.15878703966E-01  0.00000000000E+00 0. -1.
     999901    1    3    3    0    0 -0.12144719890E+00 -0.11296862192E-01 -0.35492735049E-01  0.88912135024E+00  0.88000000000E+00 0.  1.
        -11    1    4    4    0    0  0.46767340208E-02 -0.60728108118E-02  0.14341346853E-01  0.16269180152E-01  0.51100000000E-03 0.  1.
         11    1    4    4    0    0  0.11613747399E+00  0.14412080352E-01  0.36739370999E-01  0.12266076564E+00  0.51100000000E-03 0. -1.
</event>
<event>
 8    1  0.1993226E+004  0.1043930E+01  0.7957747E-01            NaN
         13   -1    0    0    0    0  0.00000000000E+00  0.00000000000E+00  0.74505805969E-08  0.10566000000E+00  0.10566000000E+00 0.  1.
     999900   -1    0    0    0    0 -0.00000000000E+00 -0.00000000000E+00 -0.74505805969E-08  0.93827000000E+00  0.93827000000E+00 0. -1.
     999902    2    1    2    0    0  0.78653916278E-02 -0.31560965246E-02  0.11708527862E-01  0.10294761093E+01  0.10293746377E+01 0.  0.
     999903    2    3    3    0    0 -0.12966776270E+00  0.61501801530E-02  0.21606969108E-01  0.13868996527E+00  0.43777756369E-01 0.  0.
         14    1    1    2    0    0 -0.78653916278E-02  0.31560965246E-02 -0.11708527862E-01  0.14453890667E-01  0.00000000000E+00 0. -1.
     999901    1    3    3    0    0  0.13753315432E+00 -0.93062766777E-02 -0.98984412460E-02  0.89078614407E+00  0.88000000000E+00 0. -1.
        -11    1    4    4    0    0 -0.61889261390E-01  0.16354112551E-01  0.27953304381E-01  0.69852602096E-01  0.51100000000E-03 0. -1.
         11    1    4    4    0    0 -0.67778501306E-01 -0.10203932398E-01 -0.63463352734E-02  0.68837363169E-01  0.51100000000E-03 0.  1.
</event>
<event>
 7    1  0.2424695E+004  0.1043930E+01  0.7957747E-01            NaN
         13   -1    0    0    0    0  0.00000000000E+00  0.00000000000E+00  0.74505805969E-08  0.10566000000E+00  0.10566000000E+00 0. -1.
     999900   -1    0    0    0    0 -0.00000000000E+00 -0.00000000000E+00 -0.74505805969E-08  0.93827000000E+00  0.93827000000E+00 0. -1.
     999903    2    1    2    0    0 -0.35765763030E-02  0.66623862645E-01 -0.59527729193E-01  0.10104235950E+00  0.47058228806E-01 0.  0.
         14    1    1    2    0    0 -0.49298054204E-03  0.52162311464E-01 -0.58623660150E-02  0.52493019558E-01  0.00000000000E+00 0. -1.
     999901    1    1    2    0    0  0.40695568450E-02 -0.11878617411E+00  0.65390095208E-01  0.89039462094E+00  0.88000000000E+00 0.  1.
        -11    1    3    3    0    0 -0.21716205336E-01  0.47684698269E-01 -0.26063292947E-01  0.58523331958E-01  0.51100000000E-03 0. -1.
         11    1    3    3    0    0  0.18139629033E-01  0.18939164376E-01 -0.33464436246E-01  0.42519027541E-01  0.51100000000E-03 0.  1.
</event>
<event>
 8    1  0.1993226E+004  0.1043930E+01  0.7957747E-01            NaN
         13   -1    0    0    0    0  0.00000000000E+00  0.00000000000E+00  0.74505805969E-08  0.10566000000E+00  0.10566000000E+00 0. -1.
     999900   -1    0    0    0    0 -0.00000000000E+00 -0.00000000000E+00 -0.74505805969E-08  0.93827000000E+00  0.93827000000E+00 0.  1.
     999902    2    1    2    0    0 -0.69723181764E-02 -0.95387467695E-02 -0.63857300508E-02  0.10304994952E+01  0.10304119716E+01 0.  0.
     999903    2    3    3    0    0  0.95605495684E-01  0.81167550075E-02 -0.93415142227E-01  0.14010180697E+00  0.41180517258E-01 0.  0.
         14    1    1    2    0    0  0.69723181764E-02  0.95387467695E-02  0.63857300508E-02  0.13430504792E-01  0.00000000000E+00 0. -1.
     999901    1    3    3    0    0 -0.10257781386E+00 -0.17655501777E-01  0.87029412176E-01  0.89039768824E+00  0.88000000000E+00 0. -1.
        -11    1    4    4    0    0  0.18048592474E-01 -0.12338753888E-01 -0.89792746935E-02  0.23640749413E-01  0.51100000000E-03 0. -1.
         11    1    4    4    0    0  0.77556903210E-01  0.20455508895E-01 -0.84435867533E-01  0.11646105756E+00  0.51100000000E-03 0.  1.
</event>
<event>
 8    1  0.1993226E+004  0.1043930E+01  0.7957747E-01            NaN
         13   -1    0    0    0    0  0.00000000000E+00  0.00000000000E+00  0.74505805969E-08  0.10566000000E+00  0.10566000000E+00 0.  1.
     999900   -1    0    0    0    0 -0.00000000000E+00 -0.00000000000E+00 -0.74505805969E-08  0.93827000000E+00  0.93827000000E+00 0. -1.
     999902    2    1    2    0    0 -0.66549328640E-02  0.76625769923E-02 -0.96725287127E-02  0.10299099776E+01  0.10298145468E+01 0.  0.
     999903    2    3    3    0    0  0.77602342611E-01 -0.10555055549E+00  0.77423822168E-02  0.13849549430E+00  0.44249453278E-01 0.  0.
         14    1    1    2    0    0  0.66549328640E-02 -0.76625769923E-02  0.96725287127E-02  0.14020022442E-01  0.00000000000E+00 0.  1.
     999901    1    3    3    0    0 -0.84257275475E-01  0.11321313249E+00 -0.17414910930E-01  0.89141448326E+00  0.88000000000E+00 0. -1.
        -11    1    4    4    0    0  0.65290574623E-01 -0.54981196615E-01  0.12331622687E-01  0.86244542754E-01  0.51100000000E-03 0. -1.
         11    1    4    4    0    0  0.12311767989E-01 -0.50569358879E-01 -0.45892404699E-02  0.52250951546E-01  0.51100000000E-03 0.  1.
</event>
<event>
 8    1  0.1993226E+004  0.1043930E+01  0.7957747E-01            NaN
         13   -1    0    0    0    0  0.00000000000E+00  0.00000000000E+00  0.74505805969E-08  0.10566000000E+00  0.10566000000E+00 0.  1.
     999900   -1    0    0    0    0 -0.00000000000E+00 -0.00000000000E+00 -0.74505805969E-08  0.93827000000E+00  0.93827000000E+00 0.  1.
     999902    2    1    2    0    0  0.61923451139E-03 -0.16374192600E-01 -0.30006042386E-02  0.10272716309E+01  0.10271365549E+01 0.  0.
     999903    2    3    3    0    0 -0.19658820614E-01 -0.13047715980E+00 -0.73889397259E-02  0.13966251417E+00  0.45169270282E-01 0.  0.
         14    1    1    2    0    0 -0.61923451139E-03  0.16374192600E-01  0.30006042386E-02  0.16658369082E-01  0.00000000000E+00 0. -1.
     999901    1    3    3    0    0  0.20278055126E-01  0.11410296720E+00  0.43883354874E-02  0.88760911675E+00  0.88000000000E+00 0. -1.
        -11    1    4    4    0    0 -0.89109900483E-02 -0.34527103163E-01 -0.22161953233E-01  0.41987377729E-01  0.51100000000E-03 0.  1.
         11    1    4    4    0    0 -0.10747830566E-01 -0.95950056634E-01  0.14773013507E-01  0.97675136443E-01  0.51100000000E-03 0. -1.
</event>
<event>
 8    1  0.1993226E+004  0.1043930E+01  0.7957747E-01            NaN
         13   -1    0    0    0    0  0.00000000000E+00  0.00000000000E+00  0.74505805969E-08  0.10566000000E+00  0.10566000000E+00 0. -1.
     999900   -1    0    0    0    0 -0.00000000000E+00 -0.00000000000E+00 -0.74505805969E-08  0.93827000000E+00  0.93827000000E+00 0. -1.
     999902    2    1    2    0    0  0.10929705374E-02  0.11318301512E-01 -0.70412693199E-02  0.10305554717E+01  0.10304686809E+01 0.  0.
     999903    2    3    3    0    0 -0.27677318284E-01  0.83037014682E-01 -0.10254805642E+00  0.14202137009E+00  0.44640630944E-01 0.  0.
         14    1    1    2    0    0 -0.10929705374E-02 -0.11318301512E-01  0.70412693199E-02  0.13374528304E-01  0.00000000000E+00 0. -1.
     999901    1    3    3    0    0  0.28770288822E-01 -0.71718713170E-01  0.95506787102E-01  0.88853410161E+00  0.88000000000E+00 0.  1.
        -11    1    4    4    0    0  0.42979742405E-02  0.41264211778E-01 -0.66019547799E-01  0.77974672611E-01  0.51100000000E-03 0.  1.
         11    1    4    4    0    0 -0.31975292525E-01  0.41772802904E-01 -0.36528508623E-01  0.64046697477E-01  0.51100000000E-03 0. -1.
</event>
<event>
 8    1  0.1993226E+004  0.1043930E+01  0.7957747E-01            NaN
         13   -1    0    0    0    0  0.00000000000E+00  0.00000000000E+00  0.74505805969E-08  0.10566000000E+00  0.10566000000E+00 0. -1.
     999900   -1    0    0    0    0 -0.00000000000E+00 -0.00000000000E+00 -0.74505805969E-08  0.93827000000E+00  0.93827000000E+00 0. -1.
     999902    2    1    2    0    0 -0.12969518613E-01 -0.41915218193E-02 -0.13262920300E-02  0.10302356100E+01  0.10301445897E+01 0.  0.
     999903    2    3    3    0    0 -0.11686868094E+00  0.27668973674E-01 -0.59326568522E-01  0.14165575469E+00  0.46074400879E-01 0.  0.
         14    1    1    2    0    0  0.12969518613E-01  0.41915218193E-02  0.13262920300E-02  0.13694390047E-01  0.00000000000E+00 0. -1.
     999901    1    3    3    0    0  0.10389916232E+00 -0.31860495494E-01  0.58000276492E-01  0.88857985526E+00  0.88000000000E+00 0.  1.
        -11    1    4    4    0    0 -0.21329021802E-01  0.19792614065E-01 -0.35453816325E-03  0.29104322031E-01  0.51100000000E-03 0. -1.
         11    1    4    4    0    0 -0.95539659134E-01  0.78763596095E-02 -0.58972030359E-01  0.11255143266E+00  0.51100000000E-03 0.  1.
</event>
<event>
 8    1  0.1993226E+004  0.1043930E+01  0.7957747E-01            NaN
         13   -1    0    0    0    0  0.00000000000E+00  0.00000000000E+00  0.74505805969E-08  0.10566000000E+00  0.10566000000E+00 0.  1.
     999900   -1    0    0    0    0 -0.00000000000E+00 -0.00000000000E+00 -0.74505805969E-08  0.93827000000E+00  0.93827000000E+00 0. -1.
     999902    2    1    2    0    0  0.13354059778E-01  0.10961165045E-02 -0.27417364632E-02  0.10302533958E+01  0.10301626134E+01 0.  0.
     999903    2    3    3    0    0  0.12994762766E+00 -0.25457979370E-01 -0.25045953745E-01  0.14188598408E+00  0.44382857386E-01 0.  0.
         14    1    1    2    0    0 -0.13354059778E-01 -0.10961165045E-02  0.27417364632E-02  0.13676604212E-01  0.00000000000E+00 0. -1.
     999901    1    3    3    0    0 -0.11659356789E+00  0.26554095875E-01  0.22304217281E-01  0.88836741171E+00  0.88000000000E+00 0. -1.
        -11    1    4    4    0    0  0.11624135316E-01 -0.17226550860E-01 -0.68261294347E-03  0.20799078293E-01  0.51100000000E-03 0. -1.
         11    1    4    4    0    0  0.11832349235E+00 -0.82314285097E-02 -0.24363340801E-01  0.12108690579E+00  0.51100000000E-03 0.  1.
</event>
<event>
 8    1  0.1993226E+004  0.1043930E+01  0.7957747E-01            NaN
         13   -1    0    0    0    0  0.00000000000E+00  0.00000000000E+00  0.74505805969E-08  0.10566000000E+00  0.10566000000E+00 0.  1.
     999900   -1    0    0    0    0 -0.00000000000E+00 -0.00000000000E+00 -0.74505805969E-08  0.93827000000E+00  0.93827000000E+00 0. -1.
     999902    2    1    2    0    0 -0.35307634971E-02 -0.11496151276E-01 -0.64112501566E-02  0.10303016504E+01  0.10302115117E+01 0.  0.
     999903    2    3    3    0    0  0.20645252220E-01  0.12482443179E+00  0.33830545083E-01  0.13856896442E+00  0.45271259189E-01 0.  0.
         14    1    1    2    0    0  0.35307634971E-02  0.11496151276E-01  0.64112501566E-02  0.13628349628E-01  0.00000000000E+00 0.  1.
     999901    1    3    3    0    0 -0.24176015717E-01 -0.13632058307E+00 -0.40241795240E-01  0.89173268595E+00  0.88000000000E+00 0.  1.
        -11    1    4    4    0    0 -0.75275884791E-02  0.84930730231E-01  0.17271571391E-01  0.86996906986E-01  0.51100000000E-03 0. -1.
         11    1    4    4    0    0  0.28172840699E-01  0.39893701564E-01  0.16558973692E-01  0.51572057437E-01  0.51100000000E-03 0.  1.
</event>
<event>
 8    1  0.1993226E+004  0.1043930E+01  0.7957747E-01            NaN
         13   -1    0    0    0    0  0.00000000000E+00  0.00000000000E+00  0.74505805969E-08  0.10566000000E+00  0.10566000000E+00 0.  1.
     999900   -1    0    0    0    0 -0.00000000000E+00 -0.00000000000E+00 -0.74505805969E-08  0.93827000000E+00  0.93827000000E+00 0. -1.
     999902    2    1    2    0    0  0.50906745967E-02  0.79846894233E-02  0.10714702555E-01  0.10296305216E+01  0.10295312214E+01 0.  0.
     999903    2    3    3    0    0  0.99419890610E-01 -0.86832436382E-01 -0.92056118861E-03  0.13944870434E+00  0.44954499787E-01 0.  0.
         14    1    1    2    0    0 -0.50906745967E-02 -0.79846894233E-02 -0.10714702555E-01  0.14299478448E-01  0.00000000000E+00 0. -1.
     999901    1    3    3    0    0 -0.94329216014E-01  0.94817125805E-01  0.11635263744E-01  0.89018181722E+00  0.88000000000E+00 0.  1.
        -11    1    4    4    0    0  0.40167335198E-01 -0.33641404549E-01 -0.22387411398E-01  0.56979085874E-01  0.51100000000E-03 0.  1.
         11    1    4    4    0    0  0.59252555413E-01 -0.53191031833E-01  0.21466850209E-01  0.82469618462E-01  0.51100000000E-03 0. -1.
</event>
<event>
 8    1  0.1993226E+004  0.1043930E+01  0.7957747E-01            NaN
         13   -1    0    0    0    0  0.00000000000E+00  0.00000000000E+00  0.74505805969E-08  0.10566000000E+00  0.10566000000E+00 0. -1.
     999900   -1    0    0    0    0 -0.00000000000E+00 -0.00000000000E+00 -0.74505805969E-08  0.93827000000E+00  0.93827000000E+00 0. -1.
     999902    2    1    2    0    0 -0.66384152818E-02 -0.45692545729E-02  0.11598560627E-01  0.10298065000E+01  0.10297096455E+01 0.  0.
     999903    2    3    3    0    0  0.38942228716E-01  0.84999253560E-01 -0.91146098055E-01  0.13814704835E+00  0.45117906576E-01 0.  0.
         14    1    1    2    0    0  0.66384152818E-02  0.45692545729E-02 -0.11598560627E-01  0.14123500041E-01  0.00000000000E+00 0. -1.
     999901    1    3    3    0    0 -0.45580643998E-01 -0.89568508133E-01  0.10274465868E+00  0.89165945161E+00  0.88000000000E+00 0.  1.
        -11    1    4    4    0    0  0.21853219377E-01  0.83754593839E-01 -0.78381646673E-01  0.11677473546E+00  0.51100000000E-03 0.  1.
         11    1    4    4    0    0  0.17089009339E-01  0.12446597212E-02 -0.12764451382E-01  0.21372312886E-01  0.51100000000E-03 0. -1.
</event>
<event>
 8    1  0.1993226E+004  0.1043930E+01  0.7957747E-01            NaN
         13   -1    0    0    0    0  0.00000000000E+00  0.00000000000E+00  0.74505805969E-08  0.10566000000E+00  0.10566000000E+00 0.  1.
     999900   -1    0    0    0    0 -0.00000000000E+00 -0.00000000000E+00 -0.74505805969E-08  0.93827000000E+00  0.93827000000E+00 0.  1.
     999902    2    1    2    0    0  0.11893559863E-01  0.50659830747E-02  0.38857760663E-02  0.10304311035E+01  0.10303426803E+01 0.  0.
     999903    2    3    3    0    0 -0.89036285517E-01 -0.30070667246E-01  0.92844692841E-01  0.13951297778E+00  0.44855644166E-01 0.  0.
         14    1    1    2    0    0 -0.11893559863E-01 -0.50659830747E-02 -0.38857760663E-02  0.13498896487E-01  0.00000000000E+00 0. -1.
     999901    1    3    3    0    0  0.10092984538E+00  0.35136650320E-01 -0.88958916774E-01  0.89091812573E+00  0.88000000000E+00 0.  1.
        -11    1    4    4    0    0 -0.54783634415E-02  0.96099161259E-02  0.14807024641E-01  0.18489782413E-01  0.51100000000E-03 0.  1.
         11    1    4    4    0    0 -0.83557922075E-01 -0.39680583371E-01  0.78037668199E-01  0.12102319537E+00  0.51100000000E-03 0. -1.
</event>
<event>
 8    1  0.1993226E+004  0.1043930E+01  0.7957747E-01            NaN
         13   -1    0    0    0    0  0.00000000000E+00  0.00000000000E+00  0.74505805969E-08  0.10566000000E+00  0.10566000000E+00 0. -1.
     999900   -1    0    0    0    0 -0.00000000000E+00 -0.00000000000E+00 -0.74505805969E-08  0.93827000000E+00  0.93827000000E+00 0. -1.
     999902    2    1    2    0    0  0.67344739596E-02  0.52420572836E-03 -0.11867587942E-01  0.10302746869E+01  0.10301841889E+01 0.  0.
     999903    2    3    3    0    0  0.44694524116E-01 -0.31333296125E-01  0.11982287331E+00  0.13909667812E+00  0.44844051598E-01 0.  0.
         14    1    1    2    0    0 -0.67344739596E-02 -0.52420572836E-03  0.11867587942E-01  0.13655313058E-01  0.00000000000E+00 0. -1.
     999901    1    3    3    0    0 -0.37960050156E-01  0.31857501853E-01 -0.13169046125E+00  0.89117800883E+00  0.88000000000E+00 0. -1.
        -11    1    4    4    0    0  0.12242035327E-01 -0.27773579813E-01  0.89608400731E-01  0.94610600712E-01  0.51100000000E-03 0. -1.
         11    1    4    4    0    0  0.32452488789E-01 -0.35597163115E-02  0.30214472574E-01  0.44486077403E-01  0.51100000000E-03 0.  1.
</event>
<event>
 8    1  0.1993226E+004  0.1043930E+01  0.7957747E-01            NaN
         13   -1    0    0    0    0  0.00000000000E+00  0.00000000000E+00  0.74505805969E-08  0.10566000000E+00  0.10566000000E+00 0. -1.
     999900   -1    0    0    0    0 -0.00000000000E+00 -0.00000000000E+00 -0.74505805969E-08  0.93827000000E+00  0.93827000000E+00 0.  1.
     999902    2    1    2    0    0 -0.32328553716E-02  0.10837151093E-01 -0.42504330981E-02  0.10318485523E+01  0.10317778217E+01 0.  0.
     999903    2    3    3    0    0 -0.11022959520E+00  0.50583126216E-01  0.59100157243E-01  0.14221866172E+00  0.44990030425E-01 0.  0.
         14    1    1    2    0    0  0.32328553716E-02 -0.10837151093E-01  0.42504330981E-02  0.12081447727E-01  0.00000000000E+00 0.  1.
     999901    1    3    3    0    0  0.10699673983E+00 -0.39745975123E-01 -0.63350590341E-01  0.88962989056E+00  0.88000000000E+00 0.  1.
        -11    1    4    4    0    0 -0.34983281292E-01 -0.33083368050E-02  0.64317686074E-02  0.35726794298E-01  0.51100000000E-03 0.  1.
         11    1    4    4    0    0 -0.75246313913E-01  0.53891463021E-01  0.52668388635E-01  0.10649186742E+00  0.51100000000E-03 0. -1.
</event>
<event>
 8    1  0.1993226E+004  0.1043930E+01  0.7957747E-01            NaN
         13   -1    0    0    0    0  0.00000000000E+00  0.00000000000E+00  0.74505805969E-08  0.10566000000E+00  0.10566000000E+00 0. -1.
     999900   -1    0    0    0    0 -0.00000000000E+00 -0.00000000000E+00 -0.74505805969E-08  0.93827000000E+00  0.93827000000E+00 0.  1.
     999902    2    1    2    0    0  0.12147265904E-01 -0.76237626934E-02 -0.28061867158E-02  0.10293165640E+01  0.10292128237E+01 0.  0.
     999903    2    3    3    0    0 -0.48984908786E-02  0.42043706535E-01  0.12406702361E+00  0.13866835806E+00  0.45217460206E-01 0.  0.
         14    1    1    2    0    0 -0.12147265904E-01  0.76237626934E-02  0.28061867158E-02  0.14613435956E-01  0.00000000000E+00 0. -1.
     999901    1    3    3    0    0  0.17045756783E-01 -0.49667469229E-01 -0.12687321033E+00  0.89064820598E+00  0.88000000000E+00 0.  1.
        -11    1    4    4    0    0 -0.26409863783E-02  0.95058124316E-02  0.93319989798E-01  0.93841445513E-01  0.51100000000E-03 0. -1.
         11    1    4    4    0    0 -0.22575045003E-02  0.32537894104E-01  0.30747033812E-01  0.44826912547E-01  0.51100000000E-03 0.  1.
</event>
<event>
 8    1  0.1993226E+004  0.1043930E+01  0.7957747E-01            NaN
         13   -1    0    0    0    0  0.00000000000E+00  0.00000000000E+00  0.74505805969E-08  0.10566000000E+00  0.10566000000E+00 0. -1.
     999900   -1    0    0    0    0 -0.00000000000E+00 -0.00000000000E+00 -0.74505805969E-08  0.93827000000E+00  0.93827000000E+00 0. -1.
     999902    2    1    2    0    0 -0.88991943031E-02  0.29561929726E-02 -0.14283924048E-01  0.10268430101E+01  0.10267008339E+01 0.  0.
     999903    2    3    3    0    0  0.12410709078E+00 -0.13276870250E-01 -0.33602288782E-01  0.13649061731E+00  0.43837535692E-01 0.  0.
         14    1    1    2    0    0  0.88991943031E-02 -0.29561929726E-02  0.14283924048E-01  0.17086989856E-01  0.00000000000E+00 0. -1.
     999901    1    3    3    0    0 -0.13300628508E+00  0.16233063223E-01  0.19318364734E-01  0.89035239284E+00  0.88000000000E+00 0.  1.
        -11    1    4    4    0    0  0.13639857180E-01 -0.16838146849E-01 -0.73722738087E-02  0.22894987122E-01  0.51100000000E-03 0.  1.
         11    1    4    4    0    0  0.11046723360E+00  0.35612765988E-02 -0.26230014973E-01  0.11359563019E+00  0.51100000000E-03 0. -1.
</event>
<event>
 8    1  0.1993226E+004  0.1043930E+01  0.7957747E-01            NaN
         13   -1    0    0    0    0  0.00000000000E+00  0.00000000000E+00  0.74505805969E-08  0.10566000000E+00  0.10566000000E+00 0. -1.
     999900   -1    0    0    0    0 -0.00000000000E+00 -0.00000000000E+00 -0.74505805969E-08  0.93827000000E+00  0.93827000000E+00 0.  1.
     999902    2    1    2    0    0  0.39922353655E-02 -0.12140179410E-01  0.52490331536E-02  0.10301142753E+01  0.10300216240E+01 0.  0.
     999903    2    3    3    0    0  0.58157728939E-01  0.97044975122E-01  0.68593078357E-01  0.13945846822E+00  0.44086339467E-01 0.  0.
         14    1    1    2    0    0 -0.39922353655E-02  0.12140179410E-01 -0.52490331536E-02  0.13815724678E-01  0.00000000000E+00 0.  1.
     999901    1    3    3    0    0 -0.54165493574E-01 -0.10918515453E+00 -0.63344045204E-01  0.89065580710E+00  0.88000000000E+00 0.  1.
        -11    1    4    4    0    0  0.58385395451E-01  0.91413867648E-01  0.74256806409E-01  0.13145221192E+00  0.51100000000E-03 0. -1.
         11    1    4    4    0    0 -0.22766651220E-03  0.56311074739E-02 -0.56637280520E-02  0.80062562955E-02  0.51100000000E-03 0.  1.
</event>
<event>
 8    1  0.1993226E+004  0.1043930E+01  0.7957747E-01            NaN
         13   -1    0    0    0    0  0.00000000000E+00  0.00000000000E+00  0.74505805969E-08  0.10566000000E+00  0.10566000000E+00 0.  1.
     999900   -1    0    0    0    0 -0.00000000000E+00 -0.00000000000E+00 -0.74505805969E-08  0.93827000000E+00  0.93827000000E+00 0.  1.
     999902    2    1    2    0    0  0.55639256995E-02  0.30896507668E-02 -0.13891198118E-01  0.10286503208E+01  0.10285368316E+01 0.  0.
     999903    2    3    3    0    0 -0.11830983506E+00 -0.13344419933E-01  0.50026817459E-01  0.13752726533E+00  0.47283989137E-01 0.  0.
         14    1    1    2    0    0 -0.55639256995E-02 -0.30896507668E-02  0.13891198118E-01  0.15279679192E-01  0.00000000000E+00 0.  1.
     999901    1    3    3    0    0  0.12387376076E+00  0.16434070699E-01 -0.63918015577E-01  0.89112305548E+00  0.88000000000E+00 0.  1.
        -11    1    4    4    0    0 -0.46177902453E-01 -0.11776043409E-01 -0.33537460677E-02  0.47776381268E-01  0.51100000000E-03 0.  1.
         11    1    4    4    0    0 -0.72131932610E-01 -0.15683765237E-02  0.53380563526E-01  0.89750884065E-01  0.51100000000E-03 0. -1.
</event>
<event>
 8    1  0.1993226E+004  0.1043930E+01  0.7957747E-01            NaN
         13   -1    0    0    0    0  0.00000000000E+00  0.00000000000E+00  0.74505805969E-08  0.10566000000E+00  0.10566000000E+00 0. -1.
     999900   -1    0    0    0    0 -0.00000000000E+00 -0.00000000000E+00 -0.74505805969E-08  0.93827000000E+00  0.93827000000E+00 0.  1.
     999902    2    1    2    0    0  0.36007370302E-02  0.12251013032E-01 -0.51937727280E-02  0.10301449392E+01  0.10300527014E+01 0.  0.
     999903    2    3    3    0    0 -0.71553185738E-01 -0.10433373031E+00  0.35628901093E-01  0.13834529507E+00  0.43181204294E-01 0.  0.
         14    1    1    2    0    0 -0.36007370302E-02 -0.12251013032E-01  0.51937727280E-02  0.13785060849E-01  0.00000000000E+00 0. -1.
     999901    1    3    3    0    0  0.75153922768E-01  0.11658474334E+00 -0.40822673821E-01  0.89179964408E+00  0.88000000000E+00 0.  1.
        -11    1    4    4    0    0 -0.19466134772E-01 -0.13619107826E-01  0.22840976405E-01  0.32960306811E-01  0.51100000000E-03 0. -1.
         11    1    4    4    0    0 -0.52087050966E-01 -0.90714622486E-01  0.12787924688E-01  0.10538498826E+00  0.51100000000E-03 0.  1.
</event>
<event>
 8    1  0.1993226E+004  0.1043930E+01  0.7957747E-01            NaN
         13   -1    0    0    0    0  0.00000000000E+00  0.00000000000E+00  0.74505805969E-08  0.10566000000E+00  0.10566000000E+00 0.  1.
     999900   -1    0    0    0    0 -0.00000000000E+00 -0.00000000000E+00 -0.74505805969E-08  0.93827000000E+00  0.93827000000E+00 0. -1.
     999902    2    1    2    0    0 -0.10147403191E-01  0.11983565296E-01 -0.33666500789E-02  0.10278704246E+01  0.10277449586E+01 0.  0.
     999903    2    3    3    0    0 -0.91122484665E-01  0.72259380166E-01  0.62959015299E-01  0.13961976655E+00  0.44778525759E-01 0.  0.
         14    1    1    2    0    0  0.10147403191E-01 -0.11983565296E-01  0.33666500789E-02  0.16059575383E-01  0.00000000000E+00 0.  1.
     999901    1    3    3    0    0  0.80975081474E-01 -0.60275814870E-01 -0.66325665378E-01  0.88825065807E+00  0.88000000000E+00 0. -1.
        -11    1    4    4    0    0 -0.81726091266E-01  0.65813914847E-01  0.70071322055E-01  0.12617795638E+00  0.51100000000E-03 0. -1.
         11    1    4    4    0    0 -0.93963933988E-02  0.64454653193E-02 -0.71123067557E-02  0.13441810164E-01  0.51100000000E-03 0.  1.
</event>
<event>
 8    1  0.1993226E+004  0.1043930E+01  0.7957747E-01            NaN
         13   -1    0    0    0    0  0.00000000000E+00  0.00000000000E+00  0.74505805969E-08  0.10566000000E+00  0.10566000000E+00 0.  1.
     999900   -1    0    0    0    0 -0.00000000000E+00 -0.00000000000E+00 -0.74505805969E-08  0.93827000000E+00  0.93827000000E+00 0.  1.
     999902    2    1    2    0    0  0.18883492206E-01 -0.11623340038E-01 -0.43214297910E-02  0.10213387834E+01  0.10210889028E+01 0.  0.
     999903    2    3    3    0    0 -0.58622550336E-01  0.67949216332E-01 -0.82115191415E-01  0.13095075131E+00  0.48492217933E-01 0.  0.
         14    1    1    2    0    0 -0.18883492206E-01  0.11623340038E-01  0.43214297910E-02  0.22591216589E-01  0.00000000000E+00 0. -1.
     999901    1    3    3    0    0  0.77506042542E-01 -0.79572556370E-01  0.77793761624E-01  0.89038803210E+00  0.88000000000E+00 0. -1.
        -11    1    4    4    0    0 -0.57341472354E-01  0.36107907321E-01 -0.42035445761E-01  0.79743747367E-01  0.51100000000E-03 0. -1.
         11    1    4    4    0    0 -0.12810779823E-02  0.31841309011E-01 -0.40079745654E-01  0.51207003945E-01  0.51100000000E-03 0.  1.
</event>
<event>
 8    1  0.1993226E+004  0.1043930E+01  0.7957747E-01            NaN
         13   -1    0    0    0    0  0.00000000000E+00  0.00000000000E+00  0.74505805969E-08  0.10566000000E+00  0.10566000000E+00 0.  1.
     999900   -1    0    0    0    0 -0.00000000000E+00 -0.00000000000E+00 -0.74505805969E-08  0.93827000000E+00  0.93827000000E+00 0. -1.
     999902    2    1    2    0    0  0.80851666766E-02 -0.10601876846E-01 -0.52678756504E-02  0.10295940233E+01  0.10294942121E+01 0.  0.
     999903    2    3    3    0    0  0.10959515132E-02 -0.81057092733E-01 -0.10663981207E+00  0.14094951845E+00  0.43855032128E-01 0.  0.
         14    1    1    2    0    0 -0.80851666766E-02  0.10601876846E-01  0.52678756504E-02  0.14335976657E-01  0.00000000000E+00 0.  1.
     999901    1    3    3    0    0  0.69892151634E-02  0.70455215887E-01  0.10137193642E+00  0.88864450489E+00  0.88000000000E+00 0.  1.
        -11    1    4    4    0    0 -0.13609585840E-01 -0.61694294208E-02 -0.25475859190E-01  0.29539180906E-01  0.51100000000E-03 0.  1.
         11    1    4    4    0    0  0.14705537354E-01 -0.74887663312E-01 -0.81163952877E-01  0.11141033755E+00  0.51100000000E-03 0. -1.
</event>
<event>
 7    1  0.1993226E+004  0.1043930E+01  0.7957747E-01            NaN
         13   -1    0    0    0    0  0.00000000000E+00  0.00000000000E+00  0.74505805969E-08  0.10566000000E+00  0.10566000000E+00 0. -1.
     999900   -1    0    0    0    0 -0.00000000000E+00 -0.00000000000E+00 -0.74505805969E-08  0.93827000000E+00  0.93827000000E+00 0. -1.
     999902    2    1    2    0    0  0.86472596793E-02 -0.88806034374E-02 -0.35319658323E-03  0.10315297998E+01  0.10314552646E+01 0.  0.
         14    1    1    2    0    0 -0.86472596793E-02  0.88806034374E-02  0.35319658323E-03  0.12400200208E-01  0.00000000000E+00 0.  1.
     999901    1    3    3    0    0 -0.64184411826E-01  0.91690435417E-01 -0.17069073335E-01  0.88725313633E+00  0.88000000000E+00 0.  1.
        -11    1    3    3    0    0  0.43309468525E-02 -0.48111544265E-01  0.30164168235E-01  0.56952751984E-01  0.51100000000E-03 0.  1.
         11    1    3    3    0    0  0.68500724652E-01 -0.52459494589E-01 -0.13448291483E-01  0.87323911475E-01  0.51100000000E-03 0. -1.
</event>
<event>
 7    1  0.2032813E+004  0.1043930E+01  0.7957747E-01            NaN
         13   -1    0    0    0    0  0.00000000000E+00  0.00000000000E+00  0.74505805969E-08  0.10566000000E+00  0.10566000000E+00 0. -1.
     999900   -1    0    0    0    0 -0.00000000000E+00 -0.00000000000E+00 -0.74505805969E-08  0.93827000000E+00  0.93827000000E+00 0.  1.
     999903    2    1    2    0    0  0.16364583963E-02 -0.32936848738E-01  0.63336357902E-01  0.85224011058E-01  0.46520144321E-01 0.  0.
         14    1    1    2    0    0 -0.49148156657E-01  0.48740500962E-01 -0.33197499656E-01  0.76767517351E-01  0.00000000000E+00 0.  1.
     999901    1    1    2    0    0  0.47511698261E-01 -0.15803652224E-01 -0.30138858247E-01  0.88193847159E+00  0.88000000000E+00 0.  1.
        -11    1    3    3    0    0  0.23531301117E-02 -0.43666127990E-01  0.38933495054E-01  0.58552080348E-01  0.51100000000E-03 0. -1.
         11    1    3    3    0    0 -0.71667171545E-03  0.10729279252E-01  0.24402862848E-01  0.26671930710E-01  0.51100000000E-03 0.  1.
</event>
<event>
 8    1  0.1993226E+004  0.1043930E+01  0.7957747E-01            NaN
         13   -1    0    0    0    0  0.00000000000E+00  0.00000000000E+00  0.74505805969E-08  0.10566000000E+00  0.10566000000E+00 0.  1.
     999900   -1    0    0    0    0 -0.00000000000E+00 -0.00000000000E+00 -0.74505805969E-08  0.93827000000E+00  0.93827000000E+00 0. -1.
     999902    2    1    2    0    0 -0.46131783487E-03 -0.11234897283E-01 -0.83174742219E-02  0.10299437171E+01  0.10298487483E+01 0.  0.
     999903    2    3    3    0    0 -0.77026414991E-01  0.40834553099E-01  0.97959462701E-01  0.13872644335E+00  0.45259699713E-01 0.  0.
         14    1    1    2    0    0  0.46131783487E-03  0.11234897283E-01  0.83174742219E-02  0.13986282870E-01  0.00000000000E+00 0.  1.
     999901    1    3    3    0    0  0.76565097156E-01 -0.52069450382E-01 -0.10627693692E+00  0.89121727378E+00  0.88000000000E+00 0.  1.
        -11    1    4    4    0    0 -0.50384786610E-01  0.48209904084E-01  0.61582239832E-01  0.93034697599E-01  0.51100000000E-03 0. -1.
         11    1    4    4    0    0 -0.26641628381E-01 -0.73753509850E-02  0.36377222869E-01  0.45691745749E-01  0.51100000000E-03 0.  1.
</event>
<event>
 7    1  0.1993226E+004  0.1043930E+01  0.7957747E-01            NaN
         13   -1    0    0    0    0  0.00000000000E+00  0.00000000000E+00  0.74505805969E-08  0.10566000000E+00  0.10566000000E+00 0.  1.
     999900   -1    0    0    0    0 -0.00000000000E+00 -0.00000000000E+00 -0.74505805969E-08  0.93827000000E+00  0.93827000000E+00 0. -1.
     999903    2    1    2    0    0 -0.46317094900E-02 -0.54887221200E-03 -0.64374037366E-01  0.78703347468E-01  0.45038275082E-01 0.  0.
         14    1    1    2    0    0 -0.21173056982E-01 -0.57661847263E-01 -0.45037530841E-01  0.76168012682E-01  0.00000000000E+00 0. -1.
     999901    1    1    2    0    0  0.25804766472E-01  0.58210719475E-01  0.10941156821E+00  0.88905863985E+00  0.88000000000E+00 0.  1.
        -11    1    3    3    0    0 -0.15279738985E-01  0.13547785772E-01 -0.12611494811E-01  0.24006745826E-01  0.51100000000E-03 0.  1.
         11    1    3    3    0    0  0.10648029495E-01 -0.14096657984E-01 -0.51762542555E-01  0.54696601642E-01  0.51100000000E-03 0. -1.
</event>
<event>
 8    1  0.1993226E+004  0.1043930E+01  0.7957747E-01            NaN
         13   -1    0    0    0    0  0.00000000000E+00  0.00000000000E+00  0.74505805969E-08  0.10566000000E+00  0.10566000000E+00 0.  1.
     999900   -1    0    0    0    0 -0.00000000000E+00 -0.00000000000E+00 -0.74505805969E-08  0.93827000000E+00  0.93827000000E+00 0.  1.
     999902    2    1    2    0    0  0.59289441995E-02  0.73787791250E-02 -0.98483409277E-02  0.10302702570E+01  0.10301796998E+01 0.  0.
     999903    2    3    3    0    0 -0.82479991864E-01 -0.45219546020E-01 -0.92881287473E-01  0.14039543768E+00  0.47288359662E-01 0.  0.
         14    1    1    2    0    0 -0.59289441995E-02 -0.73787791250E-02  0.98483409277E-02  0.13659743033E-01  0.00000000000E+00 0.  1.
     999901    1    3    3    0    0  0.88408936063E-01  0.52598325145E-01  0.83032946545E-01  0.88987481928E+00  0.88000000000E+00 0.  1.
        -11    1    4    4    0    0 -0.33644665381E-01 -0.38823818771E-01 -0.67960924410E-01  0.85195074859E-01  0.51100000000E-03 0. -1.
         11    1    4    4    0    0 -0.48835326483E-01 -0.63957272491E-02 -0.24920363063E-01  0.55200362824E-01  0.51100000000E-03 0.  1.
</event>
<event>
 8    1  0.1993226E+004  0.1043930E+01  0.7957747E-01            NaN
         13   -1    0    0    0    0  0.00000000000E+00  0.00000000000E+00  0.74505805969E-08  0.10566000000E+00  0.10566000000E+00 0. -1.
     999900   -1    0    0    0    0 -0.00000000000E+00 -0.00000000000E+00 -0.74505805969E-08  0.93827000000E+00  0.93827000000E+00 0. -1.
     999902    2    1    2    0    0  0.23287101065E-04 -0.36502217657E-02 -0.16250956300E-01  0.10272741229E+01  0.10271390876E+01 0.  0.
     999903    2    3    3    0    0 -0.65114932160E-01 -0.91724395236E-01  0.63762745452E-01  0.13687969339E+00  0.44911509470E-01 0.  0.
         14    1    1    2    0    0 -0.23287101065E-04  0.36502217657E-02  0.16250956300E-01  0.16655877098E-01  0.00000000000E+00 0. -1.
     999901    1    3    3    0    0  0.65138219261E-01  0.88074173470E-01 -0.80013701752E-01  0.89039442951E+00  0.88000000000E+00 0. -1.
        -11    1    4    4    0    0 -0.13788502778E-02 -0.35611421840E-01  0.12962383401E-01  0.37925704977E-01  0.51100000000E-03 0. -1.
         11    1    4    4    0    0 -0.63736081883E-01 -0.56112973396E-01  0.50800362051E-01  0.98953988412E-01  0.51100000000E-03 0.  1.
</event>
<event>
 8    1  0.1993226E+004  0.1043930E+01  0.7957747E-01            NaN
         13   -1    0    0    0    0  0.00000000000E+00  0.00000000000E+00  0.74505805969E-08  0.10566000000E+00  0.10566000000E+00 0. -1.
     999900   -1    0    0    0    0 -0.00000000000E+00 -0.00000000000E+00 -0.74505805969E-08  0.93827000000E+00  0.93827000000E+00 0.  1.
     999902    2    1    2    0    0 -0.20912860851E-02  0.14202609619E-01  0.46379880857E-02  0.10288436310E+01  0.10287330161E+01 0.  0.
     999903    2    3    3    0    0 -0.74817855578E-01  0.51587005226E-01  0.92447611899E-01  0.14070103149E+00  0.54692674974E-01 0.  0.
         14    1    1    2    0    0  0.20912860851E-02 -0.14202609619E-01 -0.46379880857E-02  0.15086369045E-01  0.00000000000E+00 0.  1.
     999901    1    3    3    0    0  0.72726569493E-01 -0.37384395607E-01 -0.87809623814E-01  0.88814259946E+00  0.88000000000E+00 0.  1.
        -11    1    4    4    0    0 -0.27197418184E-01  0.41344852809E-01  0.73120727038E-01  0.88294950327E-01  0.51100000000E-03 0.  1.
         11    1    4    4    0    0 -0.47620437394E-01  0.10242152417E-01  0.19326884861E-01  0.52406081166E-01  0.51100000000E-03 0. -1.
</event>
<event>
 8    1  0.1993226E+004  0.1043930E+01  0.7957747E-01            NaN
         13   -1    0    0    0    0  0.00000000000E+00  0.00000000000E+00  0.74505805969E-08  0.10566000000E+00  0.10566000000E+00 0. -1.
     999900   -1    0    0    0    0 -0.00000000000E+00 -0.00000000000E+00 -0.74505805969E-08  0.93827000000E+00  0.93827000000E+00 0. -1.
     999902    2    1    2    0    0 -0.62803536468E-03 -0.48610178134E-02 -0.95808512167E-02  0.10331681864E+01  0.10331121356E+01 0.  0.
     999903    2    3    3    0    0  0.14088377580E-01  0.12413593659E+00 -0.52379034362E-01  0.14261303842E+00  0.44572439365E-01 0.  0.
         14    1    1    2    0    0  0.62803536468E-03  0.48610178134E-02  0.95808512167E-02  0.10761813631E-01  0.00000000000E+00 0. -1.
     999901    1    3    3    0    0 -0.14716412945E-01 -0.12899695440E+00  0.42798183145E-01  0.89055514795E+00  0.88000000000E+00 0.  1.
        -11    1    4    4    0    0 -0.56013307382E-02  0.64894033691E-01 -0.46240738426E-01  0.79881646991E-01  0.51100000000E-03 0.  1.
         11    1    4    4    0    0  0.19689708318E-01  0.59241902899E-01 -0.61382959361E-02  0.62731391430E-01  0.51100000000E-03 0. -1.
</event>
<event>
 8    1  0.1993226E+004  0.1043930E+01  0.7957747E-01            NaN
         13   -1    0    0    0    0  0.00000000000E+00  0.00000000000E+00  0.74505805969E-08  0.10566000000E+00  0.10566000000E+00 0. -1.
     999900   -1    0    0    0    0 -0.00000000000E+00 -0.00000000000E+00 -0.74505805969E-08  0.93827000000E+00  0.93827000000E+00 0.  1.
     999902    2    1    2    0    0  0.48907031181E-02  0.28456740585E-02  0.60428938152E-02  0.10356515096E+01  0.10356184220E+01 0.  0.
     999903    2    3    3    0    0 -0.11939077329E+00  0.67961293066E-01  0.49853755615E-02  0.14453588995E+00  0.44641633168E-01 0.  0.
         14    1    1    2    0    0 -0.48907031181E-02 -0.28456740585E-02 -0.60428938152E-02  0.82784904118E-02  0.00000000000E+00 0.  1.
     999901    1    3    3    0    0  0.12428147641E+00 -0.65115619007E-01  0.10575182537E-02  0.89111561964E+00  0.88000000000E+00 0.  1.
        -11    1    4    4    0    0 -0.41306934732E-01  0.57695365027E-02  0.14730436929E-01  0.44235701662E-01  0.51100000000E-03 0.  1.
         11    1    4    4    0    0 -0.78083838560E-01  0.62191756563E-01 -0.97450613676E-02  0.10030018829E+00  0.51100000000E-03 0. -1.
</event>
<event>
 8    1  0.1993226E+004  0.1043930E+01  0.7957747E-01            NaN
         13   -1    0    0    0    0  0.00000000000E+00  0.00000000000E+00  0.74505805969E-08  0.10566000000E+00  0.10566000000E+00 0. -1.
     999900   -1    0    0    0    0 -0.00000000000E+00 -0.00000000000E+00 -0.74505805969E-08  0.93827000000E+00  0.93827000000E+00 0.  1.
     999902    2    1    2    0    0  0.22939649570E-02 -0.13162010508E-01 -0.14266032854E-02  0.10304936317E+01  0.10304060311E+01 0.  0.
     999903    2    3    3    0    0 -0.34878968101E-01  0.71705466770E-01 -0.10543352119E+00  0.13953810273E+00  0.44681521266E-01 0.  0.
         14    1    1    2    0    0 -0.22939649570E-02  0.13162010508E-01  0.14266032854E-02  0.13436368288E-01  0.00000000000E+00 0.  1.
     999901    1    3    3    0    0  0.37172933058E-01 -0.84867477278E-01  0.10400691790E+00  0.89095552898E+00  0.88000000000E+00 0. -1.
        -11    1    4    4    0    0 -0.32792575933E-01  0.17986086185E-01 -0.48244503301E-01  0.61046257480E-01  0.51100000000E-03 0.  1.
         11    1    4    4    0    0 -0.20863921679E-02  0.53719380585E-01 -0.57189017889E-01  0.78491845250E-01  0.51100000000E-03 0. -1.
</event>
<event>
 8    1  0.1993226E+004  0.1043930E+01  0.7957747E-01            NaN
         13   -1    0    0    0    0  0.00000000000E+00  0.00000000000E+00  0.74505805969E-08  0.10566000000E+00  0.10566000000E+00 0.  1.
     999900   -1    0    0    0    0 -0.00000000000E+00 -0.00000000000E+00 -0.74505805969E-08  0.93827000000E+00  0.93827000000E+00 0.  1.
     999902    2    1    2    0    0 -0.13993602433E-02  0.85733757542E-02  0.10909180256E-01  0.10299847071E+01  0.10298902979E+01 0.  0.
     999903    2    3    3    0    0 -0.19297178878E-01 -0.12976404435E+00  0.10405507344E-01  0.13899771087E+00  0.44732546602E-01 0.  0.
         14    1    1    2    0    0  0.13993602433E-02 -0.85733757542E-02 -0.10909180256E-01  0.13945292925E-01  0.00000000000E+00 0. -1.
     999901    1    3    3    0    0  0.17897818635E-01  0.13833742011E+00  0.50367291161E-03  0.89098699620E+00  0.88000000000E+00 0. -1.
        -11    1    4    4    0    0  0.13808522734E-01 -0.32355530175E-01  0.80355945491E-02  0.36088606703E-01  0.51100000000E-03 0. -1.
         11    1    4    4    0    0 -0.33105701612E-01 -0.97408514178E-01  0.23699127953E-02  0.10290910417E+00  0.51100000000E-03 0.  1.
</event>
<event>
 8    1  0.2341237E+004  0.1043930E+01  0.7957747E-01            NaN
         13   -1    0    0    0    0  0.00000000000E+00  0.00000000000E+00  0.74505805969E-08  0.10566000000E+00  0.10566000000E+00 0. -1.
     999900   -1    0    0    0    0 -0.00000000000E+00 -0.00000000000E+00 -0.74505805969E-08  0.93827000000E+00  0.93827000000E+00 0.  1.
     999902    2    1    2    0    0 -0.11722341087E-01  0.92754713162E-02  0.60212712593E-02  0.10278146857E+01  0.10276883403E+01 0.  0.
     999903    2    3    3    0    0 -0.26135578506E-02 -0.90031115021E-01 -0.92399659466E-01  0.13673026338E+00  0.45222068710E-01 0.  0.
         14    1    1    2    0    0  0.11722341087E-01 -0.92754713162E-02 -0.60212712593E-02  0.16115314340E-01  0.00000000000E+00 0.  1.
     999901    1    3    3    0    0 -0.91087832364E-02  0.99306586338E-01  0.98420930725E-01  0.89108442228E+00  0.88000000000E+00 0.  1.
        -11    1    4    4    0    0 -0.20608072449E-02 -0.44413761725E-01 -0.15077060427E-01  0.46951123833E-01  0.51100000000E-03 0. -1.
         11    1    4    4    0    0 -0.55275060564E-03 -0.45617353296E-01 -0.77322599039E-01  0.89779139549E-01  0.51100000000E-03 0.  1.
</event>
<event>
 8    1  0.1993226E+004  0.1043930E+01  0.7957747E-01            NaN
         13   -1    0    0    0    0  0.00000000000E+00  0.00000000000E+00  0.74505805969E-08  0.10566000000E+00  0.10566000000E+00 0. -1.
     999900   -1    0    0    0    0 -0.00000000000E+00 -0.00000000000E+00 -0.74505805969E-08  0.93827000000E+00  0.93827000000E+00 0. -1.
     999902    2    1    2    0    0 -0.78733982404E-02  0.11069809684E-01  0.16476434911E-02  0.10302462207E+01  0.10301553424E+01 0.  0.
     999903    2    3    3    0    0  0.43180768037E-01 -0.11847355213E+00  0.35860543903E-01  0.13864174953E+00  0.45110916880E-01 0.  0.
         14    1    1    2    0    0  0.78733982404E-02 -0.11069809684E-01 -0.16476434911E-02  0.13683779279E-01  0.00000000000E+00 0. -1.
     999901    1    3    3    0    0 -0.51054166278E-01  0.12954336182E+00 -0.34212900412E-01  0.89160447119E+00  0.88000000000E+00 0. -1.
        -11    1    4    4    0    0  0.15027272386E-01 -0.41101663082E-01  0.35422161320E-01  0.56304140674E-01  0.51100000000E-03 0.  1.
         11    1    4    4    0    0  0.28153495651E-01 -0.77371889050E-01  0.43838258383E-03  0.82337608860E-01  0.51100000000E-03 0. -1.
</event>
<event>
 8    1  0.1993226E+004  0.1043930E+01  0.7957747E-01            NaN
         13   -1    0    0    0    0  0.00000000000E+00  0.00000000000E+00  0.74505805969E-08  0.10566000000E+00  0.10566000000E+00 0. -1.
     999900   -1    0    0    0    0 -0.00000000000E+00 -0.00000000000E+00 -0.74505805969E-08  0.93827000000E+00  0.93827000000E+00 0. -1.
     999902    2    1    2    0    0  0.13014245404E-01  0.12077076436E-01 -0.55757189335E-02  0.10253204594E+01  0.10251515642E+01 0.  0.
     999903    2    3    3    0    0 -0.61916772237E-01  0.53237557039E-01 -0.99030701626E-01  0.13625202766E+00  0.45712263282E-01 0.  0.
         14    1    1    2    0    0 -0.13014245404E-01 -0.12077076436E-01  0.55757189335E-02  0.18609540572E-01  0.00000000000E+00 0. -1.
     999901    1    3    3    0    0  0.74931017641E-01 -0.41160480603E-01  0.93454982692E-01  0.88906843176E+00  0.88000000000E+00 0.  1.
        -11    1    4    4    0    0 -0.40441236513E-01  0.77170176093E-02 -0.30584672528E-01  0.51290635462E-01  0.51100000000E-03 0.  1.
         11    1    4    4    0    0 -0.21475535724E-01  0.45520539430E-01 -0.68446029098E-01  0.84961392202E-01  0.51100000000E-03 0. -1.
</event>
<event>
 8    1  0.1993226E+004  0.1043930E+01  0.7957747E-01            NaN
         13   -1    0    0    0    0  0.00000000000E+00  0.00000000000E+00  0.74505805969E-08  0.10566000000E+00  0.10566000000E+00 0.  1.
     999900   -1    0    0    0    0 -0.00000000000E+00 -0.00000000000E+00 -0.74505805969E-08  0.93827000000E+00  0.93827000000E+00 0.  1.
     999902    2    1    2    0    0 -0.41116754613E-02  0.27962095225E-02  0.82117171482E-02  0.10343301583E+01  0.10342856082E+01 0.  0.
     999903    2    3    3    0    0  0.63333126528E-01  0.11798292756E+00 -0.25646523759E-01  0.14362079949E+00  0.45145694744E-01 0.  0.
         14    1    1    2    0    0  0.41116754613E-02 -0.27962095225E-02 -0.82117171482E-02  0.95998417339E-02  0.00000000000E+00 0. -1.
     999901    1    3    3    0    0 -0.67444801989E-01 -0.11518671804E+00  0.33858240907E-01  0.89070935877E+00  0.88000000000E+00 0. -1.
        -11    1    4    4    0    0  0.63266594234E-01  0.92847977479E-01 -0.33567414581E-01  0.11726227574E+00  0.51100000000E-03 0.  1.
         11    1    4    4    0    0  0.66532293574E-04  0.25134950084E-01  0.79208908217E-02  0.26358523758E-01  0.51100000000E-03 0. -1.
</event>
<event>
 8    1  0.1993226E+004  0.1043930E+01  0.7957747E-01            NaN
         13   -1    0    0    0    0  0.00000000000E+00  0.00000000000E+00  0.74505805969E-08  0.10566000000E+00  0.10566000000E+00 0. -1.
     999900   -1    0    0    0    0 -0.00000000000E+00 -0.00000000000E+00 -0.74505805969E-08  0.93827000000E+00  0.93827000000E+00 0.  1.
     999902    2    1    2    0    0 -0.14726908020E-02 -0.45533932280E-02  0.12738986961E-01  0.10303217673E+01  0.10302318963E+01 0.  0.
     999903    2    3    3    0    0 -0.13289801843E+00 -0.98970126869E-02  0.28976694761E-02  0.14049143374E+00  0.44380314359E-01 0.  0.
         14    1    1    2    0    0  0.14726908020E-02  0.45533932280E-02 -0.12738986961E-01  0.13608232688E-01  0.00000000000E+00 0.  1.
     999901    1    3    3    0    0  0.13142532763E+00  0.53436194589E-02  0.98413174851E-02  0.88983033357E+00  0.88000000000E+00 0.  1.
        -11    1    4    4    0    0 -0.65914020351E-01 -0.40074118753E-03  0.23158670457E-01  0.69867043809E-01  0.51100000000E-03 0.  1.
         11    1    4    4    0    0 -0.66983998083E-01 -0.94962714994E-02 -0.20261000981E-01  0.70624389933E-01  0.51100000000E-03 0. -1.
</event>
<event>
 8    1  0.1993226E+004  0.1043930E+01  0.7957747E-01            NaN
         13   -1    0    0    0    0  0.00000000000E+00  0.00000000000E+00  0.74505805969E-08  0.10566000000E+00  0.10566000000E+00 0. -1.
     999900   -1    0    0    0    0 -0.00000000000E+00 -0.00000000000E+00 -0.74505805969E-08  0.93827000000E+00  0.93827000000E+00 0.  1.
     999902    2    1    2    0    0  0.46627732877E-02 -0.11680195797E-01 -0.52214563346E-02  0.10303126568E+01  0.10302226647E+01 0.  0.
     999903    2    3    3    0    0 -0.84468745259E-01 -0.68103093338E-01 -0.79558805029E-01  0.14090048446E+00  0.41837098546E-01 0.  0.
         14    1    1    2    0    0 -0.46627732877E-02  0.11680195797E-01  0.52214563346E-02  0.13617343164E-01  0.00000000000E+00 0. -1.
     999901    1    3    3    0    0  0.89131518546E-01  0.56422897541E-01  0.74337348694E-01  0.88941217238E+00  0.88000000000E+00 0.  1.
        -11    1    4    4    0    0 -0.29613594877E-01 -0.50528424893E-01 -0.43265408008E-01  0.72816504824E-01  0.51100000000E-03 0.  1.
         11    1    4    4    0    0 -0.54855150381E-01 -0.17574668445E-01 -0.36293397021E-01  0.68083979633E-01  0.51100000000E-03 0. -1.
</event>
<event>
 8    1  0.2234187E+004  0.1043930E+01  0.7957747E-01            NaN
         13   -1    0    0    0    0  0.00000000000E+00  0.00000000000E+00  0.74505805969E-08  0.10566000000E+00  0.10566000000E+00 0.  1.
     999900   -1    0    0    0    0 -0.00000000000E+00 -0.00000000000E+00 -0.74505805969E-08  0.93827000000E+00  0.93827000000E+00 0.  1.
     999902    2    1    2    0    0 -0.12610674386E-01 -0.26481980080E-03 -0.34690764505E-02  0.10308481909E+01  0.10307651813E+01 0.  0.
     999903    2    3    3    0    0  0.12348137546E+00 -0.41745825865E-01 -0.19705257815E-01  0.13927355382E+00  0.44927291768E-01 0.  0.
         14    1    1    2    0    0  0.12610674386E-01  0.26481980080E-03  0.34690764505E-02  0.13081809103E-01  0.00000000000E+00 0.  1.
     999901    1    3    3    0    0 -0.13609204984E+00  0.41481006064E-01  0.16236181364E-01  0.89157463708E+00  0.88000000000E+00 0. -1.
        -11    1    4    4    0    0  0.62454331863E-01 -0.97489113986E-02  0.10423735663E-01  0.64066373614E-01  0.51100000000E-03 0. -1.
         11    1    4    4    0    0  0.61027043596E-01 -0.31996914467E-01 -0.30128993478E-01  0.75207180205E-01  0.51100000000E-03 0.  1.
</event>
<event>
 8    1  0.1993226E+004  0.1043930E+01  0.7957747E-01            NaN
         13   -1    0    0    0    0  0.00000000000E+00  0.00000000000E+00  0.74505805969E-08  0.10566000000E+00  0.10566000000E+00 0. -1.
     999900   -1    0    0    0    0 -0.00000000000E+00 -0.00000000000E+00 -0.74505805969E-08  0.93827000000E+00  0.93827000000E+00 0.  1.
     999902    2    1    2    0    0 -0.39803638949E-02 -0.10267160052E-01  0.77320791977E-02  0.10304747809E+01  0.10303869327E+01 0.  0.
     999903    2    3    3    0    0 -0.21790024877E-01  0.12978777704E+00  0.46739110025E-02  0.13921616421E+00  0.45162181991E-01 0.  0.
         14    1    1    2    0    0  0.39803638949E-02  0.10267160052E-01 -0.77320791977E-02  0.13455219098E-01  0.00000000000E+00 0.  1.
     999901    1    3    3    0    0  0.17809660982E-01 -0.14005493709E+00  0.30581681952E-02  0.89125861669E+00  0.88000000000E+00 0.  1.
        -11    1    4    4    0    0 -0.17404251827E-01  0.48387936136E-01 -0.18195693454E-01  0.54549470450E-01  0.51100000000E-03 0. -1.
         11    1    4    4    0    0 -0.43857730498E-02  0.81399840901E-01  0.22869604456E-01  0.84666693764E-01  0.51100000000E-03 0.  1.
</event>
<event>
 8    1  0.1993226E+004  0.1043930E+01  0.7957747E-01            NaN
         13   -1    0    0    0    0  0.00000000000E+00  0.00000000000E+00  0.74505805969E-08  0.10566000000E+00  0.10566000000E+00 0. -1.
     999900   -1    0    0    0    0 -0.00000000000E+00 -0.00000000000E+00 -0.74505805969E-08  0.93827000000E+00  0.93827000000E+00 0. -1.
     999902    2    1    2    0    0 -0.97060914078E-02  0.67701489271E-03  0.10064403824E-01  0.10299314721E+01  0.10298363357E+01 0.  0.
     999903    2    3    3    0    0  0.10292165300E+00  0.81857655876E-01  0.26901460281E-02  0.13901638917E+00  0.44997523170E-01 0.  0.
         14    1    1    2    0    0  0.97060914078E-02 -0.67701489271E-03 -0.10064403824E-01  0.13998527919E-01  0.00000000000E+00 0.  1.
     999901    1    3    3    0    0 -0.11262774440E+00 -0.81180640983E-01  0.73742577955E-02  0.89091508291E+00  0.88000000000E+00 0.  1.
        -11    1    4    4    0    0  0.68014540517E-01  0.25492884107E-01  0.33222882085E-02  0.72712884565E-01  0.51100000000E-03 0. -1.
         11    1    4    4    0    0  0.34907112478E-01  0.56364771769E-01 -0.63214218038E-03  0.66303504605E-01  0.51100000000E-03 0.  1.
</event>
<event>
 8    1  0.1993226E+004  0.1043930E+01  0.7957747E-01            NaN
         13   -1    0    0    0    0  0.00000000000E+00  0.00000000000E+00  0.74505805969E-08  0.10566000000E+00  0.10566000000E+00 0. -1.
     999900   -1    0    0    0    0 -0.00000000000E+00 -0.00000000000E+00 -0.74505805969E-08  0.93827000000E+00  0.93827000000E+00 0.  1.
     999902    2    1    2    0    0 -0.23572120229E-02  0.14177305638E-01  0.32297326136E-02  0.10291996362E+01  0.10290942171E+01 0.  0.
     999903    2    3    3    0    0 -0.64775180810E-01 -0.70426677254E-01  0.90484652124E-01  0.13865639882E+00  0.43386446552E-01 0.  0.
         14    1    1    2    0    0  0.23572120229E-02 -0.14177305638E-01 -0.32297326136E-02  0.14730363757E-01  0.00000000000E+00 0.  1.
     999901    1    3    3    0    0  0.62417968787E-01  0.84603982891E-01 -0.87254919511E-01  0.89054323743E+00  0.88000000000E+00 0.  1.
        -11    1    4    4    0    0 -0.16377964112E-01 -0.32203430544E-01  0.59562976617E-01  0.69665687047E-01  0.51100000000E-03 0. -1.
         11    1    4    4    0    0 -0.48397216698E-01 -0.38223246709E-01  0.30921675508E-01  0.68990711768E-01  0.51100000000E-03 0.  1.
</event>
<event>
 8    1  0.1993226E+004  0.1043930E+01  0.7957747E-01            NaN
         13   -1    0    0    0    0  0.00000000000E+00  0.00000000000E+00  0.74505805969E-08  0.10566000000E+00  0.10566000000E+00 0.  1.
     999900   -1    0    0    0    0 -0.00000000000E+00 -0.00000000000E+00 -0.74505805969E-08  0.93827000000E+00  0.93827000000E+00 0.  1.
     999902    2    1    2    0    0 -0.72854757102E-02  0.47733710611E-02  0.10787440950E-01  0.10300652205E+01  0.10299719056E+01 0.  0.
     999903    2    3    3    0    0  0.13368127183E-01 -0.71276230279E-01  0.11205928258E+00  0.14075869346E+00  0.44684663411E-01 0.  0.
         14    1    1    2    0    0  0.72854757102E-02 -0.47733710611E-02 -0.10787440950E-01  0.13864779474E-01  0.00000000000E+00 0. -1.
     999901    1    3    3    0    0 -0.20653602893E-01  0.76049601340E-01 -0.10127184163E+00  0.88930652707E+00  0.88000000000E+00 0. -1.
        -11    1    4    4    0    0  0.14750114455E-01 -0.25003072757E-01  0.13816786228E-01  0.32154070137E-01  0.51100000000E-03 0. -1.
         11    1    4    4    0    0 -0.13819872723E-02 -0.46273157523E-01  0.98242496354E-01  0.10860462332E+00  0.51100000000E-03 0.  1.
</event>
<event>
 8    1  0.1993226E+004  0.1043930E+01  0.7957747E-01            NaN
         13   -1    0    0    0    0  0.00000000000E+00  0.00000000000E+00  0.74505805969E-08  0.10566000000E+00  0.10566000000E+00 0. -1.
     999900   -1    0    0    0    0 -0.00000000000E+00 -0.00000000000E+00 -0.74505805969E-08  0.93827000000E+00  0.93827000000E+00 0. -1.
     999902    2    1    2    0    0  0.16565208354E-02 -0.15581645359E-01  0.43691225398E-03  0.10282544577E+01  0.10281349655E+01 0.  0.
     999903    2    3    3    0    0  0.10982559303E-01  0.11752740489E+00 -0.50536487202E-01  0.13673705368E+00  0.47008273778E-01 0.  0.
         14    1    1    2    0    0 -0.16565208354E-02  0.15581645359E-01 -0.43691225398E-03  0.15675542278E-01  0.00000000000E+00 0. -1.
     999901    1    3    3    0    0 -0.93260384672E-02 -0.13310905024E+00  0.50973399456E-01  0.89151740404E+00  0.88000000000E+00 0.  1.
        -11    1    4    4    0    0  0.25113277265E-01  0.47741021220E-01 -0.33573458211E-01  0.63539908871E-01  0.51100000000E-03 0. -1.
         11    1    4    4    0    0 -0.14130717962E-01  0.69786383665E-01 -0.16963028991E-01  0.73197144813E-01  0.51100000000E-03 0.  1.
</event>
<event>
 8    1  0.1993226E+004  0.1043930E+01  0.7957747E-01            NaN
         13   -1    0    0    0    0  0.00000000000E+00  0.00000000000E+00  0.74505805969E-08  0.10566000000E+00  0.10566000000E+00 0.  1.
     999900   -1    0    0    0    0 -0.00000000000E+00 -0.00000000000E+00 -0.74505805969E-08  0.93827000000E+00  0.93827000000E+00 0. -1.
     999902    2    1    2    0    0  0.14829534997E-01  0.36358134039E-03  0.21125470643E-02  0.10289463371E+01  0.10288372342E+01 0.  0.
     999903    2    3    3    0    0 -0.10137467223E+00  0.64356686122E-01  0.46030946085E-01  0.13792032117E+00  0.49845358640E-01 0.  0.
         14    1    1    2    0    0 -0.14829534997E-01 -0.36358134039E-03 -0.21125470643E-02  0.14983662927E-01  0.00000000000E+00 0. -1.
     999901    1    3    3    0    0  0.11620420722E+00 -0.63993104781E-01 -0.43918399020E-01  0.89102601590E+00  0.88000000000E+00 0. -1.
        -11    1    4    4    0    0 -0.57433434741E-01  0.11360895078E-01  0.75020466107E-02  0.59027207180E-01  0.51100000000E-03 0. -1.
         11    1    4    4    0    0 -0.43941237485E-01  0.52995791044E-01  0.38528899474E-01  0.78893113994E-01  0.51100000000E-03 0.  1.
</event>
<event>
 8    1  0.1993226E+004  0.1043930E+01  0.7957747E-01            NaN
         13   -1    0    0    0    0  0.00000000000E+00  0.00000000000E+00  0.74505805969E-08  0.10566000000E+00  0.10566000000E+00 0. -1.
     999900   -1    0    0    0    0 -0.00000000000E+00 -0.00000000000E+00 -0.74505805969E-08  0.93827000000E+00  0.93827000000E+00 0.  1.
     999902    2    1    2    0    0  0.45675814146E-02 -0.90783225547E-03 -0.16361093536E-01  0.10269190523E+01  0.10267781492E+01 0.  0.
     999903    2    3    3    0    0  0.23456692767E-01  0.12650983287E+00 -0.19793737332E-01  0.13753508408E+00  0.44375140191E-01 0.  0.
         14    1    1    2    0    0 -0.45675814146E-02  0.90783225547E-03  0.16361093536E-01  0.17010947684E-01  0.00000000000E+00 0. -1.
     999901    1    3    3    0    0 -0.18889111352E-01 -0.12741766513E+00  0.34326437956E-02  0.88938396824E+00  0.88000000000E+00 0.  1.
        -11    1    4    4    0    0  0.21862750675E-01  0.12280327598E+00 -0.79226038626E-02  0.12498661221E+00  0.51100000000E-03 0. -1.
         11    1    4    4    0    0  0.15939420914E-02  0.37065568856E-02 -0.11871133469E-01  0.12548471867E-01  0.51100000000E-03 0.  1.
</event>
<event>
 8    1  0.1993226E+004  0.1043930E+01  0.7957747E-01            NaN
         13   -1    0    0    0    0  0.00000000000E+00  0.00000000000E+00  0.74505805969E-08  0.10566000000E+00  0.10566000000E+00 0.  1.
     999900   -1    0    0    0    0 -0.00000000000E+00 -0.00000000000E+00 -0.74505805969E-08  0.93827000000E+00  0.93827000000E+00 0. -1.
     999902    2    1    2    0    0  0.10073741763E-01  0.69143056528E-02  0.60767506989E-02  0.10302839458E+01  0.10301935712E+01 0.  0.
     999903    2    3    3    0    0  0.66710631573E-01 -0.66525985370E-01 -0.93340173459E-01  0.13984307836E+00  0.44358578518E-01 0.  0.
         14    1    1    2    0    0 -0.10073741763E-01 -0.69143056528E-02 -0.60767506989E-02  0.13646054186E-01  0.00000000000E+00 0. -1.
     999901    1    3    3    0    0 -0.56636889809E-01  0.73440291023E-01  0.99416924158E-01  0.89044086746E+00  0.88000000000E+00 0.  1.
        -11    1    4    4    0    0  0.22840405265E-01 -0.10175964185E-01 -0.37779606574E-02  0.25293644804E-01  0.51100000000E-03 0. -1.
         11    1    4    4    0    0  0.43870226308E-01 -0.56350021185E-01 -0.89562212802E-01  0.11454943355E+00  0.51100000000E-03 0.  1.
</event>
<event>
 8    1  0.1993226E+004  0.1043930E+01  0.7957747E-01            NaN
         13   -1    0    0    0    0  0.00000000000E+00  0.00000000000E+00  0.74505805969E-08  0.10566000000E+00  0.10566000000E+00 0. -1.
     999900   -1    0    0    0    0 -0.00000000000E+00 -0.00000000000E+00 -0.74505805969E-08  0.93827000000E+00  0.93827000000E+00 0.  1.
     999902    2    1    2    0    0  0.75834504987E-02  0.69291131370E-02 -0.95849175184E-02  0.10298803746E+01  0.10297845377E+01 0.  0.
     999903    2    3    3    0    0 -0.98566159526E-01  0.17392522061E-02 -0.88699012887E-01  0.13996256128E+00  0.44762605714E-01 0.  0.
         14    1    1    2    0    0 -0.75834504987E-02 -0.69291131370E-02  0.95849175184E-02  0.14049625410E-01  0.00000000000E+00 0.  1.
     999901    1    3    3    0    0  0.10614961002E+00  0.51898609309E-02  0.79114095369E-01  0.88991781331E+00  0.88000000000E+00 0.  1.
        -11    1    4    4    0    0 -0.41237074261E-01 -0.17449174765E-02 -0.98926172090E-02  0.42446036645E-01  0.51100000000E-03 0. -1.
         11    1    4    4    0    0 -0.57329085265E-01  0.34841696826E-02 -0.78806395678E-01  0.97516524633E-01  0.51100000000E-03 0.  1.
</event>
<event>
 8    1  0.1993226E+004  0.1043930E+01  0.7957747E-01            NaN
         13   -1    0    0    0    0  0.00000000000E+00  0.00000000000E+00  0.74505805969E-08  0.10566000000E+00  0.10566000000E+00 0. -1.
     999900   -1    0    0    0    0 -0.00000000000E+00 -0.00000000000E+00 -0.74505805969E-08  0.93827000000E+00  0.93827000000E+00 0. -1.
     999902    2    1    2    0    0  0.22760871702E-01 -0.55388544136E-02 -0.16212685657E-02  0.10204488437E+01  0.10201786500E+01 0.  0.
     999903    2    3    3    0    0  0.11524497583E+00 -0.34169462435E-01  0.38660403422E-01  0.13422334513E+00  0.45522774177E-01 0.  0.
         14    1    1    2    0    0 -0.22760871702E-01  0.55388544136E-02  0.16212685657E-02  0.23481156288E-01  0.00000000000E+00 0. -1.
     999901    1    3    3    0    0 -0.92484104128E-01  0.28630608021E-01 -0.40281671988E-01  0.88622549858E+00  0.88000000000E+00 0. -1.
        -11    1    4    4    0    0  0.53056874508E-01 -0.18426115488E-01 -0.53564818392E-02  0.56422572462E-01  0.51100000000E-03 0.  1.
         11    1    4    4    0    0  0.62188101323E-01 -0.15743346947E-01  0.44016885261E-01  0.77800772672E-01  0.51100000000E-03 0. -1.
</event>
<event>
 8    1  0.1993226E+004  0.1043930E+01  0.7957747E-01            NaN
         13   -1    0    0    0    0  0.00000000000E+00  0.00000000000E+00  0.74505805969E-08  0.10566000000E+00  0.10566000000E+00 0.  1.
     999900   -1    0    0    0    0 -0.00000000000E+00 -0.00000000000E+00 -0.74505805969E-08  0.93827000000E+00  0.93827000000E+00 0. -1.
     999902    2    1    2    0    0  0.93616066593E-02  0.59275538949E-02  0.77125271421E-02  0.10304296797E+01  0.10303412377E+01 0.  0.
     999903    2    3    3    0    0 -0.10723291786E+00 -0.73171329329E-01 -0.20971836684E-01  0.13876062154E+00  0.44291647619E-01 0.  0.
         14    1    1    2    0    0 -0.93616066593E-02 -0.59275538949E-02 -0.77125271421E-02  0.13500320342E-01  0.00000000000E+00 0. -1.
     999901    1    3    3    0    0  0.11659452452E+00  0.79098883224E-01  0.28684363827E-01  0.89166905812E+00  0.88000000000E+00 0.  1.
        -11    1    4    4    0    0 -0.10409172710E+00 -0.65159878698E-01 -0.78441949531E-02  0.12305563765E+00  0.51100000000E-03 0.  1.
         11    1    4    4    0    0 -0.31411907596E-02 -0.80114506306E-02 -0.13127641731E-01  0.15704983891E-01  0.51100000000E-03 0. -1.
</event>
<event>
 8    1  0.1993226E+004  0.1043930E+01  0.7957747E-01            NaN
         13   -1    0    0    0    0  0.00000000000E+00  0.00000000000E+00  0.74505805969E-08  0.10566000000E+00  0.10566000000E+00 0.  1.
     999900   -1    0    0    0    0 -0.00000000000E+00 -0.00000000000E+00 -0.74505805969E-08  0.93827000000E+00  0.93827000000E+00 0. -1.
     999902    2    1    2    0    0 -0.46103431012E-02 -0.11998138545E-02  0.13156792258E-01  0.10299372876E+01  0.10298422309E+01 0.  0.
     999903    2    3    3    0    0  0.11643488921E+00 -0.55008676283E-01  0.30337808136E-01  0.13985721863E+00  0.45349984662E-01 0.  0.
         14    1    1    2    0    0  0.46103431012E-02  0.11998138545E-02 -0.13156792258E-01  0.13992712364E-01  0.00000000000E+00 0. -1.
     999901    1    3    3    0    0 -0.12104523231E+00  0.53808862428E-01 -0.17181015878E-01  0.89008006901E+00  0.88000000000E+00 0. -1.
        -11    1    4    4    0    0  0.49149150945E-01 -0.46287056978E-01  0.24231097950E-01  0.71732404889E-01  0.51100000000E-03 0. -1.
         11    1    4    4    0    0  0.67285738260E-01 -0.87216193054E-02  0.61067101859E-02  0.68124813738E-01  0.51100000000E-03 0.  1.
</event>
<event>
 8    1  0.1993226E+004  0.1043930E+01  0.7957747E-01            NaN
         13   -1    0    0    0    0  0.00000000000E+00  0.00000000000E+00  0.74505805969E-08  0.10566000000E+00  0.10566000000E+00 0. -1.
     999900   -1    0    0    0    0 -0.00000000000E+00 -0.00000000000E+00 -0.74505805969E-08  0.93827000000E+00  0.93827000000E+00 0.  1.
     999902    2    1    2    0    0  0.14786245411E-02  0.72238560805E-02 -0.12406754774E-01  0.10294974676E+01  0.10293962978E+01 0.  0.
     999903    2    3    3    0    0 -0.18298280847E-01  0.10612408081E+00  0.76360132239E-01  0.13929977009E+00  0.44456816582E-01 0.  0.
         14    1    1    2    0    0 -0.14786245411E-02 -0.72238560805E-02  0.12406754774E-01  0.14432532391E-01  0.00000000000E+00 0. -1.
     999901    1    3    3    0    0  0.19776905388E-01 -0.98900224734E-01 -0.88766887013E-01  0.89019769752E+00  0.88000000000E+00 0.  1.
        -11    1    4    4    0    0 -0.19134463694E-02  0.50158677396E-01  0.10413040952E-01  0.51266428957E-01  0.51100000000E-03 0. -1.
         11    1    4    4    0    0 -0.16384834478E-01  0.55965403419E-01  0.65947091287E-01  0.88033341132E-01  0.51100000000E-03 0.  1.
</event>
<event>
 8    1  0.1993226E+004  0.1043930E+01  0.7957747E-01            NaN
         13   -1    0    0    0    0  0.00000000000E+00  0.00000000000E+00  0.74505805969E-08  0.10566000000E+00  0.10566000000E+00 0. -1.
     999900   -1    0    0    0    0 -0.00000000000E+00 -0.00000000000E+00 -0.74505805969E-08  0.93827000000E+00  0.93827000000E+00 0. -1.
     999902    2    1    2    0    0  0.32892641480E-02  0.70070286963E-02 -0.11465566826E-01  0.10300960948E+01  0.10300031979E+01 0.  0.
     999903    2    3    3    0    0  0.45544009748E-01 -0.64705420318E-01 -0.10705255033E+00  0.14101510285E+00  0.46518409883E-01 0.  0.
         14    1    1    2    0    0 -0.32892641480E-02 -0.70070286963E-02  0.11465566826E-01  0.13833905176E-01  0.00000000000E+00 0. -1.
     999901    1    3    3    0    0 -0.42254745600E-01  0.71712449015E-01  0.95586983503E-01  0.88908099197E+00  0.88000000000E+00 0.  1.
        -11    1    4    4    0    0  0.23750729210E-01 -0.53033702671E-02 -0.50882500959E-01  0.56404901375E-01  0.51100000000E-03 0. -1.
         11    1    4    4    0    0  0.21793280537E-01 -0.59402050051E-01 -0.56170049370E-01  0.84610201478E-01  0.51100000000E-03 0.  1.
</event>
<event>
 8    1  0.1993226E+004  0.1043930E+01  0.7957747E-01            NaN
         13   -1    0    0    0    0  0.00000000000E+00  0.00000000000E+00  0.74505805969E-08  0.10566000000E+00  0.10566000000E+00 0. -1.
     999900   -1    0    0    0    0 -0.00000000000E+00 -0.00000000000E+00 -0.74505805969E-08  0.93827000000E+00  0.93827000000E+00 0. -1.
     999902    2    1    2    0    0 -0.60750010492E-02 -0.11208639592E-01 -0.29691932778E-02  0.10308397232E+01  0.10307566054E+01 0.  0.
     999903    2    3    3    0    0 -0.44730044944E-01  0.64233840450E-01  0.10724109321E+00  0.13992329191E+00  0.44171397585E-01 0.  0.
         14    1    1    2    0    0  0.60750010492E-02  0.11208639592E-01  0.29691932778E-02  0.13090276849E-01  0.00000000000E+00 0.  1.
     999901    1    3    3    0    0  0.38655043894E-01 -0.75442480043E-01 -0.11021028649E+00  0.89091643124E+00  0.88000000000E+00 0. -1.
        -11    1    4    4    0    0 -0.47177218818E-01  0.31239763930E-01  0.63067971607E-01  0.84731593808E-01  0.51100000000E-03 0. -1.
         11    1    4    4    0    0  0.24471738740E-02  0.32994076521E-01  0.44173121607E-01  0.55191698098E-01  0.51100000000E-03 0.  1.
</event>
<event>
 8    1  0.2853815E+004  0.1043930E+01  0.7957747E-01            NaN
         13   -1    0    0    0    0  0.00000000000E+00  0.00000000000E+00  0.74505805969E-08  0.10566000000E+00  0.10566000000E+00 0.  1.
     999900   -1    0    0    0    0 -0.00000000000E+00 -0.00000000000E+00 -0.74505805969E-08  0.93827000000E+00  0.93827000000E+00 0.  1.
     999902    2    1    2    0    0 -0.74917261802E-02 -0.90269384630E-02  0.63943802521E-02  0.10305696228E+01  0.10304830168E+01 0.  0.
     999903    2    3    3    0    0  0.91800249789E-01  0.70162913856E-01 -0.62428988115E-01  0.13879241678E+00  0.44898062956E-01 0.  0.
         14    1    1    2    0    0  0.74917261802E-02  0.90269384630E-02 -0.63943802521E-02  0.13360377165E-01  0.00000000000E+00 0. -1.
     999901    1    3    3    0    0 -0.99291975969E-01 -0.79189852319E-01  0.68823368367E-01  0.89177720605E+00  0.88000000000E+00 0.  1.
        -11    1    4    4    0    0  0.33067564671E-01  0.21681552140E-01  0.11815164474E-02  0.39562743062E-01  0.51100000000E-03 0. -1.
         11    1    4    4    0    0  0.58732685118E-01  0.48481361716E-01 -0.63610504562E-01  0.99229673720E-01  0.51100000000E-03 0.  1.
</event>
<event>
 8    1  0.1993226E+004  0.1043930E+01  0.7957747E-01            NaN
         13   -1    0    0    0    0  0.00000000000E+00  0.00000000000E+00  0.74505805969E-08  0.10566000000E+00  0.10566000000E+00 0.  1.
     999900   -1    0    0    0    0 -0.00000000000E+00 -0.00000000000E+00 -0.74505805969E-08  0.93827000000E+00  0.93827000000E+00 0. -1.
     999902    2    1    2    0    0 -0.13574968947E-02 -0.13111805798E-01 -0.46881857471E-02  0.10299392411E+01  0.10298442110E+01 0.  0.
     999903    2    3    3    0    0  0.67457785738E-01  0.77701502400E-01 -0.80667892162E-01  0.13934645207E+00  0.48187638954E-01 0.  0.
         14    1    1    2    0    0  0.13574968947E-02  0.13111805798E-01  0.46881857471E-02  0.13990758904E-01  0.00000000000E+00 0.  1.
     999901    1    3    3    0    0 -0.68815282633E-01 -0.90813308198E-01  0.75979706415E-01  0.89059278902E+00  0.88000000000E+00 0.  1.
        -11    1    4    4    0    0  0.35592680151E-01  0.83994083068E-02 -0.18746856097E-01  0.41098596993E-01  0.51100000000E-03 0. -1.
         11    1    4    4    0    0  0.31865105587E-01  0.69302094093E-01 -0.61921036066E-01  0.98247855082E-01  0.51100000000E-03 0.  1.
</event>
<event>
 8    1  0.1993226E+004  0.1043930E+01  0.7957747E-01            NaN
         13   -1    0    0    0    0  0.00000000000E+00  0.00000000000E+00  0.74505805969E-08  0.10566000000E+00  0.10566000000E+00 0.  1.
     999900   -1    0    0    0    0 -0.00000000000E+00 -0.00000000000E+00 -0.74505805969E-08  0.93827000000E+00  0.93827000000E+00 0.  1.
     999902    2    1    2    0    0 -0.40537868605E-02 -0.11508317314E-01  0.88907299163E-02  0.10288329926E+01  0.10287222205E+01 0.  0.
     999903    2    3    3    0    0 -0.21239289914E-01  0.19438030324E-01 -0.12703316335E+00  0.13769421397E+00  0.44646696526E-01 0.  0.
         14    1    1    2    0    0  0.40537868605E-02  0.11508317314E-01 -0.88907299163E-02  0.15097007444E-01  0.00000000000E+00 0.  1.
     999901    1    3    3    0    0  0.17185503053E-01 -0.30946347638E-01  0.13592389326E+00  0.89113877859E+00  0.88000000000E+00 0. -1.
        -11    1    4    4    0    0  0.12581870877E-01 -0.35971486615E-03 -0.19241931566E-01  0.22998824339E-01  0.51100000000E-03 0. -1.
         11    1    4    4    0    0 -0.33821160791E-01  0.19797745190E-01 -0.10779123178E+00  0.11469538963E+00  0.51100000000E-03 0.  1.
</event>
<event>
 8    1  0.1993226E+004  0.1043930E+01  0.7957747E-01            NaN
         13   -1    0    0    0    0  0.00000000000E+00  0.00000000000E+00  0.74505805969E-08  0.10566000000E+00  0.10566000000E+00 0. -1.
     999900   -1    0    0    0    0 -0.00000000000E+00 -0.00000000000E+00 -0.74505805969E-08  0.93827000000E+00  0.93827000000E+00 0. -1.
     999902    2    1    2    0    0 -0.43471626452E-02  0.95842127898E-02  0.78716739391E-02  0.10307877700E+01  0.10307039869E+01 0.  0.
     999903    2    3    3    0    0  0.13039056628E+00  0.33098010528E-02 -0.27416571956E-01  0.13981140439E+00  0.42224469462E-01 0.  0.
         14    1    1    2    0    0  0.43471626452E-02 -0.95842127898E-02 -0.78716739391E-02  0.13142229966E-01  0.00000000000E+00 0.  1.
     999901    1    3    3    0    0 -0.13473772893E+00  0.62744117370E-02  0.35288245895E-01  0.89097636564E+00  0.88000000000E+00 0.  1.
        -11    1    4    4    0    0  0.55190069851E-01  0.39043726664E-02  0.93264255172E-02  0.56110883704E-01  0.51100000000E-03 0.  1.
         11    1    4    4    0    0  0.75200496431E-01 -0.59457161358E-03 -0.36742997473E-01  0.83700520686E-01  0.51100000000E-03 0. -1.
</event>
<event>
 8    1  0.1993226E+004  0.1043930E+01  0.7957747E-01            NaN
         13   -1    0    0    0    0  0.00000000000E+00  0.00000000000E+00  0.74505805969E-08  0.10566000000E+00  0.10566000000E+00 0.  1.
     999900   -1    0    0    0    0 -0.00000000000E+00 -0.00000000000E+00 -0.74505805969E-08  0.93827000000E+00  0.93827000000E+00 0.  1.
     999902    2    1    2    0    0 -0.28596559144E-05  0.13628059430E-01  0.20382658979E-02  0.10301503578E+01  0.10300581931E+01 0.  0.
     999903    2    3    3    0    0 -0.13190781570E+00  0.11749024302E-01  0.94623645146E-02  0.14028656739E+00  0.45310851138E-01 0.  0.
         14    1    1    2    0    0  0.28596559144E-05 -0.13628059430E-01 -0.20382658979E-02  0.13779642226E-01  0.00000000000E+00 0. -1.
     999901    1    3    3    0    0  0.13190495605E+00  0.18790351279E-02 -0.74240986168E-02  0.88986379039E+00  0.88000000000E+00 0. -1.
        -11    1    4    4    0    0 -0.56201728745E-01 -0.16229650138E-01 -0.31960534182E-02  0.58587641495E-01  0.51100000000E-03 0.  1.
         11    1    4    4    0    0 -0.75706086959E-01  0.27978674441E-01  0.12658417933E-01  0.81698925891E-01  0.51100000000E-03 0. -1.
</event>
<event>
 8    1  0.1993226E+004  0.1043930E+01  0.7957747E-01            NaN
         13   -1    0    0    0    0  0.00000000000E+00  0.00000000000E+00  0.74505805969E-08  0.10566000000E+00  0.10566000000E+00 0. -1.
     999900   -1    0    0    0    0 -0.00000000000E+00 -0.00000000000E+00 -0.74505805969E-08  0.93827000000E+00  0.93827000000E+00 0.  1.
     999902    2    1    2    0    0 -0.54463107575E-02  0.46744453506E-02  0.50478810685E-02  0.10351553864E+01  0.10351181962E+01 0.  0.
     999903    2    3    3    0    0  0.51450049819E-01  0.12593435284E+00 -0.19891767786E-01  0.14467060435E+00  0.45025909040E-01 0.  0.
         14    1    1    2    0    0  0.54463107575E-02 -0.46744453506E-02 -0.50478810685E-02  0.87746135804E-02  0.00000000000E+00 0.  1.
     999901    1    3    3    0    0 -0.56896360576E-01 -0.12125990749E+00  0.24939648855E-01  0.89048478207E+00  0.88000000000E+00 0.  1.
        -11    1    4    4    0    0  0.26139152776E-01  0.67312922166E-01  0.12151861749E-01  0.73227137479E-01  0.51100000000E-03 0. -1.
         11    1    4    4    0    0  0.25310897042E-01  0.58621430678E-01 -0.32043629535E-01  0.71443466871E-01  0.51100000000E-03 0.  1.
</event>
<event>
 8    1  0.1993226E+004  0.1043930E+01  0.7957747E-01            NaN
         13   -1    0    0    0    0  0.00000000000E+00  0.00000000000E+00  0.74505805969E-08  0.10566000000E+00  0.10566000000E+00 0.  1.
     999900   -1    0    0    0    0 -0.00000000000E+00 -0.00000000000E+00 -0.74505805969E-08  0.93827000000E+00  0.93827000000E+00 0.  1.
     999902    2    1    2    0    0 -0.14971105973E-01  0.10394522837E-01 -0.11263910335E-01  0.10225044126E+01  0.10222799118E+01 0.  0.
     999903    2    3    3    0    0  0.65355217863E-01 -0.14452386778E-01  0.10326805020E+00  0.13110817232E+00  0.45220423154E-01 0.  0.
         14    1    1    2    0    0  0.14971105973E-01 -0.10394522837E-01  0.11263910335E-01  0.21425587392E-01  0.00000000000E+00 0.  1.
     999901    1    3    3    0    0 -0.80326323836E-01  0.24846909615E-01 -0.11453196054E+00  0.89139624029E+00  0.88000000000E+00 0.  1.
        -11    1    4    4    0    0  0.19179475437E-01  0.15254053988E-01  0.21439633492E-01  0.32564665611E-01  0.51100000000E-03 0. -1.
         11    1    4    4    0    0  0.46175742426E-01 -0.29706440765E-01  0.81828416712E-01  0.98543506707E-01  0.51100000000E-03 0.  1.
</event>
<event>
 8    1  0.1993226E+004  0.1043930E+01  0.7957747E-01            NaN
         13   -1    0    0    0    0  0.00000000000E+00  0.00000000000E+00  0.74505805969E-08  0.10566000000E+00  0.10566000000E+00 0. -1.
     999900   -1    0    0    0    0 -0.00000000000E+00 -0.00000000000E+00 -0.74505805969E-08  0.93827000000E+00  0.93827000000E+00 0. -1.
     999902    2    1    2    0    0 -0.29465888408E-02  0.30993205019E-02  0.12406333754E-01  0.10308072987E+01  0.10307237659E+01 0.  0.
     999903    2    3    3    0    0  0.10327414125E+00  0.67990774420E-01  0.51161505231E-01  0.14120305653E+00  0.45083366107E-01 0.  0.
         14    1    1    2    0    0  0.29465888408E-02 -0.30993205019E-02 -0.12406333754E-01  0.13122701345E-01  0.00000000000E+00 0.  1.
     999901    1    3    3    0    0 -0.10622073009E+00 -0.64891453918E-01 -0.38755171476E-01  0.88960424213E+00  0.88000000000E+00 0.  1.
        -11    1    4    4    0    0  0.37487460820E-01  0.55665250899E-02  0.29319292639E-01  0.47918451166E-01  0.51100000000E-03 0. -1.
         11    1    4    4    0    0  0.65786680426E-01  0.62424249330E-01  0.21842212591E-01  0.93284605363E-01  0.51100000000E-03 0.  1.
</event>
<event>
 8    1  0.1993226E+004  0.1043930E+01  0.7957747E-01            NaN
         13   -1    0    0    0    0  0.00000000000E+00  0.00000000000E+00  0.74505805969E-08  0.10566000000E+00  0.10566000000E+00 0.  1.
     999900   -1    0    0    0    0 -0.00000000000E+00 -0.00000000000E+00 -0.74505805969E-08  0.93827000000E+00  0.93827000000E+00 0. -1.
     999902    2    1    2    0    0 -0.13212803845E-01 -0.51586028150E-02  0.46591486387E-02  0.10290002634E+01  0.10288919501E+01 0.  0.
     999903    2    3    3    0    0 -0.11242582416E-01  0.73664819247E-01  0.10905743402E+00  0.13932840502E+00  0.44339364838E-01 0.  0.
         14    1    1    2    0    0  0.13212803845E-01  0.51586028150E-02 -0.46591486387E-02  0.14929736585E-01  0.00000000000E+00 0.  1.
     999901    1    3    3    0    0 -0.19702214290E-02 -0.78823422062E-01 -0.10439828538E+00  0.88967185840E+00  0.88000000000E+00 0. -1.
        -11    1    4    4    0    0 -0.65495468950E-02  0.59457233581E-02  0.45434988050E-01  0.46290900303E-01  0.51100000000E-03 0.  1.
         11    1    4    4    0    0 -0.46930355209E-02  0.67719095889E-01  0.63622445974E-01  0.93037504712E-01  0.51100000000E-03 0. -1.
</event>
<event>
 8    1  0.1993226E+004  0.1043930E+01  0.7957747E-01            NaN
         13   -1    0    0    0    0  0.00000000000E+00  0.00000000000E+00  0.74505805969E-08  0.10566000000E+00  0.10566000000E+00 0. -1.
     999900   -1    0    0    0    0 -0.00000000000E+00 -0.00000000000E+00 -0.74505805969E-08  0.93827000000E+00  0.93827000000E+00 0. -1.
     999902    2    1    2    0    0  0.80175747884E-02 -0.10462758420E-01 -0.30705878268E-02  0.10303956242E+01  0.10303067325E+01 0.  0.
     999903    2    3    3    0    0 -0.12211168637E+00  0.44175626896E-01  0.17835088682E-01  0.13890472402E+00  0.45974797513E-01 0.  0.
         14    1    1    2    0    0 -0.80175747884E-02  0.10462758420E-01  0.30705878268E-02  0.13534375820E-01  0.00000000000E+00 0. -1.
     999901    1    3    3    0    0  0.13012926116E+00 -0.54638385316E-01 -0.20905676509E-01  0.89149090016E+00  0.88000000000E+00 0. -1.
        -11    1    4    4    0    0 -0.52390219269E-01  0.33347229496E-01  0.27061619906E-01  0.67744853554E-01  0.51100000000E-03 0. -1.
         11    1    4    4    0    0 -0.69721467102E-01  0.10828397400E-01 -0.92265312237E-02  0.71159870464E-01  0.51100000000E-03 0.  1.
</event>
<event>
 8    1  0.1993226E+004  0.1043930E+01  0.7957747E-01            NaN
         13   -1    0    0    0    0  0.00000000000E+00  0.00000000000E+00  0.74505805969E-08  0.10566000000E+00  0.10566000000E+00 0.  1.
     999900   -1    0    0    0    0 -0.00000000000E+00 -0.00000000000E+00 -0.74505805969E-08  0.93827000000E+00  0.93827000000E+00 0.  1.
     999902    2    1    2    0    0  0.87283773406E-02 -0.16833680033E-02  0.11634616353E-01  0.10292881901E+01  0.10291840437E+01 0.  0.
     999903    2    3    3    0    0 -0.91373904326E-01 -0.19405330587E-01  0.93597137706E-01  0.13965209055E+00  0.44905734171E-01 0.  0.
         14    1    1    2    0    0 -0.87283773406E-02  0.16833680033E-02 -0.11634616353E-01  0.14641809879E-01  0.00000000000E+00 0. -1.
     999901    1    3    3    0    0  0.10010228167E+00  0.17721962583E-01 -0.81962521353E-01  0.88963609957E+00  0.88000000000E+00 0.  1.
        -11    1    4    4    0    0 -0.43519557218E-01 -0.68307813077E-03  0.15582358960E-01  0.46232991336E-01  0.51100000000E-03 0.  1.
         11    1    4    4    0    0 -0.47854347108E-01 -0.18722252456E-01  0.78014778746E-01  0.93419099214E-01  0.51100000000E-03 0. -1.
</event>
<event>
 8    1  0.1993226E+004  0.1043930E+01  0.7957747E-01            NaN
         13   -1    0    0    0    0  0.00000000000E+00  0.00000000000E+00  0.74505805969E-08  0.10566000000E+00  0.10566000000E+00 0.  1.
     999900   -1    0    0    0    0 -0.00000000000E+00 -0.00000000000E+00 -0.74505805969E-08  0.93827000000E+00  0.93827000000E+00 0. -1.
     999902    2    1    2    0    0  0.13275177406E-02 -0.12759897647E-01 -0.24876936433E-02  0.10308622569E+01  0.10307794268E+01 0.  0.
     999903    2    3    3    0    0 -0.10337098717E+00  0.17517886728E-02 -0.84462432464E-01  0.14075427252E+00  0.44600818184E-01 0.  0.
         14    1    1    2    0    0 -0.13275177406E-02  0.12759897647E-01  0.24876936433E-02  0.13067743148E-01  0.00000000000E+00 0. -1.
     999901    1    3    3    0    0  0.10469850491E+00 -0.14511686320E-01  0.81974738821E-01  0.89010798433E+00  0.88000000000E+00 0.  1.
        -11    1    4    4    0    0 -0.76097120222E-01  0.72081098931E-02 -0.83088701737E-01  0.11290138189E+00  0.51100000000E-03 0. -1.
         11    1    4    4    0    0 -0.27273866947E-01 -0.54563212203E-02 -0.13737307266E-02  0.27852890633E-01  0.51100000000E-03 0.  1.
</event>
<event>
 8    1  0.2079120E+004  0.1043930E+01  0.7957747E-01            NaN
         13   -1    0    0    0    0  0.00000000000E+00  0.00000000000E+00  0.74505805969E-08  0.10566000000E+00  0.10566000000E+00 0.  1.
     999900   -1    0    0    0    0 -0.00000000000E+00 -0.00000000000E+00 -0.74505805969E-08  0.93827000000E+00  0.93827000000E+00 0. -1.
     999902    2    1    2    0    0 -0.30762013339E-02  0.90482467219E-02  0.10949167990E-01  0.10293966569E+01  0.10292940586E+01 0.  0.
     999903    2    3    3    0    0 -0.77615661064E-01 -0.10459274014E+00 -0.27364715776E-01  0.13814003913E+00  0.37013654340E-01 0.  0.
         14    1    1    2    0    0  0.30762013339E-02 -0.90482467219E-02 -0.10949167990E-01  0.14533343148E-01  0.00000000000E+00 0. -1.
     999901    1    3    3    0    0  0.74539459731E-01  0.11364098686E+00  0.38313883766E-01  0.89125661773E+00  0.88000000000E+00 0. -1.
        -11    1    4    4    0    0 -0.25544836834E-01 -0.63595568435E-01 -0.74630950102E-02  0.68941235277E-01  0.51100000000E-03 0. -1.
         11    1    4    4    0    0 -0.52070824231E-01 -0.40997171705E-01 -0.19901620766E-01  0.69198803848E-01  0.51100000000E-03 0.  1.
</event>
<event>
 8    1  0.1993226E+004  0.1043930E+01  0.7957747E-01            NaN
         13   -1    0    0    0    0  0.00000000000E+00  0.00000000000E+00  0.74505805969E-08  0.10566000000E+00  0.10566000000E+00 0.  1.
     999900   -1    0    0    0    0 -0.00000000000E+00 -0.00000000000E+00 -0.74505805969E-08  0.93827000000E+00  0.93827000000E+00 0. -1.
     999902    2    1    2    0    0 -0.74853744361E-02 -0.78933663985E-02  0.70659399084E-02  0.10309583551E+01  0.10308767465E+01 0.  0.
     999903    2    3    3    0    0  0.43479819814E-02 -0.30788667514E-02  0.13410241635E+00  0.14174439097E+00  0.45602959680E-01 0.  0.
         14    1    1    2    0    0  0.74853744361E-02  0.78933663985E-02 -0.70659399084E-02  0.12971644859E-01  0.00000000000E+00 0. -1.
     999901    1    3    3    0    0 -0.11833356418E-01 -0.48144996471E-02 -0.12703647645E+00  0.88921396417E+00  0.88000000000E+00 0. -1.
        -11    1    4    4    0    0  0.12123728329E-01 -0.25451578219E-02  0.13331915842E+00  0.13389444253E+00  0.51100000000E-03 0.  1.
         11    1    4    4    0    0 -0.77757463480E-02 -0.53370892943E-03  0.78325792962E-03  0.78499484376E-02  0.51100000000E-03 0. -1.
</event>
<event>
 8    1  0.1993226E+004  0.1043930E+01  0.7957747E-01            NaN
         13   -1    0    0    0    0  0.00000000000E+00  0.00000000000E+00  0.74505805969E-08  0.10566000000E+00  0.10566000000E+00 0.  1.
     999900   -1    0    0    0    0 -0.00000000000E+00 -0.00000000000E+00 -0.74505805969E-08  0.93827000000E+00  0.93827000000E+00 0. -1.
     999902    2    1    2    0    0 -0.99298210987E-02 -0.21524993200E-02 -0.93151590352E-02  0.10301457050E+01  0.10300534776E+01 0.  0.
     999903    2    3    3    0    0 -0.64071922293E-01 -0.11004205660E+00  0.39183979007E-01  0.14058194109E+00  0.44871288196E-01 0.  0.
         14    1    1    2    0    0  0.99298210987E-02  0.21524993200E-02  0.93151590352E-02  0.13784294985E-01  0.00000000000E+00 0.  1.
     999901    1    3    3    0    0  0.54142101194E-01  0.10788955728E+00 -0.48499138043E-01  0.88956376392E+00  0.88000000000E+00 0. -1.
        -11    1    4    4    0    0 -0.42665025389E-01 -0.88973919807E-01  0.47355370211E-01  0.10945069669E+00  0.51100000000E-03 0.  1.
         11    1    4    4    0    0 -0.21406896904E-01 -0.21068136791E-01 -0.81713912040E-02  0.31131244403E-01  0.51100000000E-03 0. -1.
</event>
<event>
 8    1  0.1993226E+004  0.1043930E+01  0.7957747E-01            NaN
         13   -1    0    0    0    0  0.00000000000E+00  0.00000000000E+00  0.74505805969E-08  0.10566000000E+00  0.10566000000E+00 0.  1.
     999900   -1    0    0    0    0 -0.00000000000E+00 -0.00000000000E+00 -0.74505805969E-08  0.93827000000E+00  0.93827000000E+00 0. -1.
     999902    2    1    2    0    0  0.56188039199E-02 -0.11143849773E-02  0.15917003469E-02  0.10379847228E+01  0.10379676962E+01 0.  0.
     999903    2    3    3    0    0 -0.63414438664E-01 -0.52521674287E-01 -0.11236306578E+00  0.14647253177E+00  0.45263967012E-01 0.  0.
         14    1    1    2    0    0 -0.56188039199E-02  0.11143849773E-02 -0.15917003469E-02  0.59452772318E-02  0.00000000000E+00 0.  1.
     999901    1    3    3    0    0  0.69033242584E-01  0.51407289309E-01  0.11395476613E+00  0.89151219100E+00  0.88000000000E+00 0.  1.
        -11    1    4    4    0    0 -0.11418735690E-01 -0.21438058587E-01 -0.65565095624E-01  0.69921532920E-01  0.51100000000E-03 0.  1.
         11    1    4    4    0    0 -0.51995702974E-01 -0.31083615700E-01 -0.46797970160E-01  0.76550998849E-01  0.51100000000E-03 0. -1.
</event>
<event>
 8    1  0.1993226E+004  0.1043930E+01  0.7957747E-01            NaN
         13   -1    0    0    0    0  0.00000000000E+00  0.00000000000E+00  0.74505805969E-08  0.10566000000E+00  0.10566000000E+00 0.  1.
     999900   -1    0    0    0    0 -0.00000000000E+00 -0.00000000000E+00 -0.74505805969E-08  0.93827000000E+00  0.93827000000E+00 0.  1.
     999902    2    1    2    0    0  0.19500341698E-02 -0.88320586189E-02  0.10336790860E-01  0.10301947483E+01  0.10301031805E+01 0.  0.
     999903    2    3    3    0    0 -0.46330012931E-01 -0.10615752163E+00  0.67984146892E-01  0.14164175254E+00  0.44996136924E-01 0.  0.
         14    1    1    2    0    0 -0.19500341698E-02  0.88320586189E-02 -0.10336790860E-01  0.13735251654E-01  0.00000000000E+00 0. -1.
     999901    1    3    3    0    0  0.48280047101E-01  0.97325463007E-01 -0.57647356031E-01  0.88855299581E+00  0.88000000000E+00 0.  1.
        -11    1    4    4    0    0  0.66143668677E-02 -0.32491922815E-01  0.13400243610E-01  0.35767339111E-01  0.51100000000E-03 0.  1.
         11    1    4    4    0    0 -0.52944379799E-01 -0.73665598811E-01  0.54583903282E-01  0.10587441343E+00  0.51100000000E-03 0. -1.
</event>
<event>
 8    1  0.1993226E+004  0.1043930E+01  0.7957747E-01            NaN
         13   -1    0    0    0    0  0.00000000000E+00  0.00000000000E+00  0.74505805969E-08  0.10566000000E+00  0.10566000000E+00 0. -1.
     999900   -1    0    0    0    0 -0.00000000000E+00 -0.00000000000E+00 -0.74505805969E-08  0.93827000000E+00  0.93827000000E+00 0. -1.
     999902    2    1    2    0    0  0.24870210012E-03  0.24895024700E-02  0.10514513825E-01  0.10331219254E+01  0.10330653892E+01 0.  0.
     999903    2    3    3    0    0 -0.11657982276E+00 -0.67895221070E-01 -0.84033090056E-02  0.14241389382E+00  0.44838436992E-01 0.  0.
         14    1    1    2    0    0 -0.24870210012E-03 -0.24895024700E-02 -0.10514513825E-01  0.10808074586E-01  0.00000000000E+00 0.  1.
     999901    1    3    3    0    0  0.11682852486E+00  0.70384723540E-01  0.18917822831E-01  0.89070803160E+00  0.88000000000E+00 0. -1.
        -11    1    4    4    0    0 -0.32753875240E-01 -0.44101031132E-01 -0.77518684041E-03  0.54941599229E-01  0.51100000000E-03 0.  1.
         11    1    4    4    0    0 -0.83825947517E-01 -0.23794189938E-01 -0.76281221652E-02  0.87472294589E-01  0.51100000000E-03 0. -1.
</event>
<event>
 8    1  0.1993226E+004  0.1043930E+01  0.7957747E-01            NaN
         13   -1    0    0    0    0  0.00000000000E+00  0.00000000000E+00  0.74505805969E-08  0.10566000000E+00  0.10566000000E+00 0.  1.
     999900   -1    0    0    0    0 -0.00000000000E+00 -0.00000000000E+00 -0.74505805969E-08  0.93827000000E+00  0.93827000000E+00 0. -1.
     999902    2    1    2    0    0  0.10607764220E-01 -0.97566197247E-03 -0.90289512323E-02  0.10299658123E+01  0.10298711453E+01 0.  0.
     999903    2    3    3    0    0 -0.36775382829E-01  0.12127040971E+00  0.36539421773E-01  0.13908661662E+00  0.44170312722E-01 0.  0.
         14    1    1    2    0    0 -0.10607764220E-01  0.97566197247E-03  0.90289512323E-02  0.13964187709E-01  0.00000000000E+00 0.  1.
     999901    1    3    3    0    0  0.47383147049E-01 -0.12224607168E+00 -0.45568373005E-01  0.89087919567E+00  0.88000000000E+00 0.  1.
        -11    1    4    4    0    0 -0.45176708701E-01  0.80676368058E-01  0.21059589175E-01  0.94833426540E-01  0.51100000000E-03 0. -1.
         11    1    4    4    0    0  0.84013258721E-02  0.40594041648E-01  0.15479832598E-01  0.44253190077E-01  0.51100000000E-03 0.  1.
</event>
<event>
 8    1  0.1993226E+004  0.1043930E+01  0.7957747E-01            NaN
         13   -1    0    0    0    0  0.00000000000E+00  0.00000000000E+00  0.74505805969E-08  0.10566000000E+00  0.10566000000E+00 0.  1.
     999900   -1    0    0    0    0 -0.00000000000E+00 -0.00000000000E+00 -0.74505805969E-08  0.93827000000E+00  0.93827000000E+00 0. -1.
     999902    2    1    2    0    0  0.99852074254E-02  0.88468371523E-02 -0.11538401879E-02  0.10305396213E+01  0.10304526233E+01 0.  0.
     999903    2    3    3    0    0  0.85886325020E-01  0.93227603653E-01 -0.46277637731E-01  0.14210433917E+00  0.44544096668E-01 0.  0.
         14    1    1    2    0    0 -0.99852074254E-02 -0.88468371523E-02  0.11538401879E-02  0.13390378714E-01  0.00000000000E+00 0. -1.
     999901    1    3    3    0    0 -0.75901117595E-01 -0.84380766501E-01  0.45123797543E-01  0.88843528212E+00  0.88000000000E+00 0.  1.
        -11    1    4    4    0    0  0.71810532371E-01  0.82860200777E-01 -0.54877961794E-01  0.12261491444E+00  0.51100000000E-03 0. -1.
         11    1    4    4    0    0  0.14075792650E-01  0.10367402877E-01  0.86003240634E-02  0.19489424725E-01  0.51100000000E-03 0.  1.
</event>
<event>
 8    1  0.1993226E+004  0.1043930E+01  0.7957747E-01            NaN
         13   -1    0    0    0    0  0.00000000000E+00  0.00000000000E+00  0.74505805969E-08  0.10566000000E+00  0.10566000000E+00 0.  1.
     999900   -1    0    0    0    0 -0.00000000000E+00 -0.00000000000E+00 -0.74505805969E-08  0.93827000000E+00  0.93827000000E+00 0.  1.
     999902    2    1    2    0    0 -0.68704007759E-02 -0.92059654270E-02  0.73636282903E-02  0.10302853957E+01  0.10301950404E+01 0.  0.
     999903    2    3    3    0    0 -0.59231082032E-01 -0.17546429767E-01 -0.11697589887E+00  0.13996437360E+00  0.45721621650E-01 0.  0.
         14    1    1    2    0    0  0.68704007759E-02  0.92059654270E-02 -0.73636282903E-02  0.13644604350E-01  0.00000000000E+00 0.  1.
     999901    1    3    3    0    0  0.52360681256E-01  0.83404643402E-02  0.12433952716E+00  0.89032102205E+00  0.88000000000E+00 0.  1.
        -11    1    4    4    0    0 -0.97613565053E-02 -0.18070926631E-02 -0.67569785373E-01  0.68297047382E-01  0.51100000000E-03 0.  1.
         11    1    4    4    0    0 -0.49469725527E-01 -0.15739337104E-01 -0.49406113492E-01  0.71667326220E-01  0.51100000000E-03 0. -1.
</event>
<event>
 8    1  0.1993226E+004  0.1043930E+01  0.7957747E-01            NaN
         13   -1    0    0    0    0  0.00000000000E+00  0.00000000000E+00  0.74505805969E-08  0.10566000000E+00  0.10566000000E+00 0. -1.
     999900   -1    0    0    0    0 -0.00000000000E+00 -0.00000000000E+00 -0.74505805969E-08  0.93827000000E+00  0.93827000000E+00 0.  1.
     999902    2    1    2    0    0 -0.12441974137E-01 -0.50487513238E-02  0.35624925260E-02  0.10300381332E+01  0.10299444509E+01 0.  0.
     999903    2    3    3    0    0 -0.83529221987E-02  0.95647517535E-01  0.89261506704E-01  0.14015006161E+00  0.49560107665E-01 0.  0.
         14    1    1    2    0    0  0.12441974137E-01  0.50487513238E-02 -0.35624925260E-02  0.13891866806E-01  0.00000000000E+00 0. -1.
     999901    1    3    3    0    0 -0.40890519383E-02 -0.10069626886E+00 -0.85699014178E-01  0.88988807158E+00  0.88000000000E+00 0.  1.
        -11    1    4    4    0    0 -0.28909853957E-01  0.46541688656E-01  0.46576012618E-01  0.71913103890E-01  0.51100000000E-03 0. -1.
         11    1    4    4    0    0  0.20556931758E-01  0.49105828879E-01  0.42685494085E-01  0.68236957725E-01  0.51100000000E-03 0.  1.
</event>
<event>
 8    1  0.1993226E+004  0.1043930E+01  0.7957747E-01            NaN
         13   -1    0    0    0    0  0.00000000000E+00  0.00000000000E+00  0.74505805969E-08  0.10566000000E+00  0.10566000000E+00 0.  1.
     999900   -1    0    0    0    0 -0.00000000000E+00 -0.00000000000E+00 -0.74505805969E-08  0.93827000000E+00  0.93827000000E+00 0. -1.
     999902    2    1    2    0    0 -0.61427273636E-02  0.61408766884E-02  0.27061272269E-01  0.10155089528E+01  0.10151111650E+01 0.  0.
     999903    2    3    3    0    0  0.83900048416E-01  0.55478604946E-01  0.66546512736E-01  0.12866003834E+00  0.44809300123E-01 0.  0.
         14    1    1    2    0    0  0.61427273636E-02 -0.61408766884E-02 -0.27061272269E-01  0.28421047179E-01  0.00000000000E+00 0.  1.
     999901    1    3    3    0    0 -0.90042775780E-01 -0.49337728258E-01 -0.39485240467E-01  0.88684891448E+00  0.88000000000E+00 0. -1.
        -11    1    4    4    0    0  0.83663715699E-01  0.45306018665E-01  0.45902299156E-01  0.10563869954E+00  0.51100000000E-03 0.  1.
         11    1    4    4    0    0  0.23633271675E-03  0.10172586281E-01  0.20644213580E-01  0.23021338800E-01  0.51100000000E-03 0. -1.
</event>
<event>
 8    1  0.1993226E+004  0.1043930E+01  0.7957747E-01            NaN
         13   -1    0    0    0    0  0.00000000000E+00  0.00000000000E+00  0.74505805969E-08  0.10566000000E+00  0.10566000000E+00 0.  1.
     999900   -1    0    0    0    0 -0.00000000000E+00 -0.00000000000E+00 -0.74505805969E-08  0.93827000000E+00  0.93827000000E+00 0.  1.
     999902    2    1    2    0    0 -0.66354580625E-02 -0.51640615649E-02  0.11341410654E-01  0.10298117695E+01  0.10297149879E+01 0.  0.
     999903    2    3    3    0    0 -0.91739406358E-01  0.65281490657E-01  0.71276511954E-01  0.14088124683E+00  0.45709876957E-01 0.  0.
         14    1    1    2    0    0  0.66354580625E-02  0.51640615649E-02 -0.11341410654E-01  0.14118230454E-01  0.00000000000E+00 0. -1.
     999901    1    3    3    0    0  0.85103948296E-01 -0.70445552222E-01 -0.59935101300E-01  0.88893052271E+00  0.88000000000E+00 0.  1.
        -11    1    4    4    0    0 -0.23142615238E-01  0.26714187854E-01  0.46431417331E-01  0.58355514814E-01  0.51100000000E-03 0. -1.
         11    1    4    4    0    0 -0.68596791120E-01  0.38567302802E-01  0.24845094623E-01  0.82525732019E-01  0.51100000000E-03 0.  1.
</event>
<event>
 8    1  0.1993226E+004  0.1043930E+01  0.7957747E-01            NaN
         13   -1    0    0    0    0  0.00000000000E+00  0.00000000000E+00  0.74505805969E-08  0.10566000000E+00  0.10566000000E+00 0. -1.
     999900   -1    0    0    0    0 -0.00000000000E+00 -0.00000000000E+00 -0.74505805969E-08  0.93827000000E+00  0.93827000000E+00 0.  1.
     999902    2    1    2    0    0  0.62286928053E-02 -0.18791781385E-03 -0.14324858760E-01  0.10283084282E+01  0.10281897636E+01 0.  0.
     999903    2    3    3    0    0  0.25144597204E-01 -0.12473603176E+00  0.30795631939E-01  0.13819275998E+00  0.44244090846E-01 0.  0.
         14    1    1    2    0    0 -0.62286928053E-02  0.18791781385E-03  0.14324858760E-01  0.15621571805E-01  0.00000000000E+00 0. -1.
     999901    1    3    3    0    0 -0.18915904398E-01  0.12454811395E+00 -0.45120490699E-01  0.89011566822E+00  0.88000000000E+00 0.  1.
        -11    1    4    4    0    0 -0.15925791575E-02 -0.77519932077E-02 -0.87822104131E-02  0.11832922201E-01  0.51100000000E-03 0. -1.
         11    1    4    4    0    0  0.26737176361E-01 -0.11698403855E+00  0.39577842352E-01  0.12635983778E+00  0.51100000000E-03 0.  1.
</event>
<event>
 8    1  0.1993226E+004  0.1043930E+01  0.7957747E-01            NaN
         13   -1    0    0    0    0  0.00000000000E+00  0.00000000000E+00  0.74505805969E-08  0.10566000000E+00  0.10566000000E+00 0. -1.
     999900   -1    0    0    0    0 -0.00000000000E+00 -0.00000000000E+00 -0.74505805969E-08  0.93827000000E+00  0.93827000000E+00 0. -1.
     999902    2    1    2    0    0  0.10388060464E-01  0.90886470625E-02  0.27934045346E-03  0.10301244454E+01  0.10300319314E+01 0.  0.
     999903    2    3    3    0    0 -0.51226528054E-01  0.11196171222E+00 -0.49952930800E-01  0.14057258853E+00  0.45888725977E-01 0.  0.
         14    1    1    2    0    0 -0.10388060464E-01 -0.90886470625E-02 -0.27934045346E-03  0.13805554560E-01  0.00000000000E+00 0.  1.
     999901    1    3    3    0    0  0.61614588517E-01 -0.10287306516E+00  0.50232271254E-01  0.88955185691E+00  0.88000000000E+00 0. -1.
        -11    1    4    4    0    0 -0.12304210269E-01  0.66937247585E-01 -0.43339688448E-01  0.80688155391E-01  0.51100000000E-03 0.  1.
         11    1    4    4    0    0 -0.38922317784E-01  0.45024464633E-01 -0.66132423520E-02  0.59884433141E-01  0.51100000000E-03 0. -1.
</event>
<event>
 8    1  0.1993226E+004  0.1043930E+01  0.7957747E-01            NaN
         13   -1    0    0    0    0  0.00000000000E+00  0.00000000000E+00  0.74505805969E-08  0.10566000000E+00  0.10566000000E+00 0. -1.
     999900   -1    0    0    0    0 -0.00000000000E+00 -0.00000000000E+00 -0.74505805969E-08  0.93827000000E+00  0.93827000000E+00 0. -1.
     999902    2    1    2    0    0  0.63430179889E-02  0.12763680540E-01  0.44127768147E-02  0.10290096107E+01  0.10289014340E+01 0.  0.
     999903    2    3    3    0    0  0.35376126708E-01  0.26719996393E-01  0.12534970524E+00  0.14015448142E+00  0.44331721280E-01 0.  0.
         14    1    1    2    0    0 -0.63430179889E-02 -0.12763680540E-01 -0.44127768147E-02  0.14920389316E-01  0.00000000000E+00 0.  1.
     999901    1    3    3    0    0 -0.29033108720E-01 -0.13956315854E-01 -0.12093692842E+00  0.88885512926E+00  0.88000000000E+00 0. -1.
        -11    1    4    4    0    0  0.19549722822E-01 -0.10016477893E-01  0.54994433335E-01  0.59221367011E-01  0.51100000000E-03 0. -1.
         11    1    4    4    0    0  0.15826403886E-01  0.36736474286E-01  0.70355271905E-01  0.80933114414E-01  0.51100000000E-03 0.  1.
</event>
<event>
 8    1  0.2262847E+004  0.1043930E+01  0.7957747E-01            NaN
         13   -1    0    0    0    0  0.00000000000E+00  0.00000000000E+00  0.74505805969E-08  0.10566000000E+00  0.10566000000E+00 0.  1.
     999900   -1    0    0    0    0 -0.00000000000E+00 -0.00000000000E+00 -0.74505805969E-08  0.93827000000E+00  0.93827000000E+00 0.  1.
     999902    2    1    2    0    0 -0.93092892150E-02  0.92642802789E-02  0.28656592398E-02  0.10304874646E+01  0.10303997831E+01 0.  0.
     999903    2    3    3    0    0 -0.11589740413E-02  0.16662102332E-01  0.13497209417E+00  0.14055866658E+00  0.35500755924E-01 0.  0.
         14    1    1    2    0    0  0.93092892150E-02 -0.92642802789E-02 -0.28656592398E-02  0.13442535388E-01  0.00000000000E+00 0. -1.
     999901    1    3    3    0    0 -0.81503151737E-02 -0.73978220532E-02 -0.13210643493E+00  0.88992879803E+00  0.88000000000E+00 0.  1.
        -11    1    4    4    0    0  0.88589018819E-03  0.25612076780E-01  0.63202902867E-01  0.68202868929E-01  0.51100000000E-03 0.  1.
         11    1    4    4    0    0 -0.20448642295E-02 -0.89499744479E-02  0.71769191307E-01  0.72355797655E-01  0.51100000000E-03 0. -1.
</event>
<event>
 7    1  0.1993226E+004  0.1043930E+01  0.7957747E-01            NaN
         13   -1    0    0    0    0  0.00000000000E+00  0.00000000000E+00  0.74505805969E-08  0.10566000000E+00  0.10566000000E+00 0. -1.
     999900   -1    0    0    0    0 -0.00000000000E+00 -0.00000000000E+00 -0.74505805969E-08  0.93827000000E+00  0.93827000000E+00 0.  1.
     999903    2    1    2    0    0  0.36361920314E-01 -0.33868607629E-01 -0.10811514433E+00  0.12371901723E+00  0.33885674837E-01 0.  0.
         14    1    1    2    0    0  0.17119958451E-01 -0.24083692611E-01  0.10273936571E-01  0.31283717807E-01  0.00000000000E+00 0. -1.
     999901    1    1    2    0    0 -0.53481878765E-01  0.57952300240E-01  0.97841207759E-01  0.88892726496E+00  0.88000000000E+00 0. -1.
        -11    1    3    3    0    0  0.36536139939E-01 -0.19496278668E-01 -0.97225688915E-01  0.10567918485E+00  0.51100000000E-03 0. -1.
         11    1    3    3    0    0 -0.17421962484E-03 -0.14372328961E-01 -0.10889455415E-01  0.18039832385E-01  0.51100000000E-03 0.  1.
</event>
<event>
 8    1  0.1993226E+004  0.1043930E+01  0.7957747E-01            NaN
         13   -1    0    0    0    0  0.00000000000E+00  0.00000000000E+00  0.74505805969E-08  0.10566000000E+00  0.10566000000E+00 0. -1.
     999900   -1    0    0    0    0 -0.00000000000E+00 -0.00000000000E+00 -0.74505805969E-08  0.93827000000E+00  0.93827000000E+00 0. -1.
     999902    2    1    2    0    0  0.74592578348E-02  0.93803387471E-02 -0.70413740479E-02  0.10300299198E+01  0.10299361259E+01 0.  0.
     999903    2    3    3    0    0  0.25941164801E-02 -0.72774781103E-01 -0.11095253332E+00  0.14010258432E+00  0.44892886745E-01 0.  0.
         14    1    1    2    0    0 -0.74592578348E-02 -0.93803387471E-02  0.70413740479E-02  0.13900080249E-01  0.00000000000E+00 0. -1.
     999901    1    3    3    0    0  0.48651413547E-02  0.82155119850E-01  0.10391115927E+00  0.88992733543E+00  0.88000000000E+00 0.  1.
        -11    1    4    4    0    0  0.14155707613E-01 -0.24711999594E-01 -0.15067694388E-01  0.32223648414E-01  0.51100000000E-03 0.  1.
         11    1    4    4    0    0 -0.11561591133E-01 -0.48062781510E-01 -0.95884838928E-01  0.10787893591E+00  0.51100000000E-03 0. -1.
</event>
<event>
 8    1  0.1993226E+004  0.1043930E+01  0.7957747E-01            NaN
         13   -1    0    0    0    0  0.00000000000E+00  0.00000000000E+00  0.74505805969E-08  0.10566000000E+00  0.10566000000E+00 0. -1.
     999900   -1    0    0    0    0 -0.00000000000E+00 -0.00000000000E+00 -0.74505805969E-08  0.93827000000E+00  0.93827000000E+00 0. -1.
     999902    2    1    2    0    0 -0.21444969807E-03 -0.10788315670E-01 -0.85974595590E-02  0.10301332593E+01  0.10300408641E+01 0.  0.
     999903    2    3    3    0    0  0.73152224809E-02 -0.13390176499E+00 -0.28608144337E-02  0.14151268419E+00  0.45104992865E-01 0.  0.
         14    1    1    2    0    0  0.21444969807E-03  0.10788315670E-01  0.85974595590E-02  0.13796740722E-01  0.00000000000E+00 0.  1.
     999901    1    3    3    0    0 -0.75296721790E-02  0.12311344932E+00 -0.57366451252E-02  0.88862057508E+00  0.88000000000E+00 0.  1.
        -11    1    4    4    0    0  0.18948942215E-01 -0.22619545562E-01  0.13574060729E-02  0.29543356694E-01  0.51100000000E-03 0. -1.
         11    1    4    4    0    0 -0.11633719734E-01 -0.11128221943E+00 -0.42182205067E-02  0.11196932750E+00  0.51100000000E-03 0.  1.
</event>
<event>
 8    1  0.1993226E+004  0.1043930E+01  0.7957747E-01            NaN
         13   -1    0    0    0    0  0.00000000000E+00  0.00000000000E+00  0.74505805969E-08  0.10566000000E+00  0.10566000000E+00 0. -1.
     999900   -1    0    0    0    0 -0.00000000000E+00 -0.00000000000E+00 -0.74505805969E-08  0.93827000000E+00  0.93827000000E+00 0. -1.
     999902    2    1    2    0    0 -0.73185362625E-02 -0.11186137207E-01  0.46665557627E-02  0.10297713496E+01  0.10296740091E+01 0.  0.
     999903    2    3    3    0    0 -0.16903052811E-01 -0.12484346728E+00 -0.44430372000E-01  0.14105296903E+00  0.45279991169E-01 0.  0.
         14    1    1    2    0    0  0.73185362625E-02  0.11186137207E-01 -0.46665557627E-02  0.14158650407E-01  0.00000000000E+00 0.  1.
     999901    1    3    3    0    0  0.95845165488E-02  0.11365733007E+00  0.49096927763E-01  0.88871838056E+00  0.88000000000E+00 0.  1.
        -11    1    4    4    0    0 -0.74324568528E-02 -0.10331935256E+00 -0.52569569808E-01  0.11616346594E+00  0.51100000000E-03 0.  1.
         11    1    4    4    0    0 -0.94705959586E-02 -0.21524114712E-01  0.81391978081E-02  0.24889503087E-01  0.51100000000E-03 0. -1.
</event>
<event>
 8    1  0.1993226E+004  0.1043930E+01  0.7957747E-01            NaN
         13   -1    0    0    0    0  0.00000000000E+00  0.00000000000E+00  0.74505805969E-08  0.10566000000E+00  0.10566000000E+00 0. -1.
     999900   -1    0    0    0    0 -0.00000000000E+00 -0.00000000000E+00 -0.74505805969E-08  0.93827000000E+00  0.93827000000E+00 0.  1.
     999902    2    1    2    0    0  0.30341820033E-02  0.13078212129E-01  0.33312527490E-02  0.10300973163E+01  0.10300044359E+01 0.  0.
     999903    2    3    3    0    0  0.62024766784E-01  0.79011675314E-01 -0.88297710851E-01  0.14092749135E+00  0.44431470233E-01 0.  0.
         14    1    1    2    0    0 -0.30341820033E-02 -0.13078212129E-01 -0.33312527490E-02  0.13832683680E-01  0.00000000000E+00 0.  1.
     999901    1    3    3    0    0 -0.58990584781E-01 -0.65933463185E-01  0.91628963600E-01  0.88916982497E+00  0.88000000000E+00 0. -1.
        -11    1    4    4    0    0  0.49115557024E-01  0.41219938371E-01 -0.75352761231E-01  0.98943018992E-01  0.51100000000E-03 0. -1.
         11    1    4    4    0    0  0.12909209760E-01  0.37791736943E-01 -0.12944949620E-01  0.41984472361E-01  0.51100000000E-03 0.  1.
</event>
<event>
 8    1  0.1993226E+004  0.1043930E+01  0.7957747E-01            NaN
         13   -1    0    0    0    0  0.00000000000E+00  0.00000000000E+00  0.74505805969E-08  0.10566000000E+00  0.10566000000E+00 0. -1.
     999900   -1    0    0    0    0 -0.00000000000E+00 -0.00000000000E+00 -0.74505805969E-08  0.93827000000E+00  0.93827000000E+00 0.  1.
     999902    2    1    2    0    0  0.93667424444E-02  0.87697955607E-02 -0.39492778162E-02  0.10305045773E+01  0.10304171204E+01 0.  0.
     999903    2    3    3    0    0 -0.74365600833E-01 -0.74115632265E-01  0.79044749425E-01  0.13878202632E+00  0.44598305835E-01 0.  0.
         14    1    1    2    0    0 -0.93667424444E-02 -0.87697955607E-02  0.39492778162E-02  0.13425422655E-01  0.00000000000E+00 0. -1.
     999901    1    3    3    0    0  0.83732343277E-01  0.82885427826E-01 -0.82994027241E-01  0.89172255103E+00  0.88000000000E+00 0. -1.
        -11    1    4    4    0    0 -0.63600824278E-01 -0.37622801469E-01  0.64363109315E-01  0.97996994857E-01  0.51100000000E-03 0.  1.
         11    1    4    4    0    0 -0.10764776554E-01 -0.36492830796E-01  0.14681640109E-01  0.40785031458E-01  0.51100000000E-03 0. -1.
</event>
<event>
 8    1  0.1993226E+004  0.1043930E+01  0.7957747E-01            NaN
         13   -1    0    0    0    0  0.00000000000E+00  0.00000000000E+00  0.74505805969E-08  0.10566000000E+00  0.10566000000E+00 0. -1.
     999900   -1    0    0    0    0 -0.00000000000E+00 -0.00000000000E+00 -0.74505805969E-08  0.93827000000E+00  0.93827000000E+00 0. -1.
     999902    2    1    2    0    0 -0.93331228357E-02 -0.29605503569E-02 -0.10510432670E-01  0.10295654173E+01  0.10294652045E+01 0.  0.
     999903    2    3    3    0    0  0.38394262492E-01  0.10357420039E+00 -0.72845557353E-01  0.13967035375E+00  0.44716866058E-01 0.  0.
         14    1    1    2    0    0  0.93331228357E-02  0.29605503569E-02  0.10510432670E-01  0.14364582667E-01  0.00000000000E+00 0. -1.
     999901    1    3    3    0    0 -0.47727385328E-01 -0.10653475075E+00  0.62335124683E-01  0.88989506359E+00  0.88000000000E+00 0.  1.
        -11    1    4    4    0    0  0.41075959172E-01  0.46745528702E-01 -0.39961680345E-01  0.73956581131E-01  0.51100000000E-03 0.  1.
         11    1    4    4    0    0 -0.26816966799E-02  0.56828671690E-01 -0.32883877008E-01  0.65713772615E-01  0.51100000000E-03 0. -1.
</event>
<event>
 8    1  0.1993226E+004  0.1043930E+01  0.7957747E-01            NaN
         13   -1    0    0    0    0  0.00000000000E+00  0.00000000000E+00  0.74505805969E-08  0.10566000000E+00  0.10566000000E+00 0. -1.
     999900   -1    0    0    0    0 -0.00000000000E+00 -0.00000000000E+00 -0.74505805969E-08  0.93827000000E+00  0.93827000000E+00 0.  1.
     999902    2    1    2    0    0  0.50032856857E-02  0.11825640197E-01  0.62903078998E-02  0.10296315173E+01  0.10295322311E+01 0.  0.
     999903    2    3    3    0    0  0.44482515287E-01  0.12237908692E+00  0.33497945283E-01  0.14141930748E+00  0.43840313741E-01 0.  0.
         14    1    1    2    0    0 -0.50032856857E-02 -0.11825640197E-01 -0.62903078998E-02  0.14298482689E-01  0.00000000000E+00 0.  1.
     999901    1    3    3    0    0 -0.39479229602E-01 -0.11055344673E+00 -0.27207637384E-01  0.88821220983E+00  0.88000000000E+00 0.  1.
        -11    1    4    4    0    0  0.15427131150E-01  0.40465072059E-01 -0.96671950293E-02  0.44374927752E-01  0.51100000000E-03 0. -1.
         11    1    4    4    0    0  0.29055384137E-01  0.81914014864E-01  0.43165140313E-01  0.97044379733E-01  0.51100000000E-03 0.  1.
</event>
<event>
 8    1  0.1993226E+004  0.1043930E+01  0.7957747E-01            NaN
         13   -1    0    0    0    0  0.00000000000E+00  0.00000000000E+00  0.74505805969E-08  0.10566000000E+00  0.10566000000E+00 0.  1.
     999900   -1    0    0    0    0 -0.00000000000E+00 -0.00000000000E+00 -0.74505805969E-08  0.93827000000E+00  0.93827000000E+00 0.  1.
     999902    2    1    2    0    0 -0.14279120639E-02 -0.78442264034E-03  0.13896977221E-01  0.10299378512E+01  0.10298428021E+01 0.  0.
     999903    2    3    3    0    0  0.67003143931E-02 -0.12499941835E+00 -0.41344685944E-01  0.13946209378E+00  0.45503227854E-01 0.  0.
         14    1    1    2    0    0  0.14279120639E-02  0.78442264034E-03 -0.13896977221E-01  0.13992148785E-01  0.00000000000E+00 0. -1.
     999901    1    3    3    0    0 -0.81282264570E-02  0.12421499571E+00  0.55241663165E-01  0.89047575743E+00  0.88000000000E+00 0. -1.
        -11    1    4    4    0    0  0.23497009407E-01 -0.38863057281E-01 -0.15106153528E-01  0.47863385461E-01  0.51100000000E-03 0. -1.
         11    1    4    4    0    0 -0.16796695014E-01 -0.86136361071E-01 -0.26238532416E-01  0.91598708323E-01  0.51100000000E-03 0.  1.
</event>
<event>
 8    1  0.1993226E+004  0.1043930E+01  0.7957747E-01            NaN
         13   -1    0    0    0    0  0.00000000000E+00  0.00000000000E+00  0.74505805969E-08  0.10566000000E+00  0.10566000000E+00 0.  1.
     999900   -1    0    0    0    0 -0.00000000000E+00 -0.00000000000E+00 -0.74505805969E-08  0.93827000000E+00  0.93827000000E+00 0.  1.
     999902    2    1    2    0    0 -0.83925867549E-02  0.55952705618E-02 -0.96779044352E-02  0.10299512876E+01  0.10298564223E+01 0.  0.
     999903    2    3    3    0    0  0.10802751494E+00  0.63460928526E-03  0.74734136770E-01  0.13826544557E+00  0.43148528664E-01 0.  0.
         14    1    1    2    0    0  0.83925867549E-02 -0.55952705618E-02  0.96779044352E-02  0.13978712364E-01  0.00000000000E+00 0.  1.
     999901    1    3    3    0    0 -0.11642010170E+00  0.49606612765E-02 -0.84412041205E-01  0.89168584207E+00  0.88000000000E+00 0. -1.
        -11    1    4    4    0    0  0.61799078843E-01 -0.20764264021E-01  0.45837625390E-01  0.79697113051E-01  0.51100000000E-03 0. -1.
         11    1    4    4    0    0  0.46228436101E-01  0.21398873307E-01  0.28896511380E-01  0.58568332519E-01  0.51100000000E-03 0.  1.
</event>
<event>
 8    1  0.1993226E+004  0.1043930E+01  0.7957747E-01            NaN
         13   -1    0    0    0    0  0.00000000000E+00  0.00000000000E+00  0.74505805969E-08  0.10566000000E+00  0.10566000000E+00 0. -1.
     999900   -1    0    0    0    0 -0.00000000000E+00 -0.00000000000E+00 -0.74505805969E-08  0.93827000000E+00  0.93827000000E+00 0. -1.
     999902    2    1    2    0    0  0.11929464251E-01  0.54813275784E-02  0.72922659888E-03  0.10307812799E+01  0.10306974135E+01 0.  0.
     999903    2    3    3    0    0 -0.60463714486E-01  0.75035427668E-01  0.91456315311E-01  0.14043867740E+00  0.45525688623E-01 0.  0.
         14    1    1    2    0    0 -0.11929464251E-01 -0.54813275784E-02 -0.72922659888E-03  0.13148720119E-01  0.00000000000E+00 0. -1.
     999901    1    3    3    0    0  0.72393178737E-01 -0.69554100090E-01 -0.90727088712E-01  0.89034260248E+00  0.88000000000E+00 0. -1.
        -11    1    4    4    0    0 -0.19563877662E-01  0.59237726626E-01  0.59199702393E-01  0.86004182744E-01  0.51100000000E-03 0. -1.
         11    1    4    4    0    0 -0.40899836824E-01  0.15797701042E-01  0.32256612918E-01  0.54434494655E-01  0.51100000000E-03 0.  1.
</event>
<event>
 7    1  0.1993226E+004  0.1043930E+01  0.7957747E-01            NaN
         13   -1    0    0    0    0  0.00000000000E+00  0.00000000000E+00  0.74505805969E-08  0.10566000000E+00  0.10566000000E+00 0.  1.
     999900   -1    0    0    0    0 -0.00000000000E+00 -0.00000000000E+00 -0.74505805969E-08  0.93827000000E+00  0.93827000000E+00 0. -1.
     999903    2    1    2    0    0  0.90905809871E-01  0.57776001661E-01 -0.31382648486E-01  0.12120998699E+00  0.45880907625E-01 0.  0.
         14    1    1    2    0    0 -0.29277079656E-01  0.16495680920E-02  0.25012941325E-01  0.38542388377E-01  0.00000000000E+00 0.  1.
     999901    1    1    2    0    0 -0.61628730215E-01 -0.59425569753E-01  0.63697071613E-02  0.88417762463E+00  0.88000000000E+00 0.  1.
        -11    1    3    3    0    0  0.30226016607E-01  0.14000087198E-01  0.11163666000E-01  0.35135496027E-01  0.51100000000E-03 0.  1.
         11    1    3    3    0    0  0.60679793264E-01  0.43775914463E-01 -0.42546314487E-01  0.86074490965E-01  0.51100000000E-03 0. -1.
</event>
<event>
 8    1  0.1993226E+004  0.1043930E+01  0.7957747E-01            NaN
         13   -1    0    0    0    0  0.00000000000E+00  0.00000000000E+00  0.74505805969E-08  0.10566000000E+00  0.10566000000E+00 0.  1.
     999900   -1    0    0    0    0 -0.00000000000E+00 -0.00000000000E+00 -0.74505805969E-08  0.93827000000E+00  0.93827000000E+00 0. -1.
     999902    2    1    2    0    0  0.11968812865E-01  0.62443150875E-02 -0.55194799699E-03  0.10304189453E+01  0.10303303617E+01 0.  0.
     999903    2    3    3    0    0  0.31027411157E-01 -0.60248534267E-01  0.11422167897E+00  0.14027428592E+00  0.45140859773E-01 0.  0.
         14    1    1    2    0    0 -0.11968812865E-01 -0.62443150875E-02  0.55194799699E-03  0.13511054693E-01  0.00000000000E+00 0. -1.
     999901    1    3    3    0    0 -0.19058598291E-01  0.66492849355E-01 -0.11477362696E+00  0.89014465938E+00  0.88000000000E+00 0. -1.
        -11    1    4    4    0    0  0.42853097799E-01 -0.45413187625E-01  0.88295116576E-01  0.10814358203E+00  0.51100000000E-03 0. -1.
         11    1    4    4    0    0 -0.11825686643E-01 -0.14835346643E-01  0.25926562390E-01  0.32130703897E-01  0.51100000000E-03 0.  1.
</event>
<event>
 8    1  0.1993226E+004  0.1043930E+01  0.7957747E-01            NaN
         13   -1    0    0    0    0  0.00000000000E+00  0.00000000000E+00  0.74505805969E-08  0.10566000000E+00  0.10566000000E+00 0.  1.
     999900   -1    0    0    0    0 -0.00000000000E+00 -0.00000000000E+00 -0.74505805969E-08  0.93827000000E+00  0.93827000000E+00 0.  1.
     999902    2    1    2    0    0  0.59331387413E-02 -0.28911810355E-02 -0.14808132636E-01  0.10277176018E+01  0.10275897173E+01 0.  0.
     999903    2    3    3    0    0  0.79257443948E-01 -0.18697539228E-02 -0.10568833353E+00  0.14000328517E+00  0.46321243640E-01 0.  0.
         14    1    1    2    0    0 -0.59331387413E-02  0.28911810355E-02  0.14808132636E-01  0.16212398196E-01  0.00000000000E+00 0.  1.
     999901    1    3    3    0    0 -0.73324305207E-01 -0.10214271127E-02  0.90880200894E-01  0.88771431664E+00  0.88000000000E+00 0. -1.
        -11    1    4    4    0    0  0.60487788538E-02 -0.10684582775E-01 -0.15277906563E-02  0.12383186181E-01  0.51100000000E-03 0. -1.
         11    1    4    4    0    0  0.73208665094E-01  0.88148288522E-02 -0.10416054287E+00  0.12762009899E+00  0.51100000000E-03 0.  1.
</event>
<event>
 8    1  0.1993226E+004  0.1043930E+01  0.7957747E-01            NaN
         13   -1    0    0    0    0  0.00000000000E+00  0.00000000000E+00  0.74505805969E-08  0.10566000000E+00  0.10566000000E+00 0. -1.
     999900   -1    0    0    0    0 -0.00000000000E+00 -0.00000000000E+00 -0.74505805969E-08  0.93827000000E+00  0.93827000000E+00 0.  1.
     999902    2    1    2    0    0 -0.13867242265E-02  0.44963784129E-02 -0.13551266234E-01  0.10295850622E+01  0.10294851253E+01 0.  0.
     999903    2    3    3    0    0 -0.41976646332E-01 -0.53083220778E-02 -0.12723512526E+00  0.14129023858E+00  0.44541411058E-01 0.  0.
         14    1    1    2    0    0  0.13867242265E-02 -0.44963784129E-02  0.13551266234E-01  0.14344937764E-01  0.00000000000E+00 0. -1.
     999901    1    3    3    0    0  0.40589922106E-01  0.98047004906E-02  0.11368385902E+00  0.88829482365E+00  0.88000000000E+00 0. -1.
        -11    1    4    4    0    0 -0.14236748604E-01 -0.23670889566E-01 -0.67098482529E-01  0.72563513575E-01  0.51100000000E-03 0.  1.
         11    1    4    4    0    0 -0.27739897728E-01  0.18362567488E-01 -0.60136642728E-01  0.68726725007E-01  0.51100000000E-03 0. -1.
</event>
<event>
 8    1  0.1993226E+004  0.1043930E+01  0.7957747E-01            NaN
         13   -1    0    0    0    0  0.00000000000E+00  0.00000000000E+00  0.74505805969E-08  0.10566000000E+00  0.10566000000E+00 0. -1.
     999900   -1    0    0    0    0 -0.00000000000E+00 -0.00000000000E+00 -0.74505805969E-08  0.93827000000E+00  0.93827000000E+00 0. -1.
     999902    2    1    2    0    0 -0.12195762865E-01 -0.47718263815E-02  0.54534157883E-02  0.10297438553E+01  0.10296461337E+01 0.  0.
     999903    2    3    3    0    0  0.10233707259E+00  0.37963675231E-01 -0.71585667729E-01  0.13795962469E+00  0.44656837762E-01 0.  0.
         14    1    1    2    0    0  0.12195762865E-01  0.47718263815E-02 -0.54534157883E-02  0.14186144741E-01  0.00000000000E+00 0. -1.
     999901    1    3    3    0    0 -0.11453283545E+00 -0.42735501612E-01  0.77039083517E-01  0.89178423056E+00  0.88000000000E+00 0.  1.
        -11    1    4    4    0    0  0.15809587108E-01  0.21749966351E-01 -0.30940221625E-01  0.40994664482E-01  0.51100000000E-03 0.  1.
         11    1    4    4    0    0  0.86527485479E-01  0.16213708880E-01 -0.40645446104E-01  0.96964960212E-01  0.51100000000E-03 0. -1.
</event>
<event>
 8    1  0.1993226E+004  0.1043930E+01  0.7957747E-01            NaN
         13   -1    0    0    0    0  0.00000000000E+00  0.00000000000E+00  0.74505805969E-08  0.10566000000E+00  0.10566000000E+00 0. -1.
     999900   -1    0    0    0    0 -0.00000000000E+00 -0.00000000000E+00 -0.74505805969E-08  0.93827000000E+00  0.93827000000E+00 0. -1.
     999902    2    1    2    0    0 -0.27718663642E-02  0.13815711799E-01 -0.45804293292E-02  0.10291132032E+01  0.10290065342E+01 0.  0.
     999903    2    3    3    0    0 -0.47944595138E-01 -0.11042941028E+00  0.49267333117E-01  0.13761053502E+00  0.44900449634E-01 0.  0.
         14    1    1    2    0    0  0.27718663642E-02 -0.13815711799E-01  0.45804293292E-02  0.14816796836E-01  0.00000000000E+00 0. -1.
     999901    1    3    3    0    0  0.45172728774E-01  0.12424512208E+00 -0.53847762446E-01  0.89150266814E+00  0.88000000000E+00 0.  1.
        -11    1    4    4    0    0  0.23448956633E-02 -0.38923410231E-01  0.41038708704E-02  0.39212667300E-01  0.51100000000E-03 0. -1.
         11    1    4    4    0    0 -0.50289490801E-01 -0.71506000054E-01  0.45163462247E-01  0.98397867720E-01  0.51100000000E-03 0.  1.
</event>
<event>
 8    1  0.1993226E+004  0.1043930E+01  0.7957747E-01            NaN
         13   -1    0    0    0    0  0.00000000000E+00  0.00000000000E+00  0.74505805969E-08  0.10566000000E+00  0.10566000000E+00 0.  1.
     999900   -1    0    0    0    0 -0.00000000000E+00 -0.00000000000E+00 -0.74505805969E-08  0.93827000000E+00  0.93827000000E+00 0.  1.
     999902    2    1    2    0    0  0.61795979339E-03 -0.12691244744E-01 -0.60672622425E-03  0.10312092420E+01  0.10311307789E+01 0.  0.
     999903    2    3    3    0    0  0.45549695747E-01 -0.96317887089E-01  0.82476262526E-01  0.14221258327E+00  0.45499173668E-01 0.  0.
         14    1    1    2    0    0 -0.61795979339E-03  0.12691244744E-01  0.60672622425E-03  0.12720758003E-01  0.00000000000E+00 0.  1.
     999901    1    3    3    0    0 -0.44931735953E-01  0.83626642345E-01 -0.83082988751E-01  0.88899665873E+00  0.88000000000E+00 0. -1.
        -11    1    4    4    0    0  0.93747918806E-02 -0.27428010548E-01  0.50205040041E-01  0.57974042915E-01  0.51100000000E-03 0. -1.
         11    1    4    4    0    0  0.36174903866E-01 -0.68889876542E-01  0.32271222485E-01  0.84238540356E-01  0.51100000000E-03 0.  1.
</event>
<event>
 8    1  0.1993226E+004  0.1043930E+01  0.7957747E-01            NaN
         13   -1    0    0    0    0  0.00000000000E+00  0.00000000000E+00  0.74505805969E-08  0.10566000000E+00  0.10566000000E+00 0.  1.
     999900   -1    0    0    0    0 -0.00000000000E+00 -0.00000000000E+00 -0.74505805969E-08  0.93827000000E+00  0.93827000000E+00 0. -1.
     999902    2    1    2    0    0  0.85411494437E-03  0.16744873778E-02 -0.14043004507E-01  0.10297617469E+01  0.10296642734E+01 0.  0.
     999903    2    3    3    0    0  0.71581918569E-01 -0.23288263289E-01 -0.11095579408E+00  0.14126996308E+00  0.44493819295E-01 0.  0.
         14    1    1    2    0    0 -0.85411494437E-03 -0.16744873778E-02  0.14043004507E-01  0.14168253100E-01  0.00000000000E+00 0.  1.
     999901    1    3    3    0    0 -0.70727803625E-01  0.24962750666E-01  0.96912789577E-01  0.88849178382E+00  0.88000000000E+00 0.  1.
        -11    1    4    4    0    0  0.36923605988E-01 -0.33705372836E-01 -0.75867350163E-01  0.90859896428E-01  0.51100000000E-03 0.  1.
         11    1    4    4    0    0  0.34658312582E-01  0.10417109547E-01 -0.35088443921E-01  0.50410066655E-01  0.51100000000E-03 0. -1.
</event>
<event>
 8    1  0.1993226E+004  0.1043930E+01  0.7957747E-01            NaN
         13   -1    0    0    0    0  0.00000000000E+00  0.00000000000E+00  0.74505805969E-08  0.10566000000E+00  0.10566000000E+00 0. -1.
     999900   -1    0    0    0    0 -0.00000000000E+00 -0.00000000000E+00 -0.74505805969E-08  0.93827000000E+00  0.93827000000E+00 0. -1.
     999902    2    1    2    0    0  0.10982985071E-01 -0.40895400339E-02 -0.47492606731E-03  0.10322007266E+01  0.10321340825E+01 0.  0.
     999903    2    3    3    0    0 -0.39132432609E-01 -0.86305163903E-01 -0.95524471697E-01  0.14186069046E+00  0.44939984506E-01 0.  0.
         14    1    1    2    0    0 -0.10982985071E-01  0.40895400339E-02  0.47492606731E-03  0.11729273359E-01  0.00000000000E+00 0. -1.
     999901    1    3    3    0    0  0.50115417680E-01  0.82215623869E-01  0.95049545629E-01  0.89034003618E+00  0.88000000000E+00 0.  1.
        -11    1    4    4    0    0 -0.37527412131E-01 -0.36181291380E-01 -0.64320275687E-01  0.82793426627E-01  0.51100000000E-03 0. -1.
         11    1    4    4    0    0 -0.16050204777E-02 -0.50123872523E-01 -0.31204196010E-01  0.59067263836E-01  0.51100000000E-03 0.  1.
</event>
<event>
 8    1  0.1993226E+004  0.1043930E+01  0.7957747E-01            NaN
         13   -1    0    0    0    0  0.00000000000E+00  0.00000000000E+00  0.74505805969E-08  0.10566000000E+00  0.10566000000E+00 0. -1.
     999900   -1    0    0    0    0 -0.00000000000E+00 -0.00000000000E+00 -0.74505805969E-08  0.93827000000E+00  0.93827000000E+00 0. -1.
     999902    2    1    2    0    0  0.22677388695E-02 -0.10481260202E-01  0.92015813094E-02  0.10297995876E+01  0.10297026377E+01 0.  0.
     999903    2    3    3    0    0  0.10617664747E-01  0.10415750662E+00 -0.78319955158E-01  0.13801946481E+00  0.44202220536E-01 0.  0.
         14    1    1    2    0    0 -0.22677388695E-02  0.10481260202E-01 -0.92015813094E-02  0.14130412364E-01  0.00000000000E+00 0.  1.
     999901    1    3    3    0    0 -0.83499258774E-02 -0.11463876682E+00  0.87521536467E-01  0.89178012283E+00  0.88000000000E+00 0.  1.
        -11    1    4    4    0    0 -0.16524424923E-01  0.41002799672E-01 -0.23326084176E-01  0.49986533426E-01  0.51100000000E-03 0. -1.
         11    1    4    4    0    0  0.27142089670E-01  0.63154706949E-01 -0.54993870982E-01  0.88032931384E-01  0.51100000000E-03 0.  1.
</event>
<event>
 8    1  0.1993226E+004  0.1043930E+01  0.7957747E-01            NaN
         13   -1    0    0    0    0  0.00000000000E+00  0.00000000000E+00  0.74505805969E-08  0.10566000000E+00  0.10566000000E+00 0.  1.
     999900   -1    0    0    0    0 -0.00000000000E+00 -0.00000000000E+00 -0.74505805969E-08  0.93827000000E+00  0.93827000000E+00 0.  1.
     999902    2    1    2    0    0 -0.68020799460E-02  0.11253434124E-01 -0.42235053912E-02  0.10301189150E+01  0.10300263263E+01 0.  0.
     999903    2    3    3    0    0  0.10863461898E-01  0.13373802472E+00 -0.62847781335E-03  0.14145279630E+00  0.44773033565E-01 0.  0.
         14    1    1    2    0    0  0.68020799460E-02 -0.11253434124E-01  0.42235053912E-02  0.13811085003E-01  0.00000000000E+00 0.  1.
     999901    1    3    3    0    0 -0.17665541844E-01 -0.12248459060E+00 -0.35950275779E-02  0.88866611870E+00  0.88000000000E+00 0. -1.
        -11    1    4    4    0    0  0.26557886184E-01  0.55107778014E-01 -0.28126615155E-02  0.61240188618E-01  0.51100000000E-03 0.  1.
         11    1    4    4    0    0 -0.15694424285E-01  0.78630246709E-01  0.21841837021E-02  0.80212607678E-01  0.51100000000E-03 0. -1.
</event>
<event>
 8    1  0.1993226E+004  0.1043930E+01  0.7957747E-01            NaN
         13   -1    0    0    0    0  0.00000000000E+00  0.00000000000E+00  0.74505805969E-08  0.10566000000E+00  0.10566000000E+00 0.  1.
     999900   -1    0    0    0    0 -0.00000000000E+00 -0.00000000000E+00 -0.74505805969E-08  0.93827000000E+00  0.93827000000E+00 0. -1.
     999902    2    1    2    0    0 -0.70302340693E-02  0.11810735107E-01 -0.40577189903E-02  0.10295988194E+01  0.10294990753E+01 0.  0.
     999903    2    3    3    0    0 -0.90319932615E-01 -0.59477871312E-01  0.75290193713E-01  0.13925319517E+00  0.45028121117E-01 0.  0.
         14    1    1    2    0    0  0.70302340693E-02 -0.11810735107E-01  0.40577189903E-02  0.14331180629E-01  0.00000000000E+00 0.  1.
     999901    1    3    3    0    0  0.83289698545E-01  0.71288606419E-01 -0.79347912704E-01  0.89034562420E+00  0.88000000000E+00 0. -1.
        -11    1    4    4    0    0 -0.49629813371E-01 -0.45841969874E-01  0.67744917248E-01  0.95677790061E-01  0.51100000000E-03 0.  1.
         11    1    4    4    0    0 -0.40690119244E-01 -0.13635901438E-01  0.75452764656E-02  0.43575405105E-01  0.51100000000E-03 0. -1.
</event>
<event>
 8    1  0.1993226E+004  0.1043930E+01  0.7957747E-01            NaN
         13   -1    0    0    0    0  0.00000000000E+00  0.00000000000E+00  0.74505805969E-08  0.10566000000E+00  0.10566000000E+00 0. -1.
     999900   -1    0    0    0    0 -0.00000000000E+00 -0.00000000000E+00 -0.74505805969E-08  0.93827000000E+00  0.93827000000E+00 0.  1.
     999902    2    1    2    0    0 -0.61902951511E-02  0.11880033209E-02 -0.57991542645E-02  0.10353648791E+01  0.10353294507E+01 0.  0.
     999903    2    3    3    0    0  0.86815608409E-02 -0.13385608757E+00  0.28123906782E-01  0.14429313526E+00  0.45130179180E-01 0.  0.
         14    1    1    2    0    0  0.61902951511E-02 -0.11880033209E-02  0.57991542645E-02  0.85651209058E-02  0.00000000000E+00 0. -1.
     999901    1    3    3    0    0 -0.14871855992E-01  0.13504409089E+00 -0.33923061046E-01  0.89107174383E+00  0.88000000000E+00 0.  1.
        -11    1    4    4    0    0 -0.18260474204E-01 -0.42269666846E-01  0.99277045550E-02  0.47106157689E-01  0.51100000000E-03 0. -1.
         11    1    4    4    0    0  0.26942035045E-01 -0.91586420724E-01  0.18196202227E-01  0.97186977573E-01  0.51100000000E-03 0.  1.
</event>
<event>
 8    1  0.1993226E+004  0.1043930E+01  0.7957747E-01            NaN
         13   -1    0    0    0    0  0.00000000000E+00  0.00000000000E+00  0.74505805969E-08  0.10566000000E+00  0.10566000000E+00 0.  1.
     999900   -1    0    0    0    0 -0.00000000000E+00 -0.00000000000E+00 -0.74505805969E-08  0.93827000000E+00  0.93827000000E+00 0.  1.
     999902    2    1    2    0    0 -0.82984912971E-02  0.12089386408E-02  0.12240210004E-01  0.10290925733E+01  0.10289856049E+01 0.  0.
     999903    2    3    3    0    0 -0.26024524948E-01 -0.34030313582E-01  0.12630858495E+00  0.14085408542E+00  0.45284396934E-01 0.  0.
         14    1    1    2    0    0  0.82984912971E-02 -0.12089386408E-02 -0.12240210004E-01  0.14837426710E-01  0.00000000000E+00 0. -1.
     999901    1    3    3    0    0  0.17726033651E-01  0.35239252223E-01 -0.11406837495E+00  0.88823848787E+00  0.88000000000E+00 0.  1.
        -11    1    4    4    0    0 -0.35371546501E-01 -0.34432930569E-01  0.83237011552E-01  0.96775173586E-01  0.51100000000E-03 0. -1.
         11    1    4    4    0    0  0.93470215531E-02  0.40261698658E-03  0.43071573401E-01  0.44078911835E-01  0.51100000000E-03 0.  1.
</event>
<event>
 8    1  0.1993226E+004  0.1043930E+01  0.7957747E-01            NaN
         13   -1    0    0    0    0  0.00000000000E+00  0.00000000000E+00  0.74505805969E-08  0.10566000000E+00  0.10566000000E+00 0.  1.
     999900   -1    0    0    0    0 -0.00000000000E+00 -0.00000000000E+00 -0.74505805969E-08  0.93827000000E+00  0.93827000000E+00 0. -1.
     999902    2    1    2    0    0 -0.30193430967E-03  0.11075897952E-01 -0.60569617738E-02  0.10313025115E+01  0.10312252018E+01 0.  0.
     999903    2    3    3    0    0 -0.13270869122E+00 -0.14085346030E-01 -0.87395376580E-02  0.14103747586E+00  0.44779419168E-01 0.  0.
         14    1    1    2    0    0  0.30193430967E-03 -0.11075897952E-01  0.60569617738E-02  0.12627488495E-01  0.00000000000E+00 0. -1.
     999901    1    3    3    0    0  0.13240675691E+00  0.25161243981E-01  0.26825758843E-02  0.89026503564E+00  0.88000000000E+00 0. -1.
        -11    1    4    4    0    0 -0.10270519312E+00  0.17730920900E-02  0.83060716539E-02  0.10305703517E+00  0.51100000000E-03 0.  1.
         11    1    4    4    0    0 -0.30003498098E-01 -0.15858438120E-01 -0.17045609312E-01  0.37980440697E-01  0.51100000000E-03 0. -1.
</event>
<event>
 8    1  0.1993226E+004  0.1043930E+01  0.7957747E-01            NaN
         13   -1    0    0    0    0  0.00000000000E+00  0.00000000000E+00  0.74505805969E-08  0.10566000000E+00  0.10566000000E+00 0. -1.
     999900   -1    0    0    0    0 -0.00000000000E+00 -0.00000000000E+00 -0.74505805969E-08  0.93827000000E+00  0.93827000000E+00 0. -1.
     999902    2    1    2    0    0  0.48152173823E-02  0.40903392233E-04  0.11039220052E-01  0.10318862310E+01  0.10318159436E+01 0.  0.
     999903    2    3    3    0    0 -0.24656310766E-01  0.87417582975E-01 -0.96669507609E-01  0.14053645394E+00  0.46429879516E-01 0.  0.
         14    1    1    2    0    0 -0.48152173823E-02 -0.40903392233E-04 -0.11039220052E-01  0.12043768965E-01  0.00000000000E+00 0.  1.
     999901    1    3    3    0    0  0.29471528149E-01 -0.87376679583E-01  0.10770872766E+00  0.89134977709E+00  0.88000000000E+00 0.  1.
        -11    1    4    4    0    0  0.12983835500E-01  0.14545256844E-01 -0.24246474979E-01  0.31117473401E-01  0.51100000000E-03 0. -1.
         11    1    4    4    0    0 -0.37640146266E-01  0.72872326131E-01 -0.72423032630E-01  0.10941898054E+00  0.51100000000E-03 0.  1.
</event>
<event>
 8    1  0.1993226E+004  0.1043930E+01  0.7957747E-01            NaN
         13   -1    0    0    0    0  0.00000000000E+00  0.00000000000E+00  0.74505805969E-08  0.10566000000E+00  0.10566000000E+00 0.  1.
     999900   -1    0    0    0    0 -0.00000000000E+00 -0.00000000000E+00 -0.74505805969E-08  0.93827000000E+00  0.93827000000E+00 0.  1.
     999902    2    1    2    0    0  0.22900408289E-02  0.99814847292E-02  0.42462796061E-02  0.10328437376E+01  0.10327842374E+01 0.  0.
     999903    2    3    3    0    0 -0.28614583268E-01 -0.13085317031E+00  0.27586142934E-02  0.14110851397E+00  0.44301875872E-01 0.  0.
         14    1    1    2    0    0 -0.22900408289E-02 -0.99814847292E-02 -0.42462796061E-02  0.11086262440E-01  0.00000000000E+00 0. -1.
     999901    1    3    3    0    0  0.30904624097E-01  0.14083465504E+00  0.14876653127E-02  0.89173522359E+00  0.88000000000E+00 0.  1.
        -11    1    4    4    0    0  0.15146996891E-02 -0.89121618616E-01 -0.38094094347E-02  0.89217318616E-01  0.51100000000E-03 0.  1.
         11    1    4    4    0    0 -0.30129282958E-01 -0.41731551692E-01  0.65680237281E-02  0.51891195350E-01  0.51100000000E-03 0. -1.
</event>
<event>
 8    1  0.1993226E+004  0.1043930E+01  0.7957747E-01            NaN
         13   -1    0    0    0    0  0.00000000000E+00  0.00000000000E+00  0.74505805969E-08  0.10566000000E+00  0.10566000000E+00 0. -1.
     999900   -1    0    0    0    0 -0.00000000000E+00 -0.00000000000E+00 -0.74505805969E-08  0.93827000000E+00  0.93827000000E+00 0.  1.
     999902    2    1    2    0    0  0.76100441516E-02 -0.89289661542E-02  0.86078188604E-02  0.10293789260E+01  0.10292760755E+01 0.  0.
     999903    2    3    3    0    0  0.58649264597E-01  0.36129226319E-01 -0.11136362714E+00  0.13863295180E+00  0.45521210896E-01 0.  0.
         14    1    1    2    0    0 -0.76100441516E-02  0.89289661542E-02 -0.86078188604E-02  0.14551073985E-01  0.00000000000E+00 0.  1.
     999901    1    3    3    0    0 -0.51039220445E-01 -0.45058192474E-01  0.11997144600E+00  0.89074597422E+00  0.88000000000E+00 0. -1.
        -11    1    4    4    0    0 -0.28408557161E-02  0.15434286220E-01 -0.35443417309E-01  0.38765765875E-01  0.51100000000E-03 0. -1.
         11    1    4    4    0    0  0.61490120313E-01  0.20694940099E-01 -0.75920209832E-01  0.99867185921E-01  0.51100000000E-03 0.  1.
</event>
<event>
 8    1  0.1993226E+004  0.1043930E+01  0.7957747E-01            NaN
         13   -1    0    0    0    0  0.00000000000E+00  0.00000000000E+00  0.74505805969E-08  0.10566000000E+00  0.10566000000E+00 0. -1.
     999900   -1    0    0    0    0 -0.00000000000E+00 -0.00000000000E+00 -0.74505805969E-08  0.93827000000E+00  0.93827000000E+00 0.  1.
     999902    2    1    2    0    0  0.13087590338E-01 -0.30866717113E-03  0.38737441904E-02  0.10302776672E+01  0.10301872089E+01 0.  0.
     999903    2    3    3    0    0  0.13140126678E+00  0.98855149565E-02 -0.26888096962E-01  0.14176861366E+00  0.44848118615E-01 0.  0.
         14    1    1    2    0    0 -0.13087590338E-01  0.30866717113E-03 -0.38737441904E-02  0.13652332780E-01  0.00000000000E+00 0.  1.
     999901    1    3    3    0    0 -0.11831367644E+00 -0.10194182128E-01  0.30761841153E-01  0.88850905356E+00  0.88000000000E+00 0.  1.
        -11    1    4    4    0    0  0.95770460557E-01  0.27146701327E-01 -0.21039037335E-01  0.10174392720E+00  0.51100000000E-03 0.  1.
         11    1    4    4    0    0  0.35630806226E-01 -0.17261186370E-01 -0.58490596275E-02  0.40024686467E-01  0.51100000000E-03 0. -1.
</event>
<event>
 7    1  0.1993226E+004  0.1043930E+01  0.7957747E-01            NaN
         13   -1    0    0    0    0  0.00000000000E+00  0.00000000000E+00  0.74505805969E-08  0.10566000000E+00  0.10566000000E+00 0.  1.
     999900   -1    0    0    0    0 -0.00000000000E+00 -0.00000000000E+00 -0.74505805969E-08  0.93827000000E+00  0.93827000000E+00 0. -1.
     999902    2    1    2    0    0 -0.12252424068E-01 -0.63494149118E-02  0.19321857247E-02  0.10299954994E+01  0.10299012372E+01 0.  0.
         14    1    1    2    0    0  0.12252424068E-01  0.63494149118E-02 -0.19321857247E-02  0.13934500599E-01  0.00000000000E+00 0. -1.
     999901    1    3    3    0    0 -0.39004918398E-01 -0.84501051685E-01 -0.39182000016E-01  0.88577482495E+00  0.88000000000E+00 0. -1.
        -11    1    3    3    0    0  0.47340482716E-01  0.55167599476E-01  0.70744710222E-01  0.10143796371E+00  0.51100000000E-03 0.  1.
         11    1    3    3    0    0 -0.20587988386E-01  0.22984037297E-01 -0.29630524481E-01  0.42782710741E-01  0.51100000000E-03 0. -1.
</event>
<event>
 8    1  0.1993226E+004  0.1043930E+01  0.7957747E-01            NaN
         13   -1    0    0    0    0  0.00000000000E+00  0.00000000000E+00  0.74505805969E-08  0.10566000000E+00  0.10566000000E+00 0.  1.
     999900   -1    0    0    0    0 -0.00000000000E+00 -0.00000000000E+00 -0.74505805969E-08  0.93827000000E+00  0.93827000000E+00 0. -1.
     999902    2    1    2    0    0  0.74306020958E-02  0.81524050970E-02  0.89769727936E-02  0.10297081296E+01  0.10296099119E+01 0.  0.
     999903    2    3    3    0    0  0.97878823892E-01  0.35805459822E-01  0.84234813306E-01  0.14144616668E+00  0.45268302111E-01 0.  0.
         14    1    1    2    0    0 -0.74306020958E-02 -0.81524050970E-02 -0.89769727936E-02  0.14221870373E-01  0.00000000000E+00 0. -1.
     999901    1    3    3    0    0 -0.90448221796E-01 -0.27653054725E-01 -0.75257840513E-01  0.88826196295E+00  0.88000000000E+00 0. -1.
        -11    1    4    4    0    0  0.68675069912E-01  0.24138107094E-01  0.29966271507E-01  0.78721991784E-01  0.51100000000E-03 0.  1.
         11    1    4    4    0    0  0.29203753980E-01  0.11667352728E-01  0.54268541799E-01  0.62724174894E-01  0.51100000000E-03 0. -1.
</event>
<event>
 8    1  0.1993226E+004  0.1043930E+01  0.7957747E-01            NaN
         13   -1    0    0    0    0  0.00000000000E+00  0.00000000000E+00  0.74505805969E-08  0.10566000000E+00  0.10566000000E+00 0.  1.
     999900   -1    0    0    0    0 -0.00000000000E+00 -0.00000000000E+00 -0.74505805969E-08  0.93827000000E+00  0.93827000000E+00 0.  1.
     999902    2    1    2    0    0  0.13549466290E-02  0.80440482755E-02  0.11841506988E-01  0.10295507135E+01  0.10294502940E+01 0.  0.
     999903    2    3    3    0    0 -0.50845203298E-01  0.69126493164E-01 -0.99470179191E-01  0.13890700683E+00  0.45134612457E-01 0.  0.
         14    1    1    2    0    0 -0.13549466290E-02 -0.80440482755E-02 -0.11841506988E-01  0.14379286518E-01  0.00000000000E+00 0. -1.
     999901    1    3    3    0    0  0.52200149927E-01 -0.61082444888E-01  0.11131168618E+00  0.89064370666E+00  0.88000000000E+00 0. -1.
        -11    1    4    4    0    0 -0.56087145742E-01  0.64673107255E-01 -0.76105515452E-01  0.11454557749E+00  0.51100000000E-03 0. -1.
         11    1    4    4    0    0  0.52419424442E-02  0.44533859089E-02 -0.23364663739E-01  0.24361429335E-01  0.51100000000E-03 0.  1.
</event>
<event>
 8    1  0.1993226E+004  0.1043930E+01  0.7957747E-01            NaN
         13   -1    0    0    0    0  0.00000000000E+00  0.00000000000E+00  0.74505805969E-08  0.10566000000E+00  0.10566000000E+00 0.  1.
     999900   -1    0    0    0    0 -0.00000000000E+00 -0.00000000000E+00 -0.74505805969E-08  0.93827000000E+00  0.93827000000E+00 0.  1.
     999902    2    1    2    0    0 -0.79263926926E-02  0.89266014291E-02  0.72416464572E-02  0.10299674301E+01  0.10298727852E+01 0.  0.
     999903    2    3    3    0    0 -0.43850772470E-01  0.12629110813E+00  0.67867559601E-02  0.14144889040E+00  0.45709892811E-01 0.  0.
         14    1    1    2    0    0  0.79263926926E-02 -0.89266014291E-02 -0.72416464572E-02  0.13962569878E-01  0.00000000000E+00 0. -1.
     999901    1    3    3    0    0  0.35924379777E-01 -0.11736450670E+00  0.45489049713E-03  0.88851853972E+00  0.88000000000E+00 0. -1.
        -11    1    4    4    0    0 -0.36496337018E-01  0.12661094803E+00  0.12150779239E-01  0.13232617781E+00  0.51100000000E-03 0.  1.
         11    1    4    4    0    0 -0.73544354522E-02 -0.31983989539E-03 -0.53640232794E-02  0.91227125966E-02  0.51100000000E-03 0. -1.
</event>
<event>
 8    1  0.1993226E+004  0.1043930E+01  0.7957747E-01            NaN
         13   -1    0    0    0    0  0.00000000000E+00  0.00000000000E+00  0.74505805969E-08  0.10566000000E+00  0.10566000000E+00 0.  1.
     999900   -1    0    0    0    0 -0.00000000000E+00 -0.00000000000E+00 -0.74505805969E-08  0.93827000000E+00  0.93827000000E+00 0.  1.
     999902    2    1    2    0    0 -0.81049829122E-02 -0.12000083305E-01  0.27171653770E-02  0.10291965097E+01  0.10290910455E+01 0.  0.
     999903    2    3    3    0    0  0.27652776343E-03 -0.47513110527E-01  0.12374836493E+00  0.14016334046E+00  0.45547031159E-01 0.  0.
         14    1    1    2    0    0  0.81049829122E-02  0.12000083305E-01 -0.27171653770E-02  0.14733490252E-01  0.00000000000E+00 0. -1.
     999901    1    3    3    0    0 -0.83815106756E-02  0.35513027222E-01 -0.12103119955E+00  0.88903316928E+00  0.88000000000E+00 0.  1.
        -11    1    4    4    0    0  0.13705680829E-01 -0.46553272688E-01  0.73024455575E-01  0.87680585753E-01  0.51100000000E-03 0.  1.
         11    1    4    4    0    0 -0.13429153066E-01 -0.95983783888E-03  0.50723909354E-01  0.52482754709E-01  0.51100000000E-03 0. -1.
</event>
<event>
 8    1  0.1993226E+004  0.1043930E+01  0.7957747E-01            NaN
         13   -1    0    0    0    0  0.00000000000E+00  0.00000000000E+00  0.74505805969E-08  0.10566000000E+00  0.10566000000E+00 0. -1.
     999900   -1    0    0    0    0 -0.00000000000E+00 -0.00000000000E+00 -0.74505805969E-08  0.93827000000E+00  0.93827000000E+00 0.  1.
     999902    2    1    2    0    0  0.10056375088E-01  0.68749661163E-02 -0.74614685634E-02  0.10296447155E+01  0.10295456138E+01 0.  0.
     999903    2    3    3    0    0 -0.38840461331E-01 -0.35261759138E-01  0.11907364867E+00  0.13825392575E+00  0.46729445581E-01 0.  0.
         14    1    1    2    0    0 -0.10056375088E-01 -0.68749661163E-02  0.74614685634E-02  0.14285284461E-01  0.00000000000E+00 0. -1.
     999901    1    3    3    0    0  0.48896836419E-01  0.42136725255E-01 -0.12653511723E+00  0.89139078979E+00  0.88000000000E+00 0.  1.
        -11    1    4    4    0    0 -0.18031003399E-01  0.57698904985E-02  0.14009492122E-01  0.23557073469E-01  0.51100000000E-03 0. -1.
         11    1    4    4    0    0 -0.20809457933E-01 -0.41031649637E-01  0.10506415655E+00  0.11469685228E+00  0.51100000000E-03 0.  1.
</event>
<event>
 8    1  0.1993226E+004  0.1043930E+01  0.7957747E-01            NaN
         13   -1    0    0    0    0  0.00000000000E+00  0.00000000000E+00  0.74505805969E-08  0.10566000000E+00  0.10566000000E+00 0. -1.
     999900   -1    0    0    0    0 -0.00000000000E+00 -0.00000000000E+00 -0.74505805969E-08  0.93827000000E+00  0.93827000000E+00 0. -1.
     999902    2    1    2    0    0  0.27223831651E-02  0.21947863216E-01  0.18811492640E-02  0.10217340816E+01  0.10214929636E+01 0.  0.
     999903    2    3    3    0    0  0.80318972454E-02 -0.12126884435E+00 -0.98041405808E-02  0.13006387226E+00  0.45275221833E-01 0.  0.
         14    1    1    2    0    0 -0.27223831651E-02 -0.21947863216E-01 -0.18811492640E-02  0.22195918373E-01  0.00000000000E+00 0. -1.
     999901    1    3    3    0    0 -0.53095140803E-02  0.14321670757E+00  0.11685289845E-01  0.89167020936E+00  0.88000000000E+00 0. -1.
        -11    1    4    4    0    0  0.17029453359E-01 -0.14573334755E-01 -0.44329277425E-02  0.22853803556E-01  0.51100000000E-03 0. -1.
         11    1    4    4    0    0 -0.89975561137E-02 -0.10669550960E+00 -0.53712128383E-02  0.10721006871E+00  0.51100000000E-03 0.  1.
</event>
<event>
 7    1  0.1993226E+004  0.1043930E+01  0.7957747E-01            NaN
         13   -1    0    0    0    0  0.00000000000E+00  0.00000000000E+00  0.74505805969E-08  0.10566000000E+00  0.10566000000E+00 0.  1.
     999900   -1    0    0    0    0 -0.00000000000E+00 -0.00000000000E+00 -0.74505805969E-08  0.93827000000E+00  0.93827000000E+00 0.  1.
     999903    2    1    2    0    0  0.75040728556E-01 -0.10611679145E-01 -0.43885332021E-01  0.99723139179E-01  0.47697625147E-01 0.  0.
         14    1    1    2    0    0 -0.60241415330E-01  0.13558190687E-01 -0.94296666140E-02  0.62464159869E-01  0.00000000000E+00 0.  1.
     999901    1    1    2    0    0 -0.14799313226E-01 -0.29465115418E-02  0.53314998635E-01  0.88174270095E+00  0.88000000000E+00 0. -1.
        -11    1    3    3    0    0  0.22977437135E-01 -0.20767010407E-01 -0.33579229813E-01  0.45684320443E-01  0.51100000000E-03 0.  1.
         11    1    3    3    0    0  0.52063291421E-01  0.10155331262E-01 -0.10306102208E-01  0.54038818736E-01  0.51100000000E-03 0. -1.
</event>
<event>
 8    1  0.1993226E+004  0.1043930E+01  0.7957747E-01            NaN
         13   -1    0    0    0    0  0.00000000000E+00  0.00000000000E+00  0.74505805969E-08  0.10566000000E+00  0.10566000000E+00 0.  1.
     999900   -1    0    0    0    0 -0.00000000000E+00 -0.00000000000E+00 -0.74505805969E-08  0.93827000000E+00  0.93827000000E+00 0.  1.
     999902    2    1    2    0    0 -0.10913729399E-01 -0.29825939043E-02 -0.73719816145E-02  0.10304262424E+01  0.10303377551E+01 0.  0.
     999903    2    3    3    0    0  0.66925141616E-01 -0.38678775319E-01  0.10632288627E+00  0.13898940776E+00  0.45149497069E-01 0.  0.
         14    1    1    2    0    0  0.10913729399E-01  0.29825939043E-02  0.73719816145E-02  0.13503757578E-01  0.00000000000E+00 0.  1.
     999901    1    3    3    0    0 -0.77838871015E-01  0.35696181415E-01 -0.11369486788E+00  0.89143683466E+00  0.88000000000E+00 0.  1.
        -11    1    4    4    0    0 -0.43991959293E-02 -0.10362250301E-01  0.23596252738E-01  0.26149061559E-01  0.51100000000E-03 0.  1.
         11    1    4    4    0    0  0.71324337545E-01 -0.28316525018E-01  0.82726633527E-01  0.11284034620E+00  0.51100000000E-03 0. -1.
</event>
<event>
 8    1  0.1993226E+004  0.1043930E+01  0.7957747E-01            NaN
         13   -1    0    0    0    0  0.00000000000E+00  0.00000000000E+00  0.74505805969E-08  0.10566000000E+00  0.10566000000E+00 0. -1.
     999900   -1    0    0    0    0 -0.00000000000E+00 -0.00000000000E+00 -0.74505805969E-08  0.93827000000E+00  0.93827000000E+00 0. -1.
     999902    2    1    2    0    0  0.12385532744E-01 -0.71234632440E-02  0.49710260829E-04  0.10296419763E+01  0.10295428363E+01 0.  0.
     999903    2    3    3    0    0 -0.71696819614E-01 -0.87701690535E-01 -0.69441948565E-01  0.13925341880E+00  0.41681050391E-01 0.  0.
         14    1    1    2    0    0 -0.12385532744E-01  0.71234632440E-02 -0.49710260829E-04  0.14288023693E-01  0.00000000000E+00 0. -1.
     999901    1    3    3    0    0  0.84082352359E-01  0.80578227291E-01  0.69491658826E-01  0.89038855751E+00  0.88000000000E+00 0. -1.
        -11    1    4    4    0    0 -0.49131481000E-01 -0.41055597684E-01 -0.18644709699E-01  0.66688461125E-01  0.51100000000E-03 0.  1.
         11    1    4    4    0    0 -0.22565338614E-01 -0.46646092851E-01 -0.50797238866E-01  0.72564957676E-01  0.51100000000E-03 0. -1.
</event>
<event>
 8    1  0.1993226E+004  0.1043930E+01  0.7957747E-01            NaN
         13   -1    0    0    0    0  0.00000000000E+00  0.00000000000E+00  0.74505805969E-08  0.10566000000E+00  0.10566000000E+00 0. -1.
     999900   -1    0    0    0    0 -0.00000000000E+00 -0.00000000000E+00 -0.74505805969E-08  0.93827000000E+00  0.93827000000E+00 0. -1.
     999902    2    1    2    0    0  0.10512340760E-01 -0.73807885212E-02 -0.69047090741E-02  0.10293471212E+01  0.10292438173E+01 0.  0.
     999903    2    3    3    0    0 -0.50331307885E-01 -0.55112859080E-01 -0.10935446255E+00  0.14003488572E+00  0.45614722940E-01 0.  0.
         14    1    1    2    0    0 -0.10512340760E-01  0.73807885212E-02  0.69047090741E-02  0.14582878826E-01  0.00000000000E+00 0. -1.
     999901    1    3    3    0    0  0.60843648644E-01  0.47732070559E-01  0.10244975348E+00  0.88931223545E+00  0.88000000000E+00 0.  1.
        -11    1    4    4    0    0 -0.76264185529E-02 -0.39086190173E-01 -0.66104553392E-01  0.77174902801E-01  0.51100000000E-03 0.  1.
         11    1    4    4    0    0 -0.42704889332E-01 -0.16026668907E-01 -0.43249909162E-01  0.62859982919E-01  0.51100000000E-03 0. -1.
</event>
<event>
 8    1  0.1993226E+004  0.1043930E+01  0.7957747E-01            NaN
         13   -1    0    0    0    0  0.00000000000E+00  0.00000000000E+00  0.74505805969E-08  0.10566000000E+00  0.10566000000E+00 0. -1.
     999900   -1    0    0    0    0 -0.00000000000E+00 -0.00000000000E+00 -0.74505805969E-08  0.93827000000E+00  0.93827000000E+00 0. -1.
     999902    2    1    2    0    0  0.12241144670E-01  0.38015777373E-03 -0.48466874415E-02  0.10307587995E+01  0.10306746442E+01 0.  0.
     999903    2    3    3    0    0 -0.19489650668E-01 -0.11811727790E+00 -0.58715101722E-01  0.14061819732E+00  0.44659561414E-01 0.  0.
         14    1    1    2    0    0 -0.12241144670E-01 -0.38015777373E-03  0.48466874415E-02  0.13171200474E-01  0.00000000000E+00 0. -1.
     999901    1    3    3    0    0  0.31730795338E-01  0.11849743568E+00  0.53868414281E-01  0.89014060220E+00  0.88000000000E+00 0.  1.
        -11    1    4    4    0    0 -0.13243541538E-01 -0.56091220763E-01 -0.41758277123E-02  0.57786807294E-01  0.51100000000E-03 0.  1.
         11    1    4    4    0    0 -0.62461091302E-02 -0.62026057140E-01 -0.54539274010E-01  0.82831390029E-01  0.51100000000E-03 0. -1.
</event>
<event>
 8    1  0.1993226E+004  0.1043930E+01  0.7957747E-01            NaN
         13   -1    0    0    0    0  0.00000000000E+00  0.00000000000E+00  0.74505805969E-08  0.10566000000E+00  0.10566000000E+00 0. -1.
     999900   -1    0    0    0    0 -0.00000000000E+00 -0.00000000000E+00 -0.74505805969E-08  0.93827000000E+00  0.93827000000E+00 0.  1.
     999902    2    1    2    0    0  0.13541560937E-01 -0.24976511803E-02 -0.41450687959E-02  0.10295496756E+01  0.10294492415E+01 0.  0.
     999903    2    3    3    0    0  0.55697654571E-01  0.76379712524E-01 -0.93285380567E-01  0.14053630681E+00  0.45958699876E-01 0.  0.
         14    1    1    2    0    0 -0.13541560937E-01  0.24976511803E-02  0.41450687959E-02  0.14380324383E-01  0.00000000000E+00 0. -1.
     999901    1    3    3    0    0 -0.42156093634E-01 -0.78877363704E-01  0.89140311771E-01  0.88901336881E+00  0.88000000000E+00 0. -1.
        -11    1    4    4    0    0  0.34848721879E-01  0.31328571309E-01 -0.17676897381E-01  0.50086391553E-01  0.51100000000E-03 0.  1.
         11    1    4    4    0    0  0.20848932692E-01  0.45051141215E-01 -0.75608483187E-01  0.90449915257E-01  0.51100000000E-03 0. -1.
</event>
<event>
 8    1  0.1993226E+004  0.1043930E+01  0.7957747E-01            NaN
         13   -1    0    0    0    0  0.00000000000E+00  0.00000000000E+00  0.74505805969E-08  0.10566000000E+00  0.10566000000E+00 0.  1.
     999900   -1    0    0    0    0 -0.00000000000E+00 -0.00000000000E+00 -0.74505805969E-08  0.93827000000E+00  0.93827000000E+00 0.  1.
     999902    2    1    2    0    0  0.12206125127E-01  0.46986470460E-02 -0.42575433318E-02  0.10301752390E+01  0.10300834091E+01 0.  0.
     999903    2    3    3    0    0  0.46556175710E-01  0.67503223822E-01 -0.10616030014E+00  0.14140726440E+00  0.44741953205E-01 0.  0.
         14    1    1    2    0    0 -0.12206125127E-01 -0.46986470460E-02  0.42575433318E-02  0.13754760991E-01  0.00000000000E+00 0. -1.
     999901    1    3    3    0    0 -0.34350050583E-01 -0.62804576776E-01  0.10190275681E+00  0.88876797461E+00  0.88000000000E+00 0. -1.
        -11    1    4    4    0    0  0.47625017717E-01  0.54346872999E-01 -0.61681531018E-01  0.95008406507E-01  0.51100000000E-03 0.  1.
         11    1    4    4    0    0 -0.10688420071E-02  0.13156350823E-01 -0.44478769125E-01  0.46398857896E-01  0.51100000000E-03 0. -1.
</event>
<event>
 8    1  0.1993226E+004  0.1043930E+01  0.7957747E-01            NaN
         13   -1    0    0    0    0  0.00000000000E+00  0.00000000000E+00  0.74505805969E-08  0.10566000000E+00  0.10566000000E+00 0.  1.
     999900   -1    0    0    0    0 -0.00000000000E+00 -0.00000000000E+00 -0.74505805969E-08  0.93827000000E+00  0.93827000000E+00 0.  1.
     999902    2    1    2    0    0 -0.30041396424E-02  0.78973197819E-02 -0.12757430435E-01  0.10286282176E+01  0.10285143973E+01 0.  0.
     999903    2    3    3    0    0  0.21914154983E-01  0.68804272700E-01 -0.11213536557E+00  0.14059299736E+00  0.44472379780E-01 0.  0.
         14    1    1    2    0    0  0.30041396424E-02 -0.78973197819E-02  0.12757430435E-01  0.15301782446E-01  0.00000000000E+00 0.  1.
     999901    1    3    3    0    0 -0.24918294625E-01 -0.60906952918E-01  0.99377935136E-01  0.88803522020E+00  0.88000000000E+00 0. -1.
        -11    1    4    4    0    0  0.14613307678E-01  0.81349034126E-03 -0.10208233508E-01  0.17851601613E-01  0.51100000000E-03 0. -1.
         11    1    4    4    0    0  0.73008473051E-02  0.67990782358E-01 -0.10192713206E+00  0.12274139574E+00  0.51100000000E-03 0.  1.
</event>
<event>
 8    1  0.1993226E+004  0.1043930E+01  0.7957747E-01            NaN
         13   -1    0    0    0    0  0.00000000000E+00  0.00000000000E+00  0.74505805969E-08  0.10566000000E+00  0.10566000000E+00 0.  1.
     999900   -1    0    0    0    0 -0.00000000000E+00 -0.00000000000E+00 -0.74505805969E-08  0.93827000000E+00  0.93827000000E+00 0. -1.
     999902    2    1    2    0    0 -0.27248609840E-02 -0.12438895270E-01  0.53606453899E-02  0.10301137957E+01  0.10300211379E+01 0.  0.
     999903    2    3    3    0    0  0.81561945554E-01  0.56779263995E-01 -0.86066079440E-01  0.13867997012E+00  0.44142137473E-01 0.  0.
         14    1    1    2    0    0  0.27248609840E-02  0.12438895270E-01 -0.53606453899E-02  0.13816204324E-01  0.00000000000E+00 0.  1.
     999901    1    3    3    0    0 -0.84286806538E-01 -0.69218159265E-01  0.91426724830E-01  0.89143382555E+00  0.88000000000E+00 0.  1.
        -11    1    4    4    0    0  0.56563359224E-01  0.12577283065E-01 -0.46840426581E-01  0.74510994754E-01  0.51100000000E-03 0.  1.
         11    1    4    4    0    0  0.24998586330E-01  0.44201980929E-01 -0.39225652859E-01  0.64168975368E-01  0.51100000000E-03 0. -1.
</event>
<event>
 8    1  0.2036357E+004  0.1043930E+01  0.7957747E-01            NaN
         13   -1    0    0    0    0  0.00000000000E+00  0.00000000000E+00  0.74505805969E-08  0.10566000000E+00  0.10566000000E+00 0.  1.
     999900   -1    0    0    0    0 -0.00000000000E+00 -0.00000000000E+00 -0.74505805969E-08  0.93827000000E+00  0.93827000000E+00 0.  1.
     999902    2    1    2    0    0  0.12396924374E-02 -0.12121835662E-01  0.57960232792E-02  0.10304366823E+01  0.10303483326E+01 0.  0.
     999903    2    3    3    0    0  0.55705321705E-01  0.11916952053E+00 -0.71065070759E-03  0.13900734589E+00  0.44923041916E-01 0.  0.
         14    1    1    2    0    0 -0.12396924374E-02  0.12121835662E-01 -0.57960232792E-02  0.13493317717E-01  0.00000000000E+00 0. -1.
     999901    1    3    3    0    0 -0.54465629268E-01 -0.13129135620E+00  0.65066739868E-02  0.89142933640E+00  0.88000000000E+00 0.  1.
        -11    1    4    4    0    0  0.26328122791E-01  0.80186992331E-01  0.18747110607E-01  0.86457151618E-01  0.51100000000E-03 0. -1.
         11    1    4    4    0    0  0.29377198914E-01  0.38982528204E-01 -0.19457761315E-01  0.52550194268E-01  0.51100000000E-03 0.  1.
</event>
<event>
 8    1  0.1993226E+004  0.1043930E+01  0.7957747E-01            NaN
         13   -1    0    0    0    0  0.00000000000E+00  0.00000000000E+00  0.74505805969E-08  0.10566000000E+00  0.10566000000E+00 0. -1.
     999900   -1    0    0    0    0 -0.00000000000E+00 -0.00000000000E+00 -0.74505805969E-08  0.93827000000E+00  0.93827000000E+00 0.  1.
     999902    2    1    2    0    0  0.11507481901E-01 -0.57294425183E-02  0.64456282218E-02  0.10295496393E+01  0.10294492047E+01 0.  0.
     999903    2    3    3    0    0  0.13331978830E+00 -0.77777700016E-02 -0.60958666913E-02  0.14106794407E+00  0.45037157934E-01 0.  0.
         14    1    1    2    0    0 -0.11507481901E-01  0.57294425183E-02 -0.64456282218E-02  0.14380360720E-01  0.00000000000E+00 0.  1.
     999901    1    3    3    0    0 -0.12181230640E+00  0.20483274833E-02  0.12541494913E-01  0.88848169521E+00  0.88000000000E+00 0. -1.
        -11    1    4    4    0    0  0.66202292185E-01  0.18675304147E-01 -0.24369806200E-02  0.68831028403E-01  0.51100000000E-03 0. -1.
         11    1    4    4    0    0  0.67117496112E-01 -0.26453074149E-01 -0.36588860713E-02  0.72236915663E-01  0.51100000000E-03 0.  1.
</event>
<event>
 8    1  0.1993226E+004  0.1043930E+01  0.7957747E-01            NaN
         13   -1    0    0    0    0  0.00000000000E+00  0.00000000000E+00  0.74505805969E-08  0.10566000000E+00  0.10566000000E+00 0.  1.
     999900   -1    0    0    0    0 -0.00000000000E+00 -0.00000000000E+00 -0.74505805969E-08  0.93827000000E+00  0.93827000000E+00 0. -1.
     999902    2    1    2    0    0  0.42037618159E-02  0.92546073233E-02 -0.95783234741E-02  0.10299634811E+01  0.10298687823E+01 0.  0.
     999903    2    3    3    0    0  0.11265214040E+00 -0.12655790001E-01 -0.70876203447E-01  0.14091986774E+00  0.44545472873E-01 0.  0.
         14    1    1    2    0    0 -0.42037618159E-02 -0.92546073233E-02  0.95783234741E-02  0.13966518918E-01  0.00000000000E+00 0.  1.
     999901    1    3    3    0    0 -0.10844837858E+00  0.21910397325E-01  0.61297879973E-01  0.88904361334E+00  0.88000000000E+00 0. -1.
        -11    1    4    4    0    0  0.35567157316E-01 -0.25261548694E-01 -0.23288949251E-01  0.49455078609E-01  0.51100000000E-03 0.  1.
         11    1    4    4    0    0  0.77084983080E-01  0.12605758693E-01 -0.47587254196E-01  0.91464789135E-01  0.51100000000E-03 0. -1.
</event>
<event>
 8    1  0.1993226E+004  0.1043930E+01  0.7957747E-01            NaN
         13   -1    0    0    0    0  0.00000000000E+00  0.00000000000E+00  0.74505805969E-08  0.10566000000E+00  0.10566000000E+00 0.  1.
     999900   -1    0    0    0    0 -0.00000000000E+00 -0.00000000000E+00 -0.74505805969E-08  0.93827000000E+00  0.93827000000E+00 0. -1.
     999902    2    1    2    0    0  0.13317691489E-01 -0.50013690653E-02 -0.45098352332E-02  0.10290064209E+01  0.10288981976E+01 0.  0.
     999903    2    3    3    0    0  0.75044346820E-02 -0.12790395676E+00  0.33712288631E-01  0.13962474200E+00  0.44077335224E-01 0.  0.
         14    1    1    2    0    0 -0.13317691489E-01  0.50013690653E-02  0.45098352332E-02  0.14923579093E-01  0.00000000000E+00 0.  1.
     999901    1    3    3    0    0  0.58132568069E-02  0.12290258769E+00 -0.38222123864E-01  0.88938167890E+00  0.88000000000E+00 0. -1.
        -11    1    4    4    0    0  0.22713327389E-01 -0.78161775510E-01  0.32348366623E-01  0.87589019495E-01  0.51100000000E-03 0. -1.
         11    1    4    4    0    0 -0.15208892707E-01 -0.49742181248E-01  0.13639220079E-02  0.52035722508E-01  0.51100000000E-03 0.  1.
</event>
<event>
 8    1  0.1993226E+004  0.1043930E+01  0.7957747E-01            NaN
         13   -1    0    0    0    0  0.00000000000E+00  0.00000000000E+00  0.74505805969E-08  0.10566000000E+00  0.10566000000E+00 0.  1.
     999900   -1    0    0    0    0 -0.00000000000E+00 -0.00000000000E+00 -0.74505805969E-08  0.93827000000E+00  0.93827000000E+00 0.  1.
     999902    2    1    2    0    0  0.10500199030E-02  0.12475740298E-01  0.13752746931E-02  0.10313348415E+01  0.10312579295E+01 0.  0.
     999903    2    3    3    0    0  0.12255669105E+00 -0.39113070188E-01 -0.34193277360E-01  0.14077861170E+00  0.45819892133E-01 0.  0.
         14    1    1    2    0    0 -0.10500199030E-02 -0.12475740298E-01 -0.13752746931E-02  0.12595158525E-01  0.00000000000E+00 0. -1.
     999901    1    3    3    0    0 -0.12150667114E+00  0.51588810486E-01  0.35568552053E-01  0.89055622978E+00  0.88000000000E+00 0. -1.
        -11    1    4    4    0    0  0.91972307098E-01 -0.47718438492E-01 -0.18190144299E-01  0.10520027146E+00  0.51100000000E-03 0.  1.
         11    1    4    4    0    0  0.30584383950E-01  0.86053683040E-02 -0.16003133060E-01  0.35578340236E-01  0.51100000000E-03 0. -1.
</event>
<event>
 8    1  0.1993226E+004  0.1043930E+01  0.7957747E-01            NaN
         13   -1    0    0    0    0  0.00000000000E+00  0.00000000000E+00  0.74505805969E-08  0.10566000000E+00  0.10566000000E+00 0.  1.
     999900   -1    0    0    0    0 -0.00000000000E+00 -0.00000000000E+00 -0.74505805969E-08  0.93827000000E+00  0.93827000000E+00 0.  1.
     999902    2    1    2    0    0 -0.10432113922E-01  0.10771639597E-01 -0.57040703088E-02  0.10278865079E+01  0.10277612950E+01 0.  0.
     999903    2    3    3    0    0  0.45335665680E-01 -0.86653979478E-01 -0.85368183066E-01  0.13718556631E+00  0.44361223860E-01 0.  0.
         14    1    1    2    0    0  0.10432113922E-01 -0.10771639597E-01  0.57040703088E-02  0.16043492095E-01  0.00000000000E+00 0.  1.
     999901    1    3    3    0    0 -0.55767779602E-01  0.97425619075E-01  0.79664112757E-01  0.89070094159E+00  0.88000000000E+00 0. -1.
        -11    1    4    4    0    0  0.50617885482E-01 -0.78248617795E-01 -0.62393741649E-01  0.11215282714E+00  0.51100000000E-03 0. -1.
         11    1    4    4    0    0 -0.52822198015E-02 -0.84053616829E-02 -0.22974441417E-01  0.25032739172E-01  0.51100000000E-03 0.  1.
</event>
<event>
 8    1  0.1993226E+004  0.1043930E+01  0.7957747E-01            NaN
         13   -1    0    0    0    0  0.00000000000E+00  0.00000000000E+00  0.74505805969E-08  0.10566000000E+00  0.10566000000E+00 0.  1.
     999900   -1    0    0    0    0 -0.00000000000E+00 -0.00000000000E+00 -0.74505805969E-08  0.93827000000E+00  0.93827000000E+00 0. -1.
     999902    2    1    2    0    0 -0.90265509775E-03  0.33454408951E-02  0.14709749779E-01  0.10288176375E+01  0.10287066383E+01 0.  0.
     999903    2    3    3    0    0  0.26633648455E-01  0.12611573921E+00  0.29869039730E-01  0.13973912680E+00  0.44948115836E-01 0.  0.
         14    1    1    2    0    0  0.90265509775E-03 -0.33454408951E-02 -0.14709749779E-01  0.15112362475E-01  0.00000000000E+00 0. -1.
     999901    1    3    3    0    0 -0.27536303552E-01 -0.12277029832E+00 -0.15159289951E-01  0.88907851073E+00  0.88000000000E+00 0. -1.
        -11    1    4    4    0    0  0.18830530450E-02  0.82748851325E-01  0.25318665830E-02  0.82810565472E-01  0.51100000000E-03 0. -1.
         11    1    4    4    0    0  0.24750595410E-01  0.43366887888E-01  0.27337173147E-01  0.56928561328E-01  0.51100000000E-03 0.  1.
</event>
<event>
 8    1  0.1993226E+004  0.1043930E+01  0.7957747E-01            NaN
         13   -1    0    0    0    0  0.00000000000E+00  0.00000000000E+00  0.74505805969E-08  0.10566000000E+00  0.10566000000E+00 0.  1.
     999900   -1    0    0    0    0 -0.00000000000E+00 -0.00000000000E+00 -0.74505805969E-08  0.93827000000E+00  0.93827000000E+00 0. -1.
     999902    2    1    2    0    0 -0.75735047742E-02 -0.11758533943E-01  0.13421134256E-02  0.10298792931E+01  0.10297834413E+01 0.  0.
     999903    2    3    3    0    0 -0.29818027721E-01  0.12720084565E+00  0.10139040655E-01  0.13865434178E+00  0.45310665842E-01 0.  0.
         14    1    1    2    0    0  0.75735047742E-02  0.11758533943E-01 -0.13421134256E-02  0.14050706868E-01  0.00000000000E+00 0.  1.
     999901    1    3    3    0    0  0.22244522947E-01 -0.13895937959E+00 -0.87969272290E-02  0.89122495135E+00  0.88000000000E+00 0. -1.
        -11    1    4    4    0    0 -0.26823134865E-01  0.89886315701E-01 -0.12911898152E-01  0.94689009653E-01  0.51100000000E-03 0. -1.
         11    1    4    4    0    0 -0.29948928566E-02  0.37314529948E-01  0.23050938806E-01  0.43965332130E-01  0.51100000000E-03 0.  1.
</event>
<event>
 8    1  0.1993226E+004  0.1043930E+01  0.7957747E-01            NaN
         13   -1    0    0    0    0  0.00000000000E+00  0.00000000000E+00  0.74505805969E-08  0.10566000000E+00  0.10566000000E+00 0. -1.
     999900   -1    0    0    0    0 -0.00000000000E+00 -0.00000000000E+00 -0.74505805969E-08  0.93827000000E+00  0.93827000000E+00 0. -1.
     999902    2    1    2    0    0 -0.81560512252E-02 -0.62009747026E-02  0.95960302565E-02  0.10298922988E+01  0.10297966256E+01 0.  0.
     999903    2    3    3    0    0  0.89107041327E-02  0.95551196550E-01  0.91705976967E-01  0.14006825896E+00  0.44717995778E-01 0.  0.
         14    1    1    2    0    0  0.81560512252E-02  0.62009747026E-02 -0.95960302565E-02  0.14037701220E-01  0.00000000000E+00 0.  1.
     999901    1    3    3    0    0 -0.17066755358E-01 -0.10175217125E+00 -0.82109946710E-01  0.88982403982E+00  0.88000000000E+00 0. -1.
        -11    1    4    4    0    0 -0.14725628609E-01  0.20542528678E-01  0.34710613650E-01  0.42940976274E-01  0.51100000000E-03 0.  1.
         11    1    4    4    0    0  0.23636332742E-01  0.75008667872E-01  0.56995363317E-01  0.97127282686E-01  0.51100000000E-03 0. -1.
</event>
<event>
 8    1  0.1993226E+004  0.1043930E+01  0.7957747E-01            NaN
         13   -1    0    0    0    0  0.00000000000E+00  0.00000000000E+00  0.74505805969E-08  0.10566000000E+00  0.10566000000E+00 0.  1.
     999900   -1    0    0    0    0 -0.00000000000E+00 -0.00000000000E+00 -0.74505805969E-08  0.93827000000E+00  0.93827000000E+00 0.  1.
     999902    2    1    2    0    0 -0.11151917286E-02 -0.15250171415E-01  0.50981084116E-02  0.10278116226E+01  0.10276852288E+01 0.  0.
     999903    2    3    3    0    0 -0.62627702030E-01 -0.73533896108E-01 -0.86640173711E-01  0.13899404070E+00  0.49833329306E-01 0.  0.
         14    1    1    2    0    0  0.11151917286E-02  0.15250171415E-01 -0.50981084116E-02  0.16118377405E-01  0.00000000000E+00 0. -1.
     999901    1    3    3    0    0  0.61512510301E-01  0.58283724692E-01  0.91738282123E-01  0.88881758190E+00  0.88000000000E+00 0.  1.
        -11    1    4    4    0    0 -0.13268301722E-01 -0.47101449416E-01 -0.58678577001E-01  0.76407008105E-01  0.51100000000E-03 0. -1.
         11    1    4    4    0    0 -0.49359400308E-01 -0.26432446692E-01 -0.27961596711E-01  0.62587032591E-01  0.51100000000E-03 0.  1.
</event>
<event>
 8    1  0.1993226E+004  0.1043930E+01  0.7957747E-01            NaN
         13   -1    0    0    0    0  0.00000000000E+00  0.00000000000E+00  0.74505805969E-08  0.10566000000E+00  0.10566000000E+00 0. -1.
     999900   -1    0    0    0    0 -0.00000000000E+00 -0.00000000000E+00 -0.74505805969E-08  0.93827000000E+00  0.93827000000E+00 0.  1.
     999902    2    1    2    0    0  0.95582124432E-02 -0.90082071553E-02 -0.38552299964E-02  0.10302416831E+01  0.10301507441E+01 0.  0.
     999903    2    3    3    0    0 -0.68539852626E-01  0.18541052499E-01  0.11067348826E+00  0.13896445531E+00  0.44955720537E-01 0.  0.
         14    1    1    2    0    0 -0.95582124432E-02  0.90082071553E-02  0.38552299964E-02  0.13688316901E-01  0.00000000000E+00 0. -1.
     999901    1    3    3    0    0  0.78098065070E-01 -0.27549259654E-01 -0.11452871826E+00  0.89127722779E+00  0.88000000000E+00 0.  1.
        -11    1    4    4    0    0 -0.29749694577E-01 -0.97483605789E-02  0.67445600183E-01  0.74358892988E-01  0.51100000000E-03 0.  1.
         11    1    4    4    0    0 -0.38790158049E-01  0.28289413078E-01  0.43227888079E-01  0.64605562319E-01  0.51100000000E-03 0. -1.
</event>
<event>
 8    1  0.1993226E+004  0.1043930E+01  0.7957747E-01            NaN
         13   -1    0    0    0    0  0.00000000000E+00  0.00000000000E+00  0.74505805969E-08  0.10566000000E+00  0.10566000000E+00 0. -1.
     999900   -1    0    0    0    0 -0.00000000000E+00 -0.00000000000E+00 -0.74505805969E-08  0.93827000000E+00  0.93827000000E+00 0.  1.
     999902    2    1    2    0    0  0.55353323227E-02 -0.12090057412E-01 -0.37935194963E-02  0.10301024846E+01  0.10300096740E+01 0.  0.
     999903    2    3    3    0    0 -0.66144635129E-01 -0.50322974333E-01  0.10316938178E+00  0.13991102433E+00  0.44985096325E-01 0.  0.
         14    1    1    2    0    0 -0.55353323227E-02  0.12090057412E-01  0.37935194963E-02  0.13827515407E-01  0.00000000000E+00 0.  1.
     999901    1    3    3    0    0  0.71679967452E-01  0.38232916921E-01 -0.10696290127E+00  0.89019146026E+00  0.88000000000E+00 0.  1.
        -11    1    4    4    0    0 -0.28492509401E-02 -0.96176525545E-02  0.41252205434E-01  0.42457308508E-01  0.51100000000E-03 0.  1.
         11    1    4    4    0    0 -0.63295384189E-01 -0.40705321779E-01  0.61917176345E-01  0.97453715826E-01  0.51100000000E-03 0. -1.
</event>
<event>
 8    1  0.1993226E+004  0.1043930E+01  0.7957747E-01            NaN
         13   -1    0    0    0    0  0.00000000000E+00  0.00000000000E+00  0.74505805969E-08  0.10566000000E+00  0.10566000000E+00 0. -1.
     999900   -1    0    0    0    0 -0.00000000000E+00 -0.00000000000E+00 -0.74505805969E-08  0.93827000000E+00  0.93827000000E+00 0.  1.
     999902    2    1    2    0    0 -0.80101357356E-02  0.65923027809E-02  0.97682473398E-02  0.10296808110E+01  0.10295822129E+01 0.  0.
     999903    2    3    3    0    0 -0.46764212885E-01 -0.56861126102E-02 -0.12254072305E+00  0.13886191718E+00  0.45245770578E-01 0.  0.
         14    1    1    2    0    0  0.80101357356E-02 -0.65923027809E-02 -0.97682473398E-02  0.14249188979E-01  0.00000000000E+00 0.  1.
     999901    1    3    3    0    0  0.38754077150E-01  0.12278415391E-01  0.13230897038E+00  0.89081889384E+00  0.88000000000E+00 0. -1.
        -11    1    4    4    0    0 -0.33213652710E-02 -0.16820827615E-01 -0.56384133930E-01  0.58935586779E-01  0.51100000000E-03 0. -1.
         11    1    4    4    0    0 -0.43442847614E-01  0.11134715005E-01 -0.66156589115E-01  0.79926330401E-01  0.51100000000E-03 0.  1.
</event>
<event>
 8    1  0.1993226E+004  0.1043930E+01  0.7957747E-01            NaN
         13   -1    0    0    0    0  0.00000000000E+00  0.00000000000E+00  0.74505805969E-08  0.10566000000E+00  0.10566000000E+00 0.  1.
     999900   -1    0    0    0    0 -0.00000000000E+00 -0.00000000000E+00 -0.74505805969E-08  0.93827000000E+00  0.93827000000E+00 0. -1.
     999902    2    1    2    0    0 -0.10507596628E-01  0.26298402749E-02  0.81719250065E-02  0.10303614332E+01  0.10302720888E+01 0.  0.
     999903    2    3    3    0    0  0.98977649393E-01  0.31018655220E-01 -0.80862087453E-01  0.13866641847E+00  0.43942762471E-01 0.  0.
         14    1    1    2    0    0  0.10507596628E-01 -0.26298402749E-02 -0.81719250065E-02  0.13568566803E-01  0.00000000000E+00 0. -1.
     999901    1    3    3    0    0 -0.10948524602E+00 -0.28388814945E-01  0.89034012460E-01  0.89169501472E+00  0.88000000000E+00 0.  1.
        -11    1    4    4    0    0  0.45841411833E-01 -0.74789751137E-02 -0.26664079035E-01  0.53559353426E-01  0.51100000000E-03 0. -1.
         11    1    4    4    0    0  0.53136237560E-01  0.38497630333E-01 -0.54198008418E-01  0.85107065046E-01  0.51100000000E-03 0.  1.
</event>
<event>
 8    1  0.1993226E+004  0.1043930E+01  0.7957747E-01            NaN
         13   -1    0    0    0    0  0.00000000000E+00  0.00000000000E+00  0.74505805969E-08  0.10566000000E+00  0.10566000000E+00 0.  1.
     999900   -1    0    0    0    0 -0.00000000000E+00 -0.00000000000E+00 -0.74505805969E-08  0.93827000000E+00  0.93827000000E+00 0.  1.
     999902    2    1    2    0    0  0.54722714433E-02 -0.29915053817E-02 -0.12941136839E-01  0.10295644898E+01  0.10294642640E+01 0.  0.
     999903    2    3    3    0    0  0.32275041722E-01 -0.11511619421E+00 -0.59469721989E-01  0.14082648370E+00  0.44744096701E-01 0.  0.
         14    1    1    2    0    0 -0.54722714433E-02  0.29915053817E-02  0.12941136839E-01  0.14365510150E-01  0.00000000000E+00 0.  1.
     999901    1    3    3    0    0 -0.26802770278E-01  0.11212468883E+00  0.46528585150E-01  0.88873800615E+00  0.88000000000E+00 0. -1.
        -11    1    4    4    0    0  0.83761666121E-02 -0.37159538360E-01  0.28459051307E-02  0.38201462738E-01  0.51100000000E-03 0. -1.
         11    1    4    4    0    0  0.23898875109E-01 -0.77956655852E-01 -0.62315627119E-01  0.10262502096E+00  0.51100000000E-03 0.  1.
</event>
<event>
 7    1  0.2520519E+004  0.1043930E+01  0.7957747E-01            NaN
         13   -1    0    0    0    0  0.00000000000E+00  0.00000000000E+00  0.74505805969E-08  0.10566000000E+00  0.10566000000E+00 0.  1.
     999900   -1    0    0    0    0 -0.00000000000E+00 -0.00000000000E+00 -0.74505805969E-08  0.93827000000E+00  0.93827000000E+00 0.  1.
     999903    2    1    2    0    0 -0.46687665128E-01  0.41162208045E-01  0.94060884565E-01  0.12171555099E+00  0.45751064498E-01 0.  0.
         14    1    1    2    0    0  0.26108469025E-01  0.11464794724E-01  0.17370979920E-01  0.33389288946E-01  0.00000000000E+00 0. -1.
     999901    1    1    2    0    0  0.20579196102E-01 -0.52627002769E-01 -0.11143186448E+00  0.88882516006E+00  0.88000000000E+00 0.  1.
        -11    1    3    3    0    0 -0.40654257308E-01  0.55284868582E-02  0.52619167019E-01  0.66726086826E-01  0.51100000000E-03 0.  1.
         11    1    3    3    0    0 -0.60334078193E-02  0.35633721186E-01  0.41441717545E-01  0.54989464169E-01  0.51100000000E-03 0. -1.
</event>
<event>
 8    1  0.1993226E+004  0.1043930E+01  0.7957747E-01            NaN
         13   -1    0    0    0    0  0.00000000000E+00  0.00000000000E+00  0.74505805969E-08  0.10566000000E+00  0.10566000000E+00 0. -1.
     999900   -1    0    0    0    0 -0.00000000000E+00 -0.00000000000E+00 -0.74505805969E-08  0.93827000000E+00  0.93827000000E+00 0. -1.
     999902    2    1    2    0    0 -0.12325359776E-01  0.45150240010E-02 -0.50430251710E-02  0.10298682776E+01  0.10297722744E+01 0.  0.
     999903    2    3    3    0    0  0.23941609979E-01 -0.11491813461E+00 -0.60579561429E-01  0.13932693694E+00  0.44302750980E-01 0.  0.
         14    1    1    2    0    0  0.12325359776E-01 -0.45150240010E-02  0.50430251710E-02  0.14061722448E-01  0.00000000000E+00 0.  1.
     999901    1    3    3    0    0 -0.36266969755E-01  0.11943315861E+00  0.55536536258E-01  0.89054134061E+00  0.88000000000E+00 0.  1.
        -11    1    4    4    0    0  0.36323191959E-01 -0.70993626594E-01 -0.36116889001E-01  0.87545188807E-01  0.51100000000E-03 0.  1.
         11    1    4    4    0    0 -0.12381581980E-01 -0.43924508018E-01 -0.24462672428E-01  0.51781748138E-01  0.51100000000E-03 0. -1.
</event>
<event>
 8    1  0.1993226E+004  0.1043930E+01  0.7957747E-01            NaN
         13   -1    0    0    0    0  0.00000000000E+00  0.00000000000E+00  0.74505805969E-08  0.10566000000E+00  0.10566000000E+00 0. -1.
     999900   -1    0    0    0    0 -0.00000000000E+00 -0.00000000000E+00 -0.74505805969E-08  0.93827000000E+00  0.93827000000E+00 0. -1.
     999902    2    1    2    0    0 -0.11284876808E-01 -0.41428089307E-02 -0.26405374593E-02  0.10316221266E+01  0.10315487038E+01 0.  0.
     999903    2    3    3    0    0  0.16615404100E-01  0.59248387465E-02  0.13223367078E+00  0.14085232732E+00  0.45193573156E-01 0.  0.
         14    1    1    2    0    0  0.11284876808E-01  0.41428089307E-02  0.26405374593E-02  0.12307873435E-01  0.00000000000E+00 0. -1.
     999901    1    3    3    0    0 -0.27900280908E-01 -0.10067647677E-01 -0.13487420824E+00  0.89076979925E+00  0.88000000000E+00 0. -1.
        -11    1    4    4    0    0  0.27967386082E-01  0.61650371579E-02  0.48315071514E-01  0.56167513954E-01  0.51100000000E-03 0.  1.
         11    1    4    4    0    0 -0.11351981982E-01 -0.24019841135E-03  0.83918599268E-01  0.84684813363E-01  0.51100000000E-03 0. -1.
</event>
<event>
 8    1  0.1993226E+004  0.1043930E+01  0.7957747E-01            NaN
         13   -1    0    0    0    0  0.00000000000E+00  0.00000000000E+00  0.74505805969E-08  0.10566000000E+00  0.10566000000E+00 0.  1.
     999900   -1    0    0    0    0 -0.00000000000E+00 -0.00000000000E+00 -0.74505805969E-08  0.93827000000E+00  0.93827000000E+00 0.  1.
     999902    2    1    2    0    0  0.14365452153E-01 -0.64567004553E-03 -0.50808800354E-02  0.10286788214E+01  0.10285657583E+01 0.  0.
     999903    2    3    3    0    0 -0.18822563485E-01 -0.67908061691E-01  0.10789920118E+00  0.13829116853E+00  0.50163890784E-01 0.  0.
         14    1    1    2    0    0 -0.14365452153E-01  0.64567004553E-03  0.50808800354E-02  0.15251178554E-01  0.00000000000E+00 0.  1.
     999901    1    3    3    0    0  0.33188015638E-01  0.67262391646E-01 -0.11298008122E+00  0.89038765292E+00  0.88000000000E+00 0.  1.
        -11    1    4    4    0    0 -0.27941395372E-01 -0.39612479783E-01  0.35686531329E-01  0.60196841854E-01  0.51100000000E-03 0.  1.
         11    1    4    4    0    0  0.91188318869E-02 -0.28295581908E-01  0.72212669854E-01  0.78094326676E-01  0.51100000000E-03 0. -1.
</event>
<event>
 8    1  0.1993226E+004  0.1043930E+01  0.7957747E-01            NaN
         13   -1    0    0    0    0  0.00000000000E+00  0.00000000000E+00  0.74505805969E-08  0.10566000000E+00  0.10566000000E+00 0.  1.
     999900   -1    0    0    0    0 -0.00000000000E+00 -0.00000000000E+00 -0.74505805969E-08  0.93827000000E+00  0.93827000000E+00 0.  1.
     999902    2    1    2    0    0 -0.76170710985E-02  0.54265906837E-02 -0.10345423331E-01  0.10299838377E+01  0.10298894166E+01 0.  0.
     999903    2    3    3    0    0  0.48608931300E-01 -0.10301459668E+00  0.64335560399E-01  0.13841325510E+00  0.45214262382E-01 0.  0.
         14    1    1    2    0    0  0.76170710985E-02 -0.54265906837E-02  0.10345423331E-01  0.13946162284E-01  0.00000000000E+00 0.  1.
     999901    1    3    3    0    0 -0.56226002399E-01  0.10844118736E+00 -0.74680983730E-01  0.89157058262E+00  0.88000000000E+00 0.  1.
        -11    1    4    4    0    0  0.26452893279E-01 -0.85791260618E-01  0.31332213996E-01  0.95088720236E-01  0.51100000000E-03 0. -1.
         11    1    4    4    0    0  0.22156038022E-01 -0.17223336063E-01  0.33003346403E-01  0.43324534859E-01  0.51100000000E-03 0.  1.
</event>
<event>
 8    1  0.1993226E+004  0.1043930E+01  0.7957747E-01            NaN
         13   -1    0    0    0    0  0.00000000000E+00  0.00000000000E+00  0.74505805969E-08  0.10566000000E+00  0.10566000000E+00 0. -1.
     999900   -1    0    0    0    0 -0.00000000000E+00 -0.00000000000E+00 -0.74505805969E-08  0.93827000000E+00  0.93827000000E+00 0.  1.
     999902    2    1    2    0    0 -0.79055873416E-03 -0.13070844440E-01  0.52852509780E-02  0.10298088869E+01  0.10297120654E+01 0.  0.
     999903    2    3    3    0    0  0.58442806097E-01 -0.12013486138E+00  0.84396736730E-02  0.14133758988E+00  0.45355702166E-01 0.  0.
         14    1    1    2    0    0  0.79055873416E-03  0.13070844440E-01 -0.52852509780E-02  0.14121113108E-01  0.00000000000E+00 0.  1.
     999901    1    3    3    0    0 -0.59233364831E-01  0.10706401694E+00 -0.31544226950E-02  0.88847129701E+00  0.88000000000E+00 0.  1.
        -11    1    4    4    0    0  0.22932170171E-01 -0.73999430194E-01 -0.14393724394E-01  0.78798734258E-01  0.51100000000E-03 0. -1.
         11    1    4    4    0    0  0.35510635925E-01 -0.46135431183E-01  0.22833398067E-01  0.62538855622E-01  0.51100000000E-03 0.  1.
</event>
<event>
 8    1  0.1993226E+004  0.1043930E+01  0.7957747E-01            NaN
         13   -1    0    0    0    0  0.00000000000E+00  0.00000000000E+00  0.74505805969E-08  0.10566000000E+00  0.10566000000E+00 0. -1.
     999900   -1    0    0    0    0 -0.00000000000E+00 -0.00000000000E+00 -0.74505805969E-08  0.93827000000E+00  0.93827000000E+00 0.  1.
     999902    2    1    2    0    0 -0.14213543963E-01  0.62519823636E-02 -0.87077273394E-02  0.10261272859E+01  0.10259728408E+01 0.  0.
     999903    2    3    3    0    0 -0.10434553645E+00 -0.75873674543E-01 -0.18200059283E-01  0.13766878713E+00  0.44459502087E-01 0.  0.
         14    1    1    2    0    0  0.14213543963E-01 -0.62519823636E-02  0.87077273394E-02  0.17802714144E-01  0.00000000000E+00 0. -1.
     999901    1    3    3    0    0  0.90131992490E-01  0.82125656907E-01  0.94923319432E-02  0.88845849873E+00  0.88000000000E+00 0. -1.
        -11    1    4    4    0    0 -0.10386552166E+00 -0.59430363630E-01 -0.19118391979E-01  0.12118493613E+00  0.51100000000E-03 0. -1.
         11    1    4    4    0    0 -0.48001479193E-03 -0.16443310913E-01  0.91833269667E-03  0.16483851004E-01  0.51100000000E-03 0.  1.
</event>
<event>
 8    1  0.1993226E+004  0.1043930E+01  0.7957747E-01            NaN
         13   -1    0    0    0    0  0.00000000000E+00  0.00000000000E+00  0.74505805969E-08  0.10566000000E+00  0.10566000000E+00 0. -1.
     999900   -1    0    0    0    0 -0.00000000000E+00 -0.00000000000E+00 -0.74505805969E-08  0.93827000000E+00  0.93827000000E+00 0.  1.
     999902    2    1    2    0    0  0.93263592645E-02 -0.14168505543E-02 -0.13406842182E-01  0.10275369570E+01  0.10274061836E+01 0.  0.
     999903    2    3    3    0    0  0.32181071253E-01 -0.12671190267E+00 -0.73871325340E-03  0.13827790054E+00  0.45041141792E-01 0.  0.
         14    1    1    2    0    0 -0.93263592645E-02  0.14168505543E-02  0.13406842182E-01  0.16393043034E-01  0.00000000000E+00 0. -1.
     999901    1    3    3    0    0 -0.22854711988E-01  0.12529505212E+00 -0.12668128929E-01  0.88925905643E+00  0.88000000000E+00 0. -1.
        -11    1    4    4    0    0 -0.75857658570E-02 -0.38897589616E-01 -0.11526824511E-01  0.41275841916E-01  0.51100000000E-03 0.  1.
         11    1    4    4    0    0  0.39766837110E-01 -0.87814313058E-01  0.10788111258E-01  0.97002058623E-01  0.51100000000E-03 0. -1.
</event>
<event>
 8    1  0.1993226E+004  0.1043930E+01  0.7957747E-01            NaN
         13   -1    0    0    0    0  0.00000000000E+00  0.00000000000E+00  0.74505805969E-08  0.10566000000E+00  0.10566000000E+00 0. -1.
     999900   -1    0    0    0    0 -0.00000000000E+00 -0.00000000000E+00 -0.74505805969E-08  0.93827000000E+00  0.93827000000E+00 0.  1.
     999902    2    1    2    0    0  0.36681061888E-02  0.11256087678E-01 -0.74367825899E-02  0.10299492901E+01  0.10298543975E+01 0.  0.
     999903    2    3    3    0    0  0.64922741270E-01  0.72204692993E-01  0.90734065742E-01  0.14028397202E+00  0.44927075305E-01 0.  0.
         14    1    1    2    0    0 -0.36681061888E-02 -0.11256087678E-01  0.74367825899E-02  0.13980709857E-01  0.00000000000E+00 0. -1.
     999901    1    3    3    0    0 -0.61254635082E-01 -0.60948605315E-01 -0.98170848331E-01  0.88966531812E+00  0.88000000000E+00 0.  1.
        -11    1    4    4    0    0  0.29583288555E-01  0.14688072730E-01  0.54335759433E-01  0.63588885164E-01  0.51100000000E-03 0. -1.
         11    1    4    4    0    0  0.35339452716E-01  0.57516620263E-01  0.36398306308E-01  0.76695086856E-01  0.51100000000E-03 0.  1.
</event>
<event>
 8    1  0.1993226E+004  0.1043930E+01  0.7957747E-01            NaN
         13   -1    0    0    0    0  0.00000000000E+00  0.00000000000E+00  0.74505805969E-08  0.10566000000E+00  0.10566000000E+00 0. -1.
     999900   -1    0    0    0    0 -0.00000000000E+00 -0.00000000000E+00 -0.74505805969E-08  0.93827000000E+00  0.93827000000E+00 0.  1.
     999902    2    1    2    0    0  0.11122304503E-01 -0.62702708034E-02  0.34066176314E-02  0.10307153491E+01  0.10306306341E+01 0.  0.
     999903    2    3    3    0    0  0.14517179224E-01 -0.11252636679E+00 -0.70695608121E-01  0.14122503275E+00  0.45537996782E-01 0.  0.
         14    1    1    2    0    0 -0.11122304503E-01  0.62702708034E-02 -0.34066176314E-02  0.13214650850E-01  0.00000000000E+00 0.  1.
     999901    1    3    3    0    0 -0.33948747210E-02  0.10625609599E+00  0.74102225753E-01  0.88949031640E+00  0.88000000000E+00 0. -1.
        -11    1    4    4    0    0  0.22356501241E-02 -0.70206547781E-01 -0.66881362587E-01  0.96991418514E-01  0.51100000000E-03 0. -1.
         11    1    4    4    0    0  0.12281529100E-01 -0.42319819013E-01 -0.38142455341E-02  0.44233614235E-01  0.51100000000E-03 0.  1.
</event>
<event>
 8    1  0.1993226E+004  0.1043930E+01  0.7957747E-01            NaN
         13   -1    0    0    0    0  0.00000000000E+00  0.00000000000E+00  0.74505805969E-08  0.10566000000E+00  0.10566000000E+00 0. -1.
     999900   -1    0    0    0    0 -0.00000000000E+00 -0.00000000000E+00 -0.74505805969E-08  0.93827000000E+00  0.93827000000E+00 0.  1.
     999902    2    1    2    0    0  0.39055055739E-02 -0.12075397662E-01  0.41226154562E-02  0.10305859316E+01  0.10304995382E+01 0.  0.
     999903    2    3    3    0    0 -0.54690206599E-01 -0.75192965801E-01  0.96108971282E-01  0.14160968079E+00  0.46597924091E-01 0.  0.
         14    1    1    2    0    0 -0.39055055739E-02  0.12075397662E-01 -0.41226154562E-02  0.13344068371E-01  0.00000000000E+00 0. -1.
     999901    1    3    3    0    0  0.58595712173E-01  0.63117568139E-01 -0.91986355826E-01  0.88897625084E+00  0.88000000000E+00 0. -1.
        -11    1    4    4    0    0 -0.83860630006E-02 -0.33841805228E-01  0.61065002439E-01  0.70319197077E-01  0.51100000000E-03 0. -1.
         11    1    4    4    0    0 -0.46304143599E-01 -0.41351160573E-01  0.35043968843E-01  0.71290483716E-01  0.51100000000E-03 0.  1.
</event>
<event>
 8    1  0.1993226E+004  0.1043930E+01  0.7957747E-01            NaN
         13   -1    0    0    0    0  0.00000000000E+00  0.00000000000E+00  0.74505805969E-08  0.10566000000E+00  0.10566000000E+00 0.  1.
     999900   -1    0    0    0    0 -0.00000000000E+00 -0.00000000000E+00 -0.74505805969E-08  0.93827000000E+00  0.93827000000E+00 0.  1.
     999902    2    1    2    0    0 -0.30544127531E-02 -0.14235429913E-01  0.79252433028E-03  0.10293490193E+01  0.10292457426E+01 0.  0.
     999903    2    3    3    0    0 -0.97022458284E-01 -0.47061402754E-01  0.77835355549E-01  0.14039281350E+00  0.44985180530E-01 0.  0.
         14    1    1    2    0    0  0.30544127531E-02  0.14235429913E-01 -0.79252433028E-03  0.14580980656E-01  0.00000000000E+00 0. -1.
     999901    1    3    3    0    0  0.93968045530E-01  0.32825972842E-01 -0.77042831219E-01  0.88895620585E+00  0.88000000000E+00 0.  1.
        -11    1    4    4    0    0 -0.52019524251E-01 -0.29241184955E-01  0.68931919945E-01  0.91175372274E-01  0.51100000000E-03 0. -1.
         11    1    4    4    0    0 -0.45002934033E-01 -0.17820217799E-01  0.89034356038E-02  0.49217441223E-01  0.51100000000E-03 0.  1.
</event>
<event>
 8    1  0.1993226E+004  0.1043930E+01  0.7957747E-01            NaN
         13   -1    0    0    0    0  0.00000000000E+00  0.00000000000E+00  0.74505805969E-08  0.10566000000E+00  0.10566000000E+00 0. -1.
     999900   -1    0    0    0    0 -0.00000000000E+00 -0.00000000000E+00 -0.74505805969E-08  0.93827000000E+00  0.93827000000E+00 0.  1.
     999902    2    1    2    0    0 -0.95820830953E-03 -0.34691460889E-02  0.15231229349E-01  0.10282793296E+01  0.10281602191E+01 0.  0.
     999903    2    3    3    0    0 -0.55414422589E-01 -0.80447891415E-01 -0.85404512733E-01  0.13753876178E+00  0.45610949700E-01 0.  0.
         14    1    1    2    0    0  0.95820830953E-03  0.34691460889E-02 -0.15231229349E-01  0.15650670441E-01  0.00000000000E+00 0.  1.
     999901    1    3    3    0    0  0.54456214279E-01  0.76978745326E-01  0.10063574208E+00  0.89074056778E+00  0.88000000000E+00 0.  1.
        -11    1    4    4    0    0 -0.10804353517E-01 -0.49125153809E-01 -0.57171962644E-01  0.76150569435E-01  0.51100000000E-03 0. -1.
         11    1    4    4    0    0 -0.44610069072E-01 -0.31322737606E-01 -0.28232550088E-01  0.61388192343E-01  0.51100000000E-03 0.  1.
</event>
<event>
 8    1  0.1993226E+004  0.1043930E+01  0.7957747E-01            NaN
         13   -1    0    0    0    0  0.00000000000E+00  0.00000000000E+00  0.74505805969E-08  0.10566000000E+00  0.10566000000E+00 0.  1.
     999900   -1    0    0    0    0 -0.00000000000E+00 -0.00000000000E+00 -0.74505805969E-08  0.93827000000E+00  0.93827000000E+00 0. -1.
     999902    2    1    2    0    0  0.13684533901E-01 -0.71448000491E-02 -0.59669133703E-03  0.10284810299E+01  0.10283649927E+01 0.  0.
     999903    2    3    3    0    0  0.98430628446E-01 -0.47344927229E-01  0.75630689338E-01  0.14021948943E+00  0.44848336584E-01 0.  0.
         14    1    1    2    0    0 -0.13684533901E-01  0.71448000491E-02  0.59669133703E-03  0.15448970075E-01  0.00000000000E+00 0. -1.
     999901    1    3    3    0    0 -0.84746094546E-01  0.40200127180E-01 -0.76227380675E-01  0.88826154050E+00  0.88000000000E+00 0. -1.
        -11    1    4    4    0    0  0.92019341540E-01 -0.43884366365E-01  0.81760513727E-01  0.13068450388E+00  0.51100000000E-03 0.  1.
         11    1    4    4    0    0  0.64112869061E-02 -0.34605608641E-02 -0.61298243894E-02  0.95349855444E-02  0.51100000000E-03 0. -1.
</event>
<event>
 7    1  0.1993226E+004  0.1043930E+01  0.7957747E-01            NaN
         13   -1    0    0    0    0  0.00000000000E+00  0.00000000000E+00  0.74505805969E-08  0.10566000000E+00  0.10566000000E+00 0.  1.
     999900   -1    0    0    0    0 -0.00000000000E+00 -0.00000000000E+00 -0.74505805969E-08  0.93827000000E+00  0.93827000000E+00 0.  1.
     999903    2    1    2    0    0 -0.22269155863E-01  0.55974565745E-01 -0.78658898423E-01  0.10887875505E+00  0.45147466009E-01 0.  0.
         14    1    1    2    0    0  0.48410416476E-01  0.61476841006E-02 -0.16553945532E-02  0.48827274901E-01  0.00000000000E+00 0.  1.
     999901    1    1    2    0    0 -0.26141260613E-01 -0.62122249846E-01  0.80314292976E-01  0.88622397005E+00  0.88000000000E+00 0. -1.
        -11    1    3    3    0    0 -0.15346721143E-02  0.19679975465E-01 -0.59879668726E-01  0.63051506726E-01  0.51100000000E-03 0.  1.
         11    1    3    3    0    0 -0.20734483748E-01  0.36294590280E-01 -0.18779229698E-01  0.45827248324E-01  0.51100000000E-03 0. -1.
</event>
<event>
 8    1  0.1993226E+004  0.1043930E+01  0.7957747E-01            NaN
         13   -1    0    0    0    0  0.00000000000E+00  0.00000000000E+00  0.74505805969E-08  0.10566000000E+00  0.10566000000E+00 0.  1.
     999900   -1    0    0    0    0 -0.00000000000E+00 -0.00000000000E+00 -0.74505805969E-08  0.93827000000E+00  0.93827000000E+00 0.  1.
     999902    2    1    2    0    0 -0.12100159639E-01  0.53145929079E-02 -0.54729879957E-02  0.10296257224E+01  0.10295263551E+01 0.  0.
     999903    2    3    3    0    0 -0.77831297470E-01 -0.10642584748E-01 -0.10793417458E+00  0.14110250446E+00  0.45707277818E-01 0.  0.
         14    1    1    2    0    0  0.12100159639E-01 -0.53145929079E-02  0.54729879957E-02  0.14304277635E-01  0.00000000000E+00 0. -1.
     999901    1    3    3    0    0  0.65731137830E-01  0.15957177656E-01  0.10246118659E+00  0.88852321791E+00  0.88000000000E+00 0. -1.
        -11    1    4    4    0    0 -0.85251698034E-02 -0.11173580748E-01 -0.46173846828E-01  0.48268133161E-01  0.51100000000E-03 0. -1.
         11    1    4    4    0    0 -0.69306127666E-01  0.53099600023E-03 -0.61760327757E-01  0.92834371299E-01  0.51100000000E-03 0.  1.
</event>
<event>
 8    1  0.1993226E+004  0.1043930E+01  0.7957747E-01            NaN
         13   -1    0    0    0    0  0.00000000000E+00  0.00000000000E+00  0.74505805969E-08  0.10566000000E+00  0.10566000000E+00 0.  1.
     999900   -1    0    0    0    0 -0.00000000000E+00 -0.00000000000E+00 -0.74505805969E-08  0.93827000000E+00  0.93827000000E+00 0. -1.
     999902    2    1    2    0    0  0.10148474524E-01 -0.73099760061E-02 -0.61137479751E-02  0.10300086064E+01  0.10299145227E+01 0.  0.
     999903    2    3    3    0    0 -0.10922269270E+00  0.24611709855E-01  0.68474492441E-01  0.13825086176E+00  0.43465064106E-01 0.  0.
         14    1    1    2    0    0 -0.10148474524E-01  0.73099760061E-02  0.61137479751E-02  0.13921393561E-01  0.00000000000E+00 0. -1.
     999901    1    3    3    0    0  0.11937116723E+00 -0.31921685861E-01 -0.74588240416E-01  0.89175774468E+00  0.88000000000E+00 0. -1.
        -11    1    4    4    0    0 -0.39928925499E-01  0.23650269786E-02  0.26002010229E-02  0.40086588911E-01  0.51100000000E-03 0.  1.
         11    1    4    4    0    0 -0.69293767205E-01  0.22246682877E-01  0.65874291418E-01  0.98164272846E-01  0.51100000000E-03 0. -1.
</event>
<event>
 8    1  0.1993226E+004  0.1043930E+01  0.7957747E-01            NaN
         13   -1    0    0    0    0  0.00000000000E+00  0.00000000000E+00  0.74505805969E-08  0.10566000000E+00  0.10566000000E+00 0.  1.
     999900   -1    0    0    0    0 -0.00000000000E+00 -0.00000000000E+00 -0.74505805969E-08  0.93827000000E+00  0.93827000000E+00 0.  1.
     999902    2    1    2    0    0 -0.23090095508E-02  0.17852877454E-02 -0.13634342385E-01  0.10299867554E+01  0.10298923741E+01 0.  0.
     999903    2    3    3    0    0 -0.49059017679E-01  0.12322375289E+00  0.73051430892E-02  0.14017142281E+00  0.44763625471E-01 0.  0.
         14    1    1    2    0    0  0.23090095508E-02 -0.17852877454E-02  0.13634342385E-01  0.13943244590E-01  0.00000000000E+00 0.  1.
     999901    1    3    3    0    0  0.46750008128E-01 -0.12143846514E+00 -0.20939485474E-01  0.88981533260E+00  0.88000000000E+00 0.  1.
        -11    1    4    4    0    0 -0.12502688807E-01  0.89017685140E-01  0.58638380621E-02  0.90083912065E-01  0.51100000000E-03 0.  1.
         11    1    4    4    0    0 -0.36556328872E-01  0.34206067750E-01  0.14413050270E-02  0.50087510746E-01  0.51100000000E-03 0. -1.
</event>
<event>
 8    1  0.1993226E+004  0.1043930E+01  0.7957747E-01            NaN
         13   -1    0    0    0    0  0.00000000000E+00  0.00000000000E+00  0.74505805969E-08  0.10566000000E+00  0.10566000000E+00 0. -1.
     999900   -1    0    0    0    0 -0.00000000000E+00 -0.00000000000E+00 -0.74505805969E-08  0.93827000000E+00  0.93827000000E+00 0. -1.
     999902    2    1    2    0    0  0.62260778807E-02  0.82643820929E-02  0.86293041229E-02  0.10304567321E+01  0.10303686466E+01 0.  0.
     999903    2    3    3    0    0  0.86840811431E-01 -0.87764976362E-01 -0.48029977078E-01  0.13976562570E+00  0.44536881603E-01 0.  0.
         14    1    1    2    0    0 -0.62260778807E-02 -0.82643820929E-02 -0.86293041229E-02  0.13473267859E-01  0.00000000000E+00 0.  1.
     999901    1    3    3    0    0 -0.80614733550E-01  0.96029358454E-01  0.56659281201E-01  0.89069110644E+00  0.88000000000E+00 0.  1.
        -11    1    4    4    0    0  0.51820807527E-02 -0.18866445105E-01  0.54064771563E-02  0.20304872028E-01  0.51100000000E-03 0.  1.
         11    1    4    4    0    0  0.81658730678E-01 -0.68898531257E-01 -0.53436454234E-01  0.11946075367E+00  0.51100000000E-03 0. -1.
</event>
<event>
 8    1  0.1993226E+004  0.1043930E+01  0.7957747E-01            NaN
         13   -1    0    0    0    0  0.00000000000E+00  0.00000000000E+00  0.74505805969E-08  0.10566000000E+00  0.10566000000E+00 0. -1.
     999900   -1    0    0    0    0 -0.00000000000E+00 -0.00000000000E+00 -0.74505805969E-08  0.93827000000E+00  0.93827000000E+00 0. -1.
     999902    2    1    2    0    0  0.43422713187E-02 -0.10598414116E-01  0.65724987895E-02  0.10307247192E+01  0.10306401250E+01 0.  0.
     999903    2    3    3    0    0 -0.56790845475E-01  0.56883083614E-01 -0.10434821496E+00  0.13910012593E+00  0.44714759711E-01 0.  0.
         14    1    1    2    0    0 -0.43422713187E-02  0.10598414116E-01 -0.65724987895E-02  0.13205280850E-01  0.00000000000E+00 0. -1.
     999901    1    3    3    0    0  0.61133116793E-01 -0.67481497731E-01  0.11092071375E+00  0.89162459322E+00  0.88000000000E+00 0.  1.
        -11    1    4    4    0    0 -0.55130013107E-01  0.27624204585E-01 -0.79918133240E-01  0.10094347015E+00  0.51100000000E-03 0. -1.
         11    1    4    4    0    0 -0.16608323672E-02  0.29258879029E-01 -0.24430081720E-01  0.38156655776E-01  0.51100000000E-03 0.  1.
</event>
<event>
 8    1  0.1993226E+004  0.1043930E+01  0.7957747E-01            NaN
         13   -1    0    0    0    0  0.00000000000E+00  0.00000000000E+00  0.74505805969E-08  0.10566000000E+00  0.10566000000E+00 0. -1.
     999900   -1    0    0    0    0 -0.00000000000E+00 -0.00000000000E+00 -0.74505805969E-08  0.93827000000E+00  0.93827000000E+00 0. -1.
     999902    2    1    2    0    0  0.11240636739E-01  0.13554589047E-02 -0.37060008828E-02  0.10320168297E+01  0.10319480671E+01 0.  0.
     999903    2    3    3    0    0 -0.27036116642E-01  0.50647139601E-01  0.12062408847E+00  0.14108880192E+00  0.45384963971E-01 0.  0.
         14    1    1    2    0    0 -0.11240636739E-01 -0.13554589047E-02  0.37060008828E-02  0.11913170262E-01  0.00000000000E+00 0. -1.
     999901    1    3    3    0    0  0.38276753382E-01 -0.49291680697E-01 -0.12433008935E+00  0.89092802782E+00  0.88000000000E+00 0.  1.
        -11    1    4    4    0    0 -0.69660272028E-02  0.41003805523E-01  0.40985727051E-01  0.58394593459E-01  0.51100000000E-03 0. -1.
         11    1    4    4    0    0 -0.20070089439E-01  0.96433340788E-02  0.79638361419E-01  0.82694208460E-01  0.51100000000E-03 0.  1.
</event>
<event>
 8    1  0.1993226E+004  0.1043930E+01  0.7957747E-01            NaN
         13   -1    0    0    0    0  0.00000000000E+00  0.00000000000E+00  0.74505805969E-08  0.10566000000E+00  0.10566000000E+00 0. -1.
     999900   -1    0    0    0    0 -0.00000000000E+00 -0.00000000000E+00 -0.74505805969E-08  0.93827000000E+00  0.93827000000E+00 0. -1.
     999902    2    1    2    0    0  0.89105045138E-02  0.40604015534E-02  0.94413401166E-02  0.10303276894E+01  0.10302378971E+01 0.  0.
     999903    2    3    3    0    0 -0.92264003451E-01 -0.88291804589E-01 -0.29833860144E-01  0.13886386374E+00  0.45662066871E-01 0.  0.
         14    1    1    2    0    0 -0.89105045138E-02 -0.40604015534E-02 -0.94413401166E-02  0.13602310637E-01  0.00000000000E+00 0.  1.
     999901    1    3    3    0    0  0.10117450796E+00  0.92352206142E-01  0.39275200260E-01  0.89146382562E+00  0.88000000000E+00 0. -1.
        -11    1    4    4    0    0 -0.87824166462E-01 -0.60806088233E-01 -0.16860567397E-01  0.10814344379E+00  0.51100000000E-03 0.  1.
         11    1    4    4    0    0 -0.44398369889E-02 -0.27485716356E-01 -0.12973292747E-01  0.30720419948E-01  0.51100000000E-03 0. -1.
</event>
<event>
 8    1  0.1993226E+004  0.1043930E+01  0.7957747E-01            NaN
         13   -1    0    0    0    0  0.00000000000E+00  0.00000000000E+00  0.74505805969E-08  0.10566000000E+00  0.10566000000E+00 0. -1.
     999900   -1    0    0    0    0 -0.00000000000E+00 -0.00000000000E+00 -0.74505805969E-08  0.93827000000E+00  0.93827000000E+00 0.  1.
     999902    2    1    2    0    0 -0.11915092980E-01  0.70708749575E-02 -0.22446596451E-02  0.10298941455E+01  0.10297984977E+01 0.  0.
     999903    2    3    3    0    0 -0.11979200716E+00 -0.33675477586E-01 -0.48750025763E-01  0.14115321426E+00  0.45425786884E-01 0.  0.
         14    1    1    2    0    0  0.11915092980E-01 -0.70708749575E-02  0.22446596451E-02  0.14035854456E-01  0.00000000000E+00 0.  1.
     999901    1    3    3    0    0  0.10787691418E+00  0.40746352544E-01  0.46505366117E-01  0.88874093128E+00  0.88000000000E+00 0. -1.
        -11    1    4    4    0    0 -0.37397348635E-01  0.10254165012E-01 -0.18758012835E-01  0.43079388941E-01  0.51100000000E-03 0. -1.
         11    1    4    4    0    0 -0.82394658527E-01 -0.43929642598E-01 -0.29992012927E-01  0.98073825320E-01  0.51100000000E-03 0.  1.
</event>
<event>
 8    1  0.1993226E+004  0.1043930E+01  0.7957747E-01            NaN
         13   -1    0    0    0    0  0.00000000000E+00  0.00000000000E+00  0.74505805969E-08  0.10566000000E+00  0.10566000000E+00 0.  1.
     999900   -1    0    0    0    0 -0.00000000000E+00 -0.00000000000E+00 -0.74505805969E-08  0.93827000000E+00  0.93827000000E+00 0.  1.
     999902    2    1    2    0    0 -0.13920481128E-01 -0.51344821303E-02  0.25741023104E-03  0.10290905606E+01  0.10289835630E+01 0.  0.
     999903    2    3    3    0    0 -0.11335991971E+00 -0.33295408210E-03  0.70290579192E-01  0.14071231831E+00  0.44817504927E-01 0.  0.
         14    1    1    2    0    0  0.13920481128E-01  0.51344821303E-02 -0.25741023104E-03  0.14839439397E-01  0.00000000000E+00 0. -1.
     999901    1    3    3    0    0  0.99439438579E-01 -0.48015280482E-02 -0.70033168961E-01  0.88837824229E+00  0.88000000000E+00 0.  1.
        -11    1    4    4    0    0 -0.39489960260E-01 -0.37788695648E-02  0.50381595444E-01  0.64127241458E-01  0.51100000000E-03 0. -1.
         11    1    4    4    0    0 -0.73869959448E-01  0.34459154827E-02  0.19908983748E-01  0.76585076857E-01  0.51100000000E-03 0.  1.
</event>
<event>
 8    1  0.1993226E+004  0.1043930E+01  0.7957747E-01            NaN
         13   -1    0    0    0    0  0.00000000000E+00  0.00000000000E+00  0.74505805969E-08  0.10566000000E+00  0.10566000000E+00 0.  1.
     999900   -1    0    0    0    0 -0.00000000000E+00 -0.00000000000E+00 -0.74505805969E-08  0.93827000000E+00  0.93827000000E+00 0.  1.
     999902    2    1    2    0    0  0.86366040998E-02  0.88843252313E-02 -0.64722010213E-02  0.10299510318E+01  0.10298561630E+01 0.  0.
     999903    2    3    3    0    0 -0.42989250280E-01  0.11845567598E+00  0.41926939572E-01  0.14033674093E+00  0.45350962305E-01 0.  0.
         14    1    1    2    0    0 -0.86366040998E-02 -0.88843252313E-02  0.64722010213E-02  0.13978968175E-01  0.00000000000E+00 0.  1.
     999901    1    3    3    0    0  0.51625854380E-01 -0.10957135075E+00 -0.48399140593E-01  0.88961429089E+00  0.88000000000E+00 0.  1.
        -11    1    4    4    0    0 -0.18696609821E-01  0.52233340684E-01  0.42348112793E-01  0.69796195283E-01  0.51100000000E-03 0. -1.
         11    1    4    4    0    0 -0.24292640459E-01  0.66222335299E-01 -0.42117322136E-03  0.70540545651E-01  0.51100000000E-03 0.  1.
</event>
<event>
 8    1  0.1993226E+004  0.1043930E+01  0.7957747E-01            NaN
         13   -1    0    0    0    0  0.00000000000E+00  0.00000000000E+00  0.74505805969E-08  0.10566000000E+00  0.10566000000E+00 0. -1.
     999900   -1    0    0    0    0 -0.00000000000E+00 -0.00000000000E+00 -0.74505805969E-08  0.93827000000E+00  0.93827000000E+00 0. -1.
     999902    2    1    2    0    0 -0.15733364405E-01 -0.43214275697E-02 -0.26026446790E-02  0.10274076742E+01  0.10272748131E+01 0.  0.
     999903    2    3    3    0    0  0.19889008876E-01  0.12448328094E+00 -0.31591577943E-01  0.13684607345E+00  0.42862105804E-01 0.  0.
         14    1    1    2    0    0  0.15733364405E-01  0.43214275697E-02  0.26026446790E-02  0.16522325837E-01  0.00000000000E+00 0.  1.
     999901    1    3    3    0    0 -0.35622373281E-01 -0.12880470851E+00  0.28988933264E-01  0.89056160071E+00  0.88000000000E+00 0.  1.
        -11    1    4    4    0    0  0.18175370789E-01  0.10744959602E+00 -0.42015505271E-01  0.11679607696E+00  0.51100000000E-03 0. -1.
         11    1    4    4    0    0  0.17136380863E-02  0.17033684916E-01  0.10423927328E-01  0.20049996490E-01  0.51100000000E-03 0.  1.
</event>
<event>
 8    1  0.1993226E+004  0.1043930E+01  0.7957747E-01            NaN
         13   -1    0    0    0    0  0.00000000000E+00  0.00000000000E+00  0.74505805969E-08  0.10566000000E+00  0.10566000000E+00 0. -1.
     999900   -1    0    0    0    0 -0.00000000000E+00 -0.00000000000E+00 -0.74505805969E-08  0.93827000000E+00  0.93827000000E+00 0.  1.
     999902    2    1    2    0    0 -0.84634872077E-02 -0.10456577211E-01 -0.19274567030E-02  0.10303400879E+01  0.10302504603E+01 0.  0.
     999903    2    3    3    0    0  0.12605433698E+00  0.10725029351E-01 -0.36049273369E-01  0.13921270984E+00  0.45562115224E-01 0.  0.
         14    1    1    2    0    0  0.84634872077E-02  0.10456577211E-01  0.19274567030E-02  0.13589912142E-01  0.00000000000E+00 0.  1.
     999901    1    3    3    0    0 -0.13451782419E+00 -0.21181606562E-01  0.34121816666E-01  0.89112737802E+00  0.88000000000E+00 0.  1.
        -11    1    4    4    0    0  0.68677378456E-01 -0.58550430562E-02  0.98607330065E-03  0.68935457511E-01  0.51100000000E-03 0.  1.
         11    1    4    4    0    0  0.57376958527E-01  0.16580072408E-01 -0.37035346670E-01  0.70277252328E-01  0.51100000000E-03 0. -1.
</event>
<event>
 8    1  0.1993226E+004  0.1043930E+01  0.7957747E-01            NaN
         13   -1    0    0    0    0  0.00000000000E+00  0.00000000000E+00  0.74505805969E-08  0.10566000000E+00  0.10566000000E+00 0. -1.
     999900   -1    0    0    0    0 -0.00000000000E+00 -0.00000000000E+00 -0.74505805969E-08  0.93827000000E+00  0.93827000000E+00 0. -1.
     999902    2    1    2    0    0  0.51636048308E-02 -0.39236842455E-02  0.14512485563E-01  0.10280343921E+01  0.10279114947E+01 0.  0.
     999903    2    3    3    0    0  0.88401323135E-01  0.92961655195E-01 -0.23294120269E-01  0.13800932157E+00  0.45247027888E-01 0.  0.
         14    1    1    2    0    0 -0.51636048308E-02  0.39236842455E-02 -0.14512485563E-01  0.15895607888E-01  0.00000000000E+00 0.  1.
     999901    1    3    3    0    0 -0.83237718305E-01 -0.96885339440E-01  0.37806605833E-01  0.89002507054E+00  0.88000000000E+00 0.  1.
        -11    1    4    4    0    0  0.11573275373E-01  0.28945356315E-01  0.97833605146E-02  0.32676438285E-01  0.51100000000E-03 0. -1.
         11    1    4    4    0    0  0.76828047762E-01  0.64016298880E-01 -0.33077480784E-01  0.10533288329E+00  0.51100000000E-03 0.  1.
</event>
<event>
 8    1  0.1993226E+004  0.1043930E+01  0.7957747E-01            NaN
         13   -1    0    0    0    0  0.00000000000E+00  0.00000000000E+00  0.74505805969E-08  0.10566000000E+00  0.10566000000E+00 0.  1.
     999900   -1    0    0    0    0 -0.00000000000E+00 -0.00000000000E+00 -0.74505805969E-08  0.93827000000E+00  0.93827000000E+00 0.  1.
     999902    2    1    2    0    0  0.66218322878E-02 -0.12564405586E-01  0.62069505559E-03  0.10297138749E+01  0.10296157370E+01 0.  0.
     999903    2    3    3    0    0 -0.36121490333E-01  0.12416594215E+00  0.17492435979E-01  0.13797016998E+00  0.44808919135E-01 0.  0.
         14    1    1    2    0    0 -0.66218322878E-02  0.12564405586E-01 -0.62069505559E-03  0.14216125102E-01  0.00000000000E+00 0. -1.
     999901    1    3    3    0    0  0.42743322621E-01 -0.13673034773E+00 -0.16871740923E-01  0.89174370492E+00  0.88000000000E+00 0. -1.
        -11    1    4    4    0    0 -0.45205994205E-01  0.90099701745E-01  0.64109001724E-02  0.10100940020E+00  0.51100000000E-03 0. -1.
         11    1    4    4    0    0  0.90845038728E-02  0.34066240404E-01  0.11081535806E-01  0.36960769780E-01  0.51100000000E-03 0.  1.
</event>
<event>
 8    1  0.1993226E+004  0.1043930E+01  0.7957747E-01            NaN
         13   -1    0    0    0    0  0.00000000000E+00  0.00000000000E+00  0.74505805969E-08  0.10566000000E+00  0.10566000000E+00 0.  1.
     999900   -1    0    0    0    0 -0.00000000000E+00 -0.00000000000E+00 -0.74505805969E-08  0.93827000000E+00  0.93827000000E+00 0.  1.
     999902    2    1    2    0    0 -0.64441137154E-02  0.10311066317E-01 -0.60792619310E-02  0.10303358058E+01  0.10302461214E+01 0.  0.
     999903    2    3    3    0    0 -0.11215350934E+00  0.65061181757E-01 -0.36370968107E-01  0.14180351099E+00  0.44429960395E-01 0.  0.
         14    1    1    2    0    0  0.64441137154E-02 -0.10311066317E-01  0.60792619310E-02  0.13594194194E-01  0.00000000000E+00 0. -1.
     999901    1    3    3    0    0  0.10570939562E+00 -0.54750115441E-01  0.30291706176E-01  0.88853229481E+00  0.88000000000E+00 0. -1.
        -11    1    4    4    0    0 -0.64974015801E-01  0.13352279176E-01 -0.10415168426E-01  0.67146429115E-01  0.51100000000E-03 0. -1.
         11    1    4    4    0    0 -0.47179493535E-01  0.51708902582E-01 -0.25955799681E-01  0.74657081878E-01  0.51100000000E-03 0.  1.
</event>
<event>
 8    1  0.1993226E+004  0.1043930E+01  0.7957747E-01            NaN
         13   -1    0    0    0    0  0.00000000000E+00  0.00000000000E+00  0.74505805969E-08  0.10566000000E+00  0.10566000000E+00 0. -1.
     999900   -1    0    0    0    0 -0.00000000000E+00 -0.00000000000E+00 -0.74505805969E-08  0.93827000000E+00  0.93827000000E+00 0. -1.
     999902    2    1    2    0    0  0.86929327208E-02 -0.11499879780E-01 -0.20495250334E-02  0.10293692697E+01  0.10292662816E+01 0.  0.
     999903    2    3    3    0    0  0.12604867394E+00 -0.35928241062E-02  0.41412171095E-01  0.14048018181E+00  0.46027567598E-01 0.  0.
         14    1    1    2    0    0 -0.86929327208E-02  0.11499879780E-01  0.20495250334E-02  0.14560730308E-01  0.00000000000E+00 0. -1.
     999901    1    3    3    0    0 -0.11735574122E+00 -0.79070556737E-02 -0.43461696128E-01  0.88888908788E+00  0.88000000000E+00 0. -1.
        -11    1    4    4    0    0  0.15533340854E-01 -0.26618844547E-02 -0.99112386853E-02  0.18624287375E-01  0.51100000000E-03 0.  1.
         11    1    4    4    0    0  0.11051533309E+00 -0.93093965156E-03  0.51323409780E-01  0.12185589443E+00  0.51100000000E-03 0. -1.
</event>
<event>
 8    1  0.1993226E+004  0.1043930E+01  0.7957747E-01            NaN
         13   -1    0    0    0    0  0.00000000000E+00  0.00000000000E+00  0.74505805969E-08  0.10566000000E+00  0.10566000000E+00 0. -1.
     999900   -1    0    0    0    0 -0.00000000000E+00 -0.00000000000E+00 -0.74505805969E-08  0.93827000000E+00  0.93827000000E+00 0. -1.
     999902    2    1    2    0    0 -0.98883177457E-02 -0.99387318743E-02  0.26537470287E-02  0.10296611671E+01  0.10295622951E+01 0.  0.
     999903    2    3    3    0    0  0.80806693407E-01 -0.57003453047E-01 -0.87683858325E-01  0.13915481902E+00  0.43548700172E-01 0.  0.
         14    1    1    2    0    0  0.98883177457E-02  0.99387318743E-02 -0.26537470287E-02  0.14268832903E-01  0.00000000000E+00 0. -1.
     999901    1    3    3    0    0 -0.90695011153E-01  0.47064721172E-01  0.90337605354E-01  0.89050634808E+00  0.88000000000E+00 0. -1.
        -11    1    4    4    0    0  0.36382566982E-01 -0.39328549933E-01 -0.22019890789E-01  0.57927219262E-01  0.51100000000E-03 0.  1.
         11    1    4    4    0    0  0.44424126425E-01 -0.17674903114E-01 -0.65663967536E-01  0.81227599757E-01  0.51100000000E-03 0. -1.
</event>
<event>
 8    1  0.1993226E+004  0.1043930E+01  0.7957747E-01            NaN
         13   -1    0    0    0    0  0.00000000000E+00  0.00000000000E+00  0.74505805969E-08  0.10566000000E+00  0.10566000000E+00 0.  1.
     999900   -1    0    0    0    0 -0.00000000000E+00 -0.00000000000E+00 -0.74505805969E-08  0.93827000000E+00  0.93827000000E+00 0. -1.
     999902    2    1    2    0    0 -0.67372027911E-02  0.63506230585E-03  0.11809731239E-01  0.10303188664E+01  0.10302289568E+01 0.  0.
     999903    2    3    3    0    0  0.48032336514E-01  0.77367645921E-01 -0.94915959149E-01  0.13887174806E+00  0.44536110326E-01 0.  0.
         14    1    1    2    0    0  0.67372027911E-02 -0.63506230585E-03 -0.11809731239E-01  0.13611133587E-01  0.00000000000E+00 0. -1.
     999901    1    3    3    0    0 -0.54769539305E-01 -0.76732583616E-01  0.10672569039E+00  0.89144711835E+00  0.88000000000E+00 0.  1.
        -11    1    4    4    0    0  0.47981158333E-01  0.36162627922E-01 -0.58983469779E-01  0.84197613038E-01  0.51100000000E-03 0. -1.
         11    1    4    4    0    0  0.51178180804E-04  0.41205018000E-01 -0.35932489370E-01  0.54674135026E-01  0.51100000000E-03 0.  1.
</event>
<event>
 8    1  0.1993226E+004  0.1043930E+01  0.7957747E-01            NaN
         13   -1    0    0    0    0  0.00000000000E+00  0.00000000000E+00  0.74505805969E-08  0.10566000000E+00  0.10566000000E+00 0.  1.
     999900   -1    0    0    0    0 -0.00000000000E+00 -0.00000000000E+00 -0.74505805969E-08  0.93827000000E+00  0.93827000000E+00 0.  1.
     999902    2    1    2    0    0  0.14245620867E-01  0.17509563395E-03 -0.16006091318E-02  0.10295936713E+01  0.10294938550E+01 0.  0.
     999903    2    3    3    0    0 -0.51044679327E-01  0.10341536462E+00 -0.63185743637E-01  0.13902413145E+00  0.45110686085E-01 0.  0.
         14    1    1    2    0    0 -0.14245620867E-01 -0.17509563395E-03  0.16006091318E-02  0.14336328748E-01  0.00000000000E+00 0.  1.
     999901    1    3    3    0    0  0.65290300195E-01 -0.10324026898E+00  0.61585134505E-01  0.89056953981E+00  0.88000000000E+00 0.  1.
        -11    1    4    4    0    0 -0.81292873666E-02  0.65968741774E-01 -0.39630813809E-01  0.77387484314E-01  0.51100000000E-03 0.  1.
         11    1    4    4    0    0 -0.42915391961E-01  0.37446622842E-01 -0.23554929828E-01  0.61636647131E-01  0.51100000000E-03 0. -1.
</event>
<event>
 8    1  0.1993226E+004  0.1043930E+01  0.7957747E-01            NaN
         13   -1    0    0    0    0  0.00000000000E+00  0.00000000000E+00  0.74505805969E-08  0.10566000000E+00  0.10566000000E+00 0. -1.
     999900   -1    0    0    0    0 -0.00000000000E+00 -0.00000000000E+00 -0.74505805969E-08  0.93827000000E+00  0.93827000000E+00 0.  1.
     999902    2    1    2    0    0  0.93127029607E-02  0.11390847059E-01  0.36516655434E-02  0.10287704322E+01  0.10286587334E+01 0.  0.
     999903    2    3    3    0    0  0.44002539944E-01  0.11700728409E+00 -0.45762999779E-01  0.14040112520E+00  0.44623937022E-01 0.  0.
         14    1    1    2    0    0 -0.93127029607E-02 -0.11390847059E-01 -0.36516655434E-02  0.15159567751E-01  0.00000000000E+00 0. -1.
     999901    1    3    3    0    0 -0.34689836983E-01 -0.10561643704E+00  0.49414665322E-01  0.88836930705E+00  0.88000000000E+00 0. -1.
        -11    1    4    4    0    0  0.31568444188E-01  0.26200849762E-01 -0.15943114850E-01  0.44016987957E-01  0.51100000000E-03 0.  1.
         11    1    4    4    0    0  0.12434095756E-01  0.90806434333E-01 -0.29819884929E-01  0.96384137241E-01  0.51100000000E-03 0. -1.
</event>
<event>
 8    1  0.1993226E+004  0.1043930E+01  0.7957747E-01            NaN
         13   -1    0    0    0    0  0.00000000000E+00  0.00000000000E+00  0.74505805969E-08  0.10566000000E+00  0.10566000000E+00 0.  1.
     999900   -1    0    0    0    0 -0.00000000000E+00 -0.00000000000E+00 -0.74505805969E-08  0.93827000000E+00  0.93827000000E+00 0. -1.
     999902    2    1    2    0    0  0.13317915969E-01  0.33823377962E-02  0.47568582149E-02  0.10293892024E+01  0.10292864981E+01 0.  0.
     999903    2    3    3    0    0  0.11464282841E+00 -0.50447576593E-01  0.48880347435E-01  0.14084472976E+00  0.41952514162E-01 0.  0.
         14    1    1    2    0    0 -0.13317915969E-01 -0.33823377962E-02 -0.47568582149E-02  0.14540797599E-01  0.00000000000E+00 0.  1.
     999901    1    3    3    0    0 -0.10132491244E+00  0.53829914389E-01 -0.44123489220E-01  0.88854447264E+00  0.88000000000E+00 0.  1.
        -11    1    4    4    0    0  0.57838292564E-01 -0.20717572429E-01  0.45841908038E-01  0.76656555803E-01  0.51100000000E-03 0.  1.
         11    1    4    4    0    0  0.56804535849E-01 -0.29730004164E-01  0.30384393969E-02  0.64188173954E-01  0.51100000000E-03 0. -1.
</event>
<event>
 8    1  0.1993226E+004  0.1043930E+01  0.7957747E-01            NaN
         13   -1    0    0    0    0  0.00000000000E+00  0.00000000000E+00  0.74505805969E-08  0.10566000000E+00  0.10566000000E+00 0.  1.
     999900   -1    0    0    0    0 -0.00000000000E+00 -0.00000000000E+00 -0.74505805969E-08  0.93827000000E+00  0.93827000000E+00 0.  1.
     999902    2    1    2    0    0 -0.11102858889E-01  0.71225091132E-02 -0.14804011546E-06  0.10307389571E+01  0.10306545465E+01 0.  0.
     999903    2    3    3    0    0  0.29010013016E-01 -0.44687554630E-01  0.12141462456E+00  0.13998934463E+00  0.44910434842E-01 0.  0.
         14    1    1    2    0    0  0.11102858889E-01 -0.71225091132E-02  0.14804011544E-06  0.13191042854E-01  0.00000000000E+00 0. -1.
     999901    1    3    3    0    0 -0.40112871905E-01  0.51810063743E-01 -0.12141477260E+00  0.89074961252E+00  0.88000000000E+00 0.  1.
        -11    1    4    4    0    0 -0.54840217106E-03  0.86276108762E-02  0.13283973040E-01  0.15857536855E-01  0.51100000000E-03 0.  1.
         11    1    4    4    0    0  0.29558415187E-01 -0.53315165506E-01  0.10813065152E+00  0.12413180777E+00  0.51100000000E-03 0. -1.
</event>
<event>
 8    1  0.1993226E+004  0.1043930E+01  0.7957747E-01            NaN
         13   -1    0    0    0    0  0.00000000000E+00  0.00000000000E+00  0.74505805969E-08  0.10566000000E+00  0.10566000000E+00 0. -1.
     999900   -1    0    0    0    0 -0.00000000000E+00 -0.00000000000E+00 -0.74505805969E-08  0.93827000000E+00  0.93827000000E+00 0. -1.
     999902    2    1    2    0    0 -0.45466512220E-02 -0.12659125017E-01  0.36115516463E-02  0.10300027322E+01  0.10299085685E+01 0.  0.
     999903    2    3    3    0    0 -0.92313281761E-01  0.57278394589E-01 -0.66005140500E-01  0.14014840595E+00  0.59011360285E-01 0.  0.
         14    1    1    2    0    0  0.45466512220E-02  0.12659125017E-01 -0.36115516463E-02  0.13927267816E-01  0.00000000000E+00 0.  1.
     999901    1    3    3    0    0  0.87766630539E-01 -0.69937519606E-01  0.69616692146E-01  0.88985432623E+00  0.88000000000E+00 0.  1.
        -11    1    4    4    0    0 -0.46022790851E-01  0.13248491069E-01 -0.58826719958E-01  0.75858182785E-01  0.51100000000E-03 0. -1.
         11    1    4    4    0    0 -0.46290490910E-01  0.44029903520E-01 -0.71784205418E-02  0.64290223169E-01  0.51100000000E-03 0.  1.
</event>
<event>
 8    1  0.1993226E+004  0.1043930E+01  0.7957747E-01            NaN
         13   -1    0    0    0    0  0.00000000000E+00  0.00000000000E+00  0.74505805969E-08  0.10566000000E+00  0.10566000000E+00 0.  1.
     999900   -1    0    0    0    0 -0.00000000000E+00 -0.00000000000E+00 -0.74505805969E-08  0.93827000000E+00  0.93827000000E+00 0. -1.
     999902    2    1    2    0    0  0.20763227150E-02 -0.96563023865E-02  0.98566396895E-02  0.10299761963E+01  0.10298816710E+01 0.  0.
     999903    2    3    3    0    0 -0.87596438672E-01 -0.85199538430E-01  0.54061738464E-01  0.14109933452E+00  0.45323870304E-01 0.  0.
         14    1    1    2    0    0 -0.20763227150E-02  0.96563023865E-02 -0.98566396895E-02  0.13953803702E-01  0.00000000000E+00 0. -1.
     999901    1    3    3    0    0  0.89672761387E-01  0.75543236044E-01 -0.44205098774E-01  0.88887686178E+00  0.88000000000E+00 0.  1.
        -11    1    4    4    0    0 -0.55101375387E-01 -0.43212826044E-01  0.74048019159E-02  0.70417342443E-01  0.51100000000E-03 0. -1.
         11    1    4    4    0    0 -0.32495063285E-01 -0.41986712386E-01  0.46656936548E-01  0.70681992077E-01  0.51100000000E-03 0.  1.
</event>
<event>
 8    1  0.1993226E+004  0.1043930E+01  0.7957747E-01            NaN
         13   -1    0    0    0    0  0.00000000000E+00  0.00000000000E+00  0.74505805969E-08  0.10566000000E+00  0.10566000000E+00 0.  1.
     999900   -1    0    0    0    0 -0.00000000000E+00 -0.00000000000E+00 -0.74505805969E-08  0.93827000000E+00  0.93827000000E+00 0.  1.
     999902    2    1    2    0    0 -0.16658608123E-02  0.13879193536E-01  0.15818704528E-02  0.10298619717E+01  0.10297658818E+01 0.  0.
     999903    2    3    3    0    0  0.77263381979E-01 -0.59563476203E-01 -0.88947343365E-01  0.13867221098E+00  0.42437180788E-01 0.  0.
         14    1    1    2    0    0  0.16658608123E-02 -0.13879193536E-01 -0.15818704528E-02  0.14068028276E-01  0.00000000000E+00 0. -1.
     999901    1    3    3    0    0 -0.78929242792E-01  0.73442669739E-01  0.90529213817E-01  0.89118976075E+00  0.88000000000E+00 0. -1.
        -11    1    4    4    0    0  0.49807750032E-01 -0.11639692614E-01 -0.42368498258E-01  0.66420216599E-01  0.51100000000E-03 0.  1.
         11    1    4    4    0    0  0.27455631948E-01 -0.47923783589E-01 -0.46578845106E-01  0.72251994378E-01  0.51100000000E-03 0. -1.
</event>
<event>
 8    1  0.1993226E+004  0.1043930E+01  0.7957747E-01            NaN
         13   -1    0    0    0    0  0.00000000000E+00  0.00000000000E+00  0.74505805969E-08  0.10566000000E+00  0.10566000000E+00 0. -1.
     999900   -1    0    0    0    0 -0.00000000000E+00 -0.00000000000E+00 -0.74505805969E-08  0.93827000000E+00  0.93827000000E+00 0. -1.
     999902    2    1    2    0    0 -0.10218754975E-01  0.16777182823E-01 -0.95626961432E-02  0.10220818428E+01  0.10218483015E+01 0.  0.
     999903    2    3    3    0    0  0.22345324461E-01  0.12524007817E+00 -0.71597575283E-02  0.13482179462E+00  0.44059771568E-01 0.  0.
         14    1    1    2    0    0  0.10218754975E-01 -0.16777182823E-01  0.95626961432E-02  0.21848157228E-01  0.00000000000E+00 0.  1.
     999901    1    3    3    0    0 -0.32564079437E-01 -0.10846289535E+00 -0.24029386149E-02  0.88726004815E+00  0.88000000000E+00 0. -1.
        -11    1    4    4    0    0  0.17576807053E-01  0.32877204762E-01 -0.18535563773E-01  0.41637518952E-01  0.51100000000E-03 0. -1.
         11    1    4    4    0    0  0.47685174084E-02  0.92362873409E-01  0.11375806244E-01  0.93184275666E-01  0.51100000000E-03 0.  1.
</event>
<event>
 8    1  0.1993226E+004  0.1043930E+01  0.7957747E-01            NaN
         13   -1    0    0    0    0  0.00000000000E+00  0.00000000000E+00  0.74505805969E-08  0.10566000000E+00  0.10566000000E+00 0.  1.
     999900   -1    0    0    0    0 -0.00000000000E+00 -0.00000000000E+00 -0.74505805969E-08  0.93827000000E+00  0.93827000000E+00 0. -1.
     999902    2    1    2    0    0  0.90133355487E-02 -0.89982830207E-02  0.33390453678E-02  0.10307634310E+01  0.10306793353E+01 0.  0.
     999903    2    3    3    0    0 -0.48573980577E-01 -0.10404696778E+00 -0.68875742995E-01  0.14083898078E+00  0.43664029156E-01 0.  0.
         14    1    1    2    0    0 -0.90133355487E-02  0.89982830207E-02 -0.33390453678E-02  0.13166568991E-01  0.00000000000E+00 0.  1.
     999901    1    3    3    0    0  0.57587316126E-01  0.95048684756E-01  0.72214788363E-01  0.88992445023E+00  0.88000000000E+00 0.  1.
        -11    1    4    4    0    0 -0.32913719876E-01 -0.72775202321E-01 -0.69467833464E-01  0.10585643125E+00  0.51100000000E-03 0. -1.
         11    1    4    4    0    0 -0.15660260701E-01 -0.31271765456E-01  0.59209046922E-03  0.34982549537E-01  0.51100000000E-03 0.  1.
</event>
<event>
 8    1  0.1993226E+004  0.1043930E+01  0.7957747E-01            NaN
         13   -1    0    0    0    0  0.00000000000E+00  0.00000000000E+00  0.74505805969E-08  0.10566000000E+00  0.10566000000E+00 0. -1.
     999900   -1    0    0    0    0 -0.00000000000E+00 -0.00000000000E+00 -0.74505805969E-08  0.93827000000E+00  0.93827000000E+00 0.  1.
     999902    2    1    2    0    0 -0.11592677729E-01 -0.10158875590E-02 -0.56038623844E-02  0.10310139062E+01  0.10309329995E+01 0.  0.
     999903    2    3    3    0    0 -0.10916201142E+00 -0.76270828624E-01  0.19883434766E-01  0.14206357953E+00  0.45311429190E-01 0.  0.
         14    1    1    2    0    0  0.11592677729E-01  0.10158875590E-02  0.56038623844E-02  0.12916093763E-01  0.00000000000E+00 0.  1.
     999901    1    3    3    0    0  0.97569333692E-01  0.75254941065E-01 -0.25487297150E-01  0.88895032670E+00  0.88000000000E+00 0. -1.
        -11    1    4    4    0    0 -0.29825125544E-01 -0.55252571571E-03 -0.31462897944E-02  0.30000060981E-01  0.51100000000E-03 0.  1.
         11    1    4    4    0    0 -0.79336885877E-01 -0.75718302908E-01  0.23029724560E-01  0.11206351855E+00  0.51100000000E-03 0. -1.
</event>
<event>
 8    1  0.1993226E+004  0.1043930E+01  0.7957747E-01            NaN
         13   -1    0    0    0    0  0.00000000000E+00  0.00000000000E+00  0.74505805969E-08  0.10566000000E+00  0.10566000000E+00 0. -1.
     999900   -1    0    0    0    0 -0.00000000000E+00 -0.00000000000E+00 -0.74505805969E-08  0.93827000000E+00  0.93827000000E+00 0.  1.
     999902    2    1    2    0    0  0.83050578549E-02  0.17784761964E-01 -0.12686926441E-01  0.10205584394E+01  0.10202907911E+01 0.  0.
     999903    2    3    3    0    0  0.28465360622E-01  0.36782279491E-01 -0.11710006017E+00  0.13395286416E+00  0.45472330983E-01 0.  0.
         14    1    1    2    0    0 -0.83050578549E-02 -0.17784761964E-01  0.12686926441E-01  0.23371560637E-01  0.00000000000E+00 0. -1.
     999901    1    3    3    0    0 -0.20160302767E-01 -0.18997517528E-01  0.10441313373E+00  0.88660557520E+00  0.88000000000E+00 0. -1.
        -11    1    4    4    0    0  0.40073760292E-01  0.35120067926E-01 -0.94660674644E-01  0.10862886302E+00  0.51100000000E-03 0. -1.
         11    1    4    4    0    0 -0.11608399670E-01  0.16622115655E-02 -0.22439385529E-01  0.25324001147E-01  0.51100000000E-03 0.  1.
</event>
<event>
 8    1  0.1993226E+004  0.1043930E+01  0.7957747E-01            NaN
         13   -1    0    0    0    0  0.00000000000E+00  0.00000000000E+00  0.74505805969E-08  0.10566000000E+00  0.10566000000E+00 0. -1.
     999900   -1    0    0    0    0 -0.00000000000E+00 -0.00000000000E+00 -0.74505805969E-08  0.93827000000E+00  0.93827000000E+00 0. -1.
     999902    2    1    2    0    0  0.42428119013E-02 -0.35774354745E-02  0.13922163069E-01  0.10289424678E+01  0.10288333081E+01 0.  0.
     999903    2    3    3    0    0 -0.20289543466E-01 -0.61025946428E-01  0.11686399601E+00  0.14074249658E+00  0.44893485832E-01 0.  0.
         14    1    1    2    0    0 -0.42428119013E-02  0.35774354745E-02 -0.13922163069E-01  0.14987532216E-01  0.00000000000E+00 0.  1.
     999901    1    3    3    0    0  0.24532355367E-01  0.57448510954E-01 -0.10294183294E+00  0.88819997120E+00  0.88000000000E+00 0.  1.
        -11    1    4    4    0    0 -0.59384612695E-02  0.68321703711E-02  0.13166627335E-01  0.15986402679E-01  0.51100000000E-03 0.  1.
         11    1    4    4    0    0 -0.14351082197E-01 -0.67858116799E-01  0.10369736867E+00  0.12475609391E+00  0.51100000000E-03 0. -1.
</event>
<event>
 8    1  0.1993226E+004  0.1043930E+01  0.7957747E-01            NaN
         13   -1    0    0    0    0  0.00000000000E+00  0.00000000000E+00  0.74505805969E-08  0.10566000000E+00  0.10566000000E+00 0. -1.
     999900   -1    0    0    0    0 -0.00000000000E+00 -0.00000000000E+00 -0.74505805969E-08  0.93827000000E+00  0.93827000000E+00 0. -1.
     999902    2    1    2    0    0 -0.88988443129E-02  0.13330668723E-01  0.51425681262E-02  0.10270972294E+01  0.10269592867E+01 0.  0.
     999903    2    3    3    0    0  0.12736171915E+00  0.10964436082E-01  0.18472730069E-01  0.13650740608E+00  0.44179223569E-01 0.  0.
         14    1    1    2    0    0  0.88988443129E-02 -0.13330668723E-01 -0.51425681262E-02  0.16832770587E-01  0.00000000000E+00 0.  1.
     999901    1    3    3    0    0 -0.13626056346E+00  0.23662326401E-02 -0.13330161942E-01  0.89058982334E+00  0.88000000000E+00 0.  1.
        -11    1    4    4    0    0  0.26215830644E-01  0.20366897484E-01  0.94717376686E-02  0.34526152768E-01  0.51100000000E-03 0. -1.
         11    1    4    4    0    0  0.10114588850E+00 -0.94024614014E-02  0.90009923999E-02  0.10198125331E+00  0.51100000000E-03 0.  1.
</event>
<event>
 8    1  0.1993226E+004  0.1043930E+01  0.7957747E-01            NaN
         13   -1    0    0    0    0  0.00000000000E+00  0.00000000000E+00  0.74505805969E-08  0.10566000000E+00  0.10566000000E+00 0.  1.
     999900   -1    0    0    0    0 -0.00000000000E+00 -0.00000000000E+00 -0.74505805969E-08  0.93827000000E+00  0.93827000000E+00 0.  1.
     999902    2    1    2    0    0 -0.10863506704E-01  0.79755232835E-02 -0.37685495333E-02  0.10299361901E+01  0.10298411183E+01 0.  0.
     999903    2    3    3    0    0 -0.34016812373E-01  0.11792842729E+00 -0.54710608195E-01  0.14133008502E+00  0.43779958840E-01 0.  0.
         14    1    1    2    0    0  0.10863506704E-01 -0.79755232835E-02  0.37685495333E-02  0.13993809886E-01  0.00000000000E+00 0.  1.
     999901    1    3    3    0    0  0.23153305670E-01 -0.10995290401E+00  0.50942058661E-01  0.88860610509E+00  0.88000000000E+00 0. -1.
        -11    1    4    4    0    0 -0.16237695224E-02  0.74820254070E-01 -0.20979804495E-01  0.77724644510E-01  0.51100000000E-03 0. -1.
         11    1    4    4    0    0 -0.32393042851E-01  0.43108173222E-01 -0.33730803700E-01  0.63605440513E-01  0.51100000000E-03 0.  1.
</event>
<event>
 8    1  0.1993226E+004  0.1043930E+01  0.7957747E-01            NaN
         13   -1    0    0    0    0  0.00000000000E+00  0.00000000000E+00  0.74505805969E-08  0.10566000000E+00  0.10566000000E+00 0. -1.
     999900   -1    0    0    0    0 -0.00000000000E+00 -0.00000000000E+00 -0.74505805969E-08  0.93827000000E+00  0.93827000000E+00 0. -1.
     999902    2    1    2    0    0 -0.13245214491E-02  0.34095800741E-02  0.13139257344E-01  0.10302910969E+01  0.10302008177E+01 0.  0.
     999903    2    3    3    0    0  0.80699648013E-01 -0.10436088218E+00  0.15391376175E-01  0.13992740217E+00  0.44035854705E-01 0.  0.
         14    1    1    2    0    0  0.13245214491E-02 -0.34095800741E-02 -0.13139257344E-01  0.13638903068E-01  0.00000000000E+00 0.  1.
     999901    1    3    3    0    0 -0.82024169462E-01  0.10777046225E+00 -0.22521188309E-02  0.89036369476E+00  0.88000000000E+00 0.  1.
        -11    1    4    4    0    0  0.23578181556E-01 -0.62030768839E-01  0.18069463462E-01  0.68778728972E-01  0.51100000000E-03 0. -1.
         11    1    4    4    0    0  0.57121466458E-01 -0.42330113338E-01 -0.26780872874E-02  0.71148673199E-01  0.51100000000E-03 0.  1.
</event>
<event>
 8    1  0.1993226E+004  0.1043930E+01  0.7957747E-01            NaN
         13   -1    0    0    0    0  0.00000000000E+00  0.00000000000E+00  0.74505805969E-08  0.10566000000E+00  0.10566000000E+00 0. -1.
     999900   -1    0    0    0    0 -0.00000000000E+00 -0.00000000000E+00 -0.74505805969E-08  0.93827000000E+00  0.93827000000E+00 0. -1.
     999902    2    1    2    0    0 -0.66980343091E-02  0.20246856823E-06  0.11253210370E-01  0.10308342600E+01  0.10307510723E+01 0.  0.
     999903    2    3    3    0    0 -0.68678581538E-01 -0.90937978094E-01 -0.64456929873E-01  0.14075372076E+00  0.51676403489E-01 0.  0.
         14    1    1    2    0    0  0.66980343091E-02 -0.20246856824E-06 -0.11253210370E-01  0.13095740043E-01  0.00000000000E+00 0.  1.
     999901    1    3    3    0    0  0.61980547228E-01  0.90938180563E-01  0.75710140243E-01  0.89008053920E+00  0.88000000000E+00 0.  1.
        -11    1    4    4    0    0 -0.36348588233E-01 -0.35526091589E-01 -0.14756391722E-02  0.50850385270E-01  0.51100000000E-03 0.  1.
         11    1    4    4    0    0 -0.32329993304E-01 -0.55411886505E-01 -0.62981290701E-01  0.89903335491E-01  0.51100000000E-03 0. -1.
</event>
<event>
 8    1  0.1993226E+004  0.1043930E+01  0.7957747E-01            NaN
         13   -1    0    0    0    0  0.00000000000E+00  0.00000000000E+00  0.74505805969E-08  0.10566000000E+00  0.10566000000E+00 0. -1.
     999900   -1    0    0    0    0 -0.00000000000E+00 -0.00000000000E+00 -0.74505805969E-08  0.93827000000E+00  0.93827000000E+00 0. -1.
     999902    2    1    2    0    0  0.32741896198E-02  0.15191886953E-01  0.81254526623E-03  0.10283680600E+01  0.10282503065E+01 0.  0.
     999903    2    3    3    0    0 -0.12739531377E-01 -0.60673663495E-01  0.11452738221E+00  0.13766997133E+00  0.44642027605E-01 0.  0.
         14    1    1    2    0    0 -0.32741896198E-02 -0.15191886953E-01 -0.81254526623E-03  0.15561940003E-01  0.00000000000E+00 0.  1.
     999901    1    3    3    0    0  0.16013720997E-01  0.75865550448E-01 -0.11371483695E+00  0.89069808866E+00  0.88000000000E+00 0. -1.
        -11    1    4    4    0    0  0.16825331065E-01 -0.21017531229E-01  0.40936660115E-01  0.48998975977E-01  0.51100000000E-03 0.  1.
         11    1    4    4    0    0 -0.29564862442E-01 -0.39656132266E-01  0.73590722099E-01  0.88670995357E-01  0.51100000000E-03 0. -1.
</event>
<event>
 8    1  0.1993226E+004  0.1043930E+01  0.7957747E-01            NaN
         13   -1    0    0    0    0  0.00000000000E+00  0.00000000000E+00  0.74505805969E-08  0.10566000000E+00  0.10566000000E+00 0. -1.
     999900   -1    0    0    0    0 -0.00000000000E+00 -0.00000000000E+00 -0.74505805969E-08  0.93827000000E+00  0.93827000000E+00 0.  1.
     999902    2    1    2    0    0  0.70619199052E-03  0.10070549045E-01  0.91074267175E-02  0.10303336811E+01  0.10302439685E+01 0.  0.
     999903    2    3    3    0    0  0.86898715856E-01 -0.38548974172E-01  0.93588783662E-01  0.14076630939E+00  0.44931984203E-01 0.  0.
         14    1    1    2    0    0 -0.70619199052E-03 -0.10070549045E-01 -0.91074267175E-02  0.13596318863E-01  0.00000000000E+00 0.  1.
     999901    1    3    3    0    0 -0.86192523866E-01  0.48619523217E-01 -0.84481356945E-01  0.88956737175E+00  0.88000000000E+00 0. -1.
        -11    1    4    4    0    0  0.49408531711E-01 -0.23170654494E-01  0.82207957288E-01  0.98673662129E-01  0.51100000000E-03 0. -1.
         11    1    4    4    0    0  0.37490184146E-01 -0.15378319678E-01  0.11380826374E-01  0.42092647260E-01  0.51100000000E-03 0.  1.
</event>
<event>
 8    1  0.1993226E+004  0.1043930E+01  0.7957747E-01            NaN
         13   -1    0    0    0    0  0.00000000000E+00  0.00000000000E+00  0.74505805969E-08  0.10566000000E+00  0.10566000000E+00 0. -1.
     999900   -1    0    0    0    0 -0.00000000000E+00 -0.00000000000E+00 -0.74505805969E-08  0.93827000000E+00  0.93827000000E+00 0.  1.
     999902    2    1    2    0    0  0.79869156585E-02  0.86220820469E-02  0.54024910862E-02  0.10309948529E+01  0.10309137057E+01 0.  0.
     999903    2    3    3    0    0  0.13158155293E+00 -0.21802242571E-01  0.19981701782E-01  0.14171771540E+00  0.43538484131E-01 0.  0.
         14    1    1    2    0    0 -0.79869156585E-02 -0.86220820469E-02 -0.54024910862E-02  0.12935147100E-01  0.00000000000E+00 0.  1.
     999901    1    3    3    0    0 -0.12359463727E+00  0.30424324618E-01 -0.14579210696E-01  0.88927713750E+00  0.88000000000E+00 0. -1.
        -11    1    4    4    0    0  0.12288415917E+00 -0.22780061348E-01  0.58852089140E-02  0.12511732324E+00  0.51100000000E-03 0. -1.
         11    1    4    4    0    0  0.86973937605E-02  0.97781877728E-03  0.14096492868E-01  0.16600392163E-01  0.51100000000E-03 0.  1.
</event>
<event>
 8    1  0.1993226E+004  0.1043930E+01  0.7957747E-01            NaN
         13   -1    0    0    0    0  0.00000000000E+00  0.00000000000E+00  0.74505805969E-08  0.10566000000E+00  0.10566000000E+00 0.  1.
     999900   -1    0    0    0    0 -0.00000000000E+00 -0.00000000000E+00 -0.74505805969E-08  0.93827000000E+00  0.93827000000E+00 0.  1.
     999902    2    1    2    0    0  0.87143212519E-03 -0.61279874997E-02 -0.12585304512E-01  0.10299049683E+01  0.10298094689E+01 0.  0.
     999903    2    3    3    0    0  0.10023216070E+00 -0.15483182175E-01 -0.87193137782E-01  0.14112692916E+00  0.45032786849E-01 0.  0.
         14    1    1    2    0    0 -0.87143212519E-03  0.61279874997E-02  0.12585304512E-01  0.14025031708E-01  0.00000000000E+00 0.  1.
     999901    1    3    3    0    0 -0.99360728570E-01  0.93551946756E-02  0.74607833269E-01  0.88877803913E+00  0.88000000000E+00 0.  1.
        -11    1    4    4    0    0  0.23327174829E-01 -0.24102566186E-01 -0.24755343283E-01  0.41691473040E-01  0.51100000000E-03 0. -1.
         11    1    4    4    0    0  0.76904985866E-01  0.86193840102E-02 -0.62437794499E-01  0.99435456125E-01  0.51100000000E-03 0.  1.
</event>
<event>
 8    1  0.1993226E+004  0.1043930E+01  0.7957747E-01            NaN
         13   -1    0    0    0    0  0.00000000000E+00  0.00000000000E+00  0.74505805969E-08  0.10566000000E+00  0.10566000000E+00 0. -1.
     999900   -1    0    0    0    0 -0.00000000000E+00 -0.00000000000E+00 -0.74505805969E-08  0.93827000000E+00  0.93827000000E+00 0. -1.
     999902    2    1    2    0    0 -0.10100656652E-02  0.11549096075E-01  0.17488344648E-02  0.10322056546E+01  0.10321390668E+01 0.  0.
     999903    2    3    3    0    0 -0.42868771151E-01  0.70133473018E-01 -0.10888819455E+00  0.14236025645E+00  0.40661629652E-01 0.  0.
         14    1    1    2    0    0  0.10100656652E-02 -0.11549096075E-01 -0.17488344648E-02  0.11724345388E-01  0.00000000000E+00 0.  1.
     999901    1    3    3    0    0  0.41858705485E-01 -0.58584376943E-01  0.11063702901E+00  0.88984539817E+00  0.88000000000E+00 0.  1.
        -11    1    4    4    0    0 -0.27389686728E-01  0.67928699167E-01 -0.10121264276E+00  0.12493503626E+00  0.51100000000E-03 0. -1.
         11    1    4    4    0    0 -0.15479084423E-01  0.22047738510E-02 -0.76755517864E-02  0.17425220186E-01  0.51100000000E-03 0.  1.
</event>
<event>
 8    1  0.1993226E+004  0.1043930E+01  0.7957747E-01            NaN
         13   -1    0    0    0    0  0.00000000000E+00  0.00000000000E+00  0.74505805969E-08  0.10566000000E+00  0.10566000000E+00 0.  1.
     999900   -1    0    0    0    0 -0.00000000000E+00 -0.00000000000E+00 -0.74505805969E-08  0.93827000000E+00  0.93827000000E+00 0.  1.
     999902    2    1    2    0    0 -0.63034651703E-02  0.38203168459E-02 -0.16548805500E-01  0.10258139448E+01  0.10256539659E+01 0.  0.
     999903    2    3    3    0    0  0.15095631553E-01  0.80399255811E-01  0.97215428946E-01  0.13493541417E+00  0.45440157840E-01 0.  0.
         14    1    1    2    0    0  0.63034651703E-02 -0.38203168459E-02  0.16548805500E-01  0.18116055239E-01  0.00000000000E+00 0.  1.
     999901    1    3    3    0    0 -0.21399096723E-01 -0.76578938965E-01 -0.11376423445E+00  0.89087853059E+00  0.88000000000E+00 0.  1.
        -11    1    4    4    0    0  0.53323923264E-02  0.29263158155E-01  0.66677134523E-02  0.30487478689E-01  0.51100000000E-03 0.  1.
         11    1    4    4    0    0  0.97632392263E-02  0.51136097656E-01  0.90547715493E-01  0.10444793548E+00  0.51100000000E-03 0. -1.
</event>
<event>
 8    1  0.1993226E+004  0.1043930E+01  0.7957747E-01            NaN
         13   -1    0    0    0    0  0.00000000000E+00  0.00000000000E+00  0.74505805969E-08  0.10566000000E+00  0.10566000000E+00 0. -1.
     999900   -1    0    0    0    0 -0.00000000000E+00 -0.00000000000E+00 -0.74505805969E-08  0.93827000000E+00  0.93827000000E+00 0. -1.
     999902    2    1    2    0    0 -0.37675295888E-02 -0.12849813727E-01 -0.39225352837E-02  0.10299765676E+01  0.10298820474E+01 0.  0.
     999903    2    3    3    0    0 -0.10759157224E+00  0.19620310831E-01  0.73916300662E-01  0.13986835780E+00  0.46245378089E-01 0.  0.
         14    1    1    2    0    0  0.37675295888E-02  0.12849813727E-01  0.39225352837E-02  0.13953432376E-01  0.00000000000E+00 0. -1.
     999901    1    3    3    0    0  0.10382404265E+00 -0.32470124557E-01 -0.77838835946E-01  0.89010820983E+00  0.88000000000E+00 0. -1.
        -11    1    4    4    0    0 -0.26122377509E-01 -0.14446560714E-01  0.12846852269E-01  0.32502068510E-01  0.51100000000E-03 0.  1.
         11    1    4    4    0    0 -0.81469194732E-01  0.34066871544E-01  0.61069448393E-01  0.10736628929E+00  0.51100000000E-03 0. -1.
</event>
<event>
 8    1  0.1993226E+004  0.1043930E+01  0.7957747E-01            NaN
         13   -1    0    0    0    0  0.00000000000E+00  0.00000000000E+00  0.74505805969E-08  0.10566000000E+00  0.10566000000E+00 0.  1.
     999900   -1    0    0    0    0 -0.00000000000E+00 -0.00000000000E+00 -0.74505805969E-08  0.93827000000E+00  0.93827000000E+00 0.  1.
     999902    2    1    2    0    0 -0.12167238051E-01 -0.51143771767E-02 -0.43562227309E-02  0.10300312514E+01  0.10299374756E+01 0.  0.
     999903    2    3    3    0    0 -0.74991325373E-01 -0.63148181885E-01  0.90848913879E-01  0.14077380474E+00  0.44185373041E-01 0.  0.
         14    1    1    2    0    0  0.12167238051E-01  0.51143771767E-02  0.43562227309E-02  0.13898748583E-01  0.00000000000E+00 0.  1.
     999901    1    3    3    0    0  0.62824087322E-01  0.58033804708E-01 -0.95205136610E-01  0.88925744668E+00  0.88000000000E+00 0.  1.
        -11    1    4    4    0    0 -0.15167958240E-01 -0.23660680020E-02  0.36612123148E-01  0.39703575625E-01  0.51100000000E-03 0.  1.
         11    1    4    4    0    0 -0.59823367134E-01 -0.60782113883E-01  0.54236790731E-01  0.10107022911E+00  0.51100000000E-03 0. -1.
</event>
<event>
 8    1  0.1993226E+004  0.1043930E+01  0.7957747E-01            NaN
         13   -1    0    0    0    0  0.00000000000E+00  0.00000000000E+00  0.74505805969E-08  0.10566000000E+00  0.10566000000E+00 0. -1.
     999900   -1    0    0    0    0 -0.00000000000E+00 -0.00000000000E+00 -0.74505805969E-08  0.93827000000E+00  0.93827000000E+00 0.  1.
     999902    2    1    2    0    0 -0.38575609034E-02  0.70237007003E-02 -0.11618854335E-01  0.10298157900E+01  0.10297190638E+01 0.  0.
     999903    2    3    3    0    0 -0.10596841814E+00  0.32027255731E-01 -0.75340824053E-01  0.14127074649E+00  0.45012590379E-01 0.  0.
         14    1    1    2    0    0  0.38575609034E-02 -0.70237007003E-02  0.11618854335E-01  0.14114209992E-01  0.00000000000E+00 0. -1.
     999901    1    3    3    0    0  0.10211085724E+00 -0.25003555031E-01  0.63721969719E-01  0.88854504351E+00  0.88000000000E+00 0. -1.
        -11    1    4    4    0    0 -0.33551928198E-01  0.27365645075E-01 -0.11960413476E-01  0.44921298153E-01  0.51100000000E-03 0.  1.
         11    1    4    4    0    0 -0.72416489943E-01  0.46616106562E-02 -0.63380410577E-01  0.96349448340E-01  0.51100000000E-03 0. -1.
</event>
<event>
 8    1  0.1993226E+004  0.1043930E+01  0.7957747E-01            NaN
         13   -1    0    0    0    0  0.00000000000E+00  0.00000000000E+00  0.74505805969E-08  0.10566000000E+00  0.10566000000E+00 0. -1.
     999900   -1    0    0    0    0 -0.00000000000E+00 -0.00000000000E+00 -0.74505805969E-08  0.93827000000E+00  0.93827000000E+00 0. -1.
     999902    2    1    2    0    0  0.97508726492E-02  0.30483481799E-02  0.68742200935E-02  0.10316163147E+01  0.10315428221E+01 0.  0.
     999903    2    3    3    0    0  0.34856252802E-01 -0.58161969813E-01  0.11490550679E+00  0.14254503406E+00  0.50180057310E-01 0.  0.
         14    1    1    2    0    0 -0.97508726492E-02 -0.30483481799E-02 -0.68742200935E-02  0.12313685311E-01  0.00000000000E+00 0.  1.
     999901    1    3    3    0    0 -0.25105380152E-01  0.61210317993E-01 -0.10803128670E+00  0.88907128063E+00  0.88000000000E+00 0. -1.
        -11    1    4    4    0    0  0.35627747904E-01 -0.14486941909E-01  0.37825911728E-01  0.53946905617E-01  0.51100000000E-03 0. -1.
         11    1    4    4    0    0 -0.77149510256E-03 -0.43675027905E-01  0.77079595061E-01  0.88598128439E-01  0.51100000000E-03 0.  1.
</event>
<event>
 8    1  0.1993226E+004  0.1043930E+01  0.7957747E-01            NaN
         13   -1    0    0    0    0  0.00000000000E+00  0.00000000000E+00  0.74505805969E-08  0.10566000000E+00  0.10566000000E+00 0.  1.
     999900   -1    0    0    0    0 -0.00000000000E+00 -0.00000000000E+00 -0.74505805969E-08  0.93827000000E+00  0.93827000000E+00 0.  1.
     999902    2    1    2    0    0  0.43258940596E-02  0.47264300619E-02 -0.11553321229E-01  0.10307189542E+01  0.10306342856E+01 0.  0.
     999903    2    3    3    0    0  0.32433257448E-01  0.84424501769E-02  0.12711929533E+00  0.13940872352E+00  0.46392734286E-01 0.  0.
         14    1    1    2    0    0 -0.43258940596E-02 -0.47264300619E-02  0.11553321229E-01  0.13211045832E-01  0.00000000000E+00 0.  1.
     999901    1    3    3    0    0 -0.28107363388E-01 -0.37160201151E-02 -0.13867261656E+00  0.89131023065E+00  0.88000000000E+00 0.  1.
        -11    1    4    4    0    0  0.38897938447E-01 -0.69967777021E-02  0.10009906766E+00  0.10762011421E+00  0.51100000000E-03 0.  1.
         11    1    4    4    0    0 -0.64646809996E-02  0.15439227879E-01  0.27020227663E-01  0.31788609311E-01  0.51100000000E-03 0. -1.
</event>
<event>
 8    1  0.1993226E+004  0.1043930E+01  0.7957747E-01            NaN
         13   -1    0    0    0    0  0.00000000000E+00  0.00000000000E+00  0.74505805969E-08  0.10566000000E+00  0.10566000000E+00 0.  1.
     999900   -1    0    0    0    0 -0.00000000000E+00 -0.00000000000E+00 -0.74505805969E-08  0.93827000000E+00  0.93827000000E+00 0.  1.
     999902    2    1    2    0    0 -0.98410746545E-05  0.13085497378E-01  0.25572491573E-02  0.10305969635E+01  0.10305107138E+01 0.  0.
     999903    2    3    3    0    0 -0.13833210064E-01 -0.83469337082E-01  0.10245859702E+00  0.13958955564E+00  0.42766716124E-01 0.  0.
         14    1    1    2    0    0  0.98410746545E-05 -0.13085497378E-01 -0.25572491573E-02  0.13333036478E-01  0.00000000000E+00 0.  1.
     999901    1    3    3    0    0  0.13823368989E-01  0.96554834459E-01 -0.99901347864E-01  0.89100740788E+00  0.88000000000E+00 0.  1.
        -11    1    4    4    0    0 -0.10567864561E-01 -0.27762356802E-01  0.95455844903E-02  0.31205889202E-01  0.51100000000E-03 0.  1.
         11    1    4    4    0    0 -0.32653455022E-02 -0.55706980280E-01  0.92913012531E-01  0.10838366644E+00  0.51100000000E-03 0. -1.
</event>
<event>
 8    1  0.2344344E+004  0.1043930E+01  0.7957747E-01            NaN
         13   -1    0    0    0    0  0.00000000000E+00  0.00000000000E+00  0.74505805969E-08  0.10566000000E+00  0.10566000000E+00 0.  1.
     999900   -1    0    0    0    0 -0.00000000000E+00 -0.00000000000E+00 -0.74505805969E-08  0.93827000000E+00  0.93827000000E+00 0. -1.
     999902    2    1    2    0    0 -0.83233768949E-02 -0.45441135827E-02 -0.10642144413E-01  0.10296757793E+01  0.10295771110E+01 0.  0.
     999903    2    3    3    0    0  0.16641094520E-03 -0.12987975581E+00 -0.28860504357E-01  0.14056779462E+00  0.45360748582E-01 0.  0.
         14    1    1    2    0    0  0.83233768949E-02  0.45441135827E-02  0.10642144413E-01  0.14254220740E-01  0.00000000000E+00 0.  1.
     999901    1    3    3    0    0 -0.84897878401E-02  0.12533564222E+00  0.18218359945E-01  0.88910798464E+00  0.88000000000E+00 0.  1.
        -11    1    4    4    0    0 -0.36249974597E-02 -0.36749843480E-01  0.11949456935E-01  0.38816777872E-01  0.51100000000E-03 0.  1.
         11    1    4    4    0    0  0.37914084049E-02 -0.93129912327E-01 -0.40809961292E-01  0.10175101675E+00  0.51100000000E-03 0. -1.
</event>
<event>
 8    1  0.1993226E+004  0.1043930E+01  0.7957747E-01            NaN
         13   -1    0    0    0    0  0.00000000000E+00  0.00000000000E+00  0.74505805969E-08  0.10566000000E+00  0.10566000000E+00 0. -1.
     999900   -1    0    0    0    0 -0.00000000000E+00 -0.00000000000E+00 -0.74505805969E-08  0.93827000000E+00  0.93827000000E+00 0.  1.
     999902    2    1    2    0    0 -0.15111201849E-02 -0.37245019137E-03  0.13484930909E-01  0.10303555547E+01  0.10302661324E+01 0.  0.
     999903    2    3    3    0    0  0.97386546787E-01  0.28216160666E-01 -0.85467824741E-01  0.13884576505E+00  0.41147371593E-01 0.  0.
         14    1    1    2    0    0  0.15111201849E-02  0.37245019137E-03 -0.13484930909E-01  0.13574445292E-01  0.00000000000E+00 0.  1.
     999901    1    3    3    0    0 -0.98897666972E-01 -0.28588610858E-01  0.98952755650E-01  0.89150978966E+00  0.88000000000E+00 0. -1.
        -11    1    4    4    0    0  0.20972633819E-01  0.71198369322E-02 -0.44273921968E-01  0.49507421006E-01  0.51100000000E-03 0. -1.
         11    1    4    4    0    0  0.76413912968E-01  0.21096323734E-01 -0.41193902773E-01  0.89338344046E-01  0.51100000000E-03 0.  1.
</event>
<event>
 8    1  0.1993226E+004  0.1043930E+01  0.7957747E-01            NaN
         13   -1    0    0    0    0  0.00000000000E+00  0.00000000000E+00  0.74505805969E-08  0.10566000000E+00  0.10566000000E+00 0. -1.
     999900   -1    0    0    0    0 -0.00000000000E+00 -0.00000000000E+00 -0.74505805969E-08  0.93827000000E+00  0.93827000000E+00 0.  1.
     999902    2    1    2    0    0  0.82774835671E-02  0.25735744204E-01  0.58968740295E-03  0.10168894195E+01  0.10165298316E+01 0.  0.
     999903    2    3    3    0    0 -0.81398454366E-01  0.22291187307E-01  0.85616562763E-01  0.12824820484E+00  0.44663193125E-01 0.  0.
         14    1    1    2    0    0 -0.82774835671E-02 -0.25735744204E-01 -0.58968740295E-03  0.27040580526E-01  0.00000000000E+00 0. -1.
     999901    1    3    3    0    0  0.89675937933E-01  0.34445568970E-02 -0.85026875360E-01  0.88864121464E+00  0.88000000000E+00 0.  1.
        -11    1    4    4    0    0 -0.18096804529E-01  0.79048474476E-02 -0.12616069440E-02  0.19794790234E-01  0.51100000000E-03 0.  1.
         11    1    4    4    0    0 -0.63301649836E-01  0.14386339860E-01  0.86878169707E-01  0.10845341460E+00  0.51100000000E-03 0. -1.
</event>
<event>
 8    1  0.1993226E+004  0.1043930E+01  0.7957747E-01            NaN
         13   -1    0    0    0    0  0.00000000000E+00  0.00000000000E+00  0.74505805969E-08  0.10566000000E+00  0.10566000000E+00 0.  1.
     999900   -1    0    0    0    0 -0.00000000000E+00 -0.00000000000E+00 -0.74505805969E-08  0.93827000000E+00  0.93827000000E+00 0. -1.
     999902    2    1    2    0    0 -0.13234357703E-01  0.27372140411E-02 -0.99818708709E-03  0.10303787291E+01  0.10302896139E+01 0.  0.
     999903    2    3    3    0    0  0.51206665749E-01  0.73834976741E-01  0.96919088995E-01  0.13976358761E+00  0.45462338284E-01 0.  0.
         14    1    1    2    0    0  0.13234357703E-01 -0.27372140411E-02  0.99818708709E-03  0.13551270862E-01  0.00000000000E+00 0.  1.
     999901    1    3    3    0    0 -0.64441023452E-01 -0.71097762700E-01 -0.97917276082E-01  0.89061514153E+00  0.88000000000E+00 0.  1.
        -11    1    4    4    0    0  0.21650591849E-01  0.19901162463E-01  0.62998860738E-01  0.69526412032E-01  0.51100000000E-03 0. -1.
         11    1    4    4    0    0  0.29556073900E-01  0.53933814279E-01  0.33920228257E-01  0.70237175577E-01  0.51100000000E-03 0.  1.
</event>
<event>
 8    1  0.2214733E+004  0.1043930E+01  0.7957747E-01            NaN
         13   -1    0    0    0    0  0.00000000000E+00  0.00000000000E+00  0.74505805969E-08  0.10566000000E+00  0.10566000000E+00 0. -1.
     999900   -1    0    0    0    0 -0.00000000000E+00 -0.00000000000E+00 -0.74505805969E-08  0.93827000000E+00  0.93827000000E+00 0.  1.
     999902    2    1    2    0    0  0.14544436936E-01 -0.87930096835E-02 -0.26890793424E-02  0.10267227686E+01  0.10265785672E+01 0.  0.
     999903    2    3    3    0    0  0.16835838155E-01  0.22715201468E-01  0.12623043022E+00  0.13676869234E+00  0.44408646312E-01 0.  0.
         14    1    1    2    0    0 -0.14544436936E-01  0.87930096835E-02  0.26890793424E-02  0.17207231409E-01  0.00000000000E+00 0. -1.
     999901    1    3    3    0    0 -0.22914012193E-02 -0.31508211152E-01 -0.12891950956E+00  0.88995407625E+00  0.88000000000E+00 0.  1.
        -11    1    4    4    0    0  0.19992558862E-01 -0.80508110509E-02  0.46750431827E-01  0.51481860547E-01  0.51100000000E-03 0.  1.
         11    1    4    4    0    0 -0.31567207070E-02  0.30766012519E-01  0.79479998391E-01  0.85286831793E-01  0.51100000000E-03 0. -1.
</event>
<event>
 8    1  0.1993226E+004  0.1043930E+01  0.7957747E-01            NaN
         13   -1    0    0    0    0  0.00000000000E+00  0.00000000000E+00  0.74505805969E-08  0.10566000000E+00  0.10566000000E+00 0. -1.
     999900   -1    0    0    0    0 -0.00000000000E+00 -0.00000000000E+00 -0.74505805969E-08  0.93827000000E+00  0.93827000000E+00 0.  1.
     999902    2    1    2    0    0 -0.99476547898E-02 -0.46812809716E-02 -0.56364925352E-02  0.10315752327E+01  0.10315012460E+01 0.  0.
     999903    2    3    3    0    0 -0.79802679799E-01 -0.37740346394E-01  0.10135236501E+00  0.14173297590E+00  0.44979252051E-01 0.  0.
         14    1    1    2    0    0  0.99476547898E-02  0.46812809716E-02  0.56364925352E-02  0.12354767317E-01  0.00000000000E+00 0.  1.
     999901    1    3    3    0    0  0.69855025009E-01  0.33059065422E-01 -0.10698885754E+00  0.88984225679E+00  0.88000000000E+00 0. -1.
        -11    1    4    4    0    0 -0.82882773251E-01 -0.40409351260E-01  0.86890875051E-01  0.12669946748E+00  0.51100000000E-03 0. -1.
         11    1    4    4    0    0  0.30800934522E-02  0.26690048659E-02  0.14461489955E-01  0.15033508418E-01  0.51100000000E-03 0.  1.
</event>
<event>
 8    1  0.1993226E+004  0.1043930E+01  0.7957747E-01            NaN
         13   -1    0    0    0    0  0.00000000000E+00  0.00000000000E+00  0.74505805969E-08  0.10566000000E+00  0.10566000000E+00 0.  1.
     999900   -1    0    0    0    0 -0.00000000000E+00 -0.00000000000E+00 -0.74505805969E-08  0.93827000000E+00  0.93827000000E+00 0. -1.
     999902    2    1    2    0    0  0.83566433668E-02  0.73663546688E-02 -0.88501338722E-02  0.10297025076E+01  0.10296042117E+01 0.  0.
     999903    2    3    3    0    0  0.70445107357E-01  0.76366514371E-01 -0.85111856748E-01  0.14154044485E+00  0.44668912013E-01 0.  0.
         14    1    1    2    0    0 -0.83566433668E-02 -0.73663546688E-02  0.88501338722E-02  0.14227492366E-01  0.00000000000E+00 0.  1.
     999901    1    3    3    0    0 -0.62088463990E-01 -0.69000159702E-01  0.76261722876E-01  0.88816206279E+00  0.88000000000E+00 0. -1.
        -11    1    4    4    0    0  0.63423093258E-01  0.58370247975E-01 -0.45504937809E-01  0.97470688378E-01  0.51100000000E-03 0.  1.
         11    1    4    4    0    0  0.70220140987E-02  0.17996266397E-01 -0.39606918940E-01  0.44069756468E-01  0.51100000000E-03 0. -1.
</event>
<event>
 8    1  0.1993226E+004  0.1043930E+01  0.7957747E-01            NaN
         13   -1    0    0    0    0  0.00000000000E+00  0.00000000000E+00  0.74505805969E-08  0.10566000000E+00  0.10566000000E+00 0.  1.
     999900   -1    0    0    0    0 -0.00000000000E+00 -0.00000000000E+00 -0.74505805969E-08  0.93827000000E+00  0.93827000000E+00 0. -1.
     999902    2    1    2    0    0 -0.11880001862E-01  0.68920754370E-02  0.40589402438E-02  0.10296083331E+01  0.10295087223E+01 0.  0.
     999903    2    3    3    0    0 -0.14964819728E-01  0.13225378355E+00  0.72151415956E-02  0.14071293113E+00  0.45089484668E-01 0.  0.
         14    1    1    2    0    0  0.11880001862E-01 -0.68920754370E-02 -0.40589402438E-02  0.14321666942E-01  0.00000000000E+00 0.  1.
     999901    1    3    3    0    0  0.30848178656E-02 -0.12536170811E+00 -0.31562013518E-02  0.88889540193E+00  0.88000000000E+00 0. -1.
        -11    1    4    4    0    0 -0.30267699021E-01  0.96773066998E-01 -0.23280655990E-04  0.10139734594E+00  0.51100000000E-03 0. -1.
         11    1    4    4    0    0  0.15302879293E-01  0.35480716548E-01  0.72384222516E-02  0.39315585193E-01  0.51100000000E-03 0.  1.
</event>
<event>
 8    1  0.1993226E+004  0.1043930E+01  0.7957747E-01            NaN
         13   -1    0    0    0    0  0.00000000000E+00  0.00000000000E+00  0.74505805969E-08  0.10566000000E+00  0.10566000000E+00 0.  1.
     999900   -1    0    0    0    0 -0.00000000000E+00 -0.00000000000E+00 -0.74505805969E-08  0.93827000000E+00  0.93827000000E+00 0.  1.
     999902    2    1    2    0    0 -0.17670371801E-01  0.40309859946E-02 -0.69103100438E-02  0.10245330087E+01  0.10243493753E+01 0.  0.
     999903    2    3    3    0    0 -0.89138780745E-01  0.55494989414E-01 -0.75628523566E-01  0.13747130282E+00  0.46403334349E-01 0.  0.
         14    1    1    2    0    0  0.17670371801E-01 -0.40309859946E-02  0.69103100438E-02  0.19396991328E-01  0.00000000000E+00 0.  1.
     999901    1    3    3    0    0  0.71468408944E-01 -0.51464003419E-01  0.68718213523E-01  0.88706170586E+00  0.88000000000E+00 0. -1.
        -11    1    4    4    0    0 -0.66103857292E-01  0.26493951961E-01 -0.26596553068E-01  0.76021623210E-01  0.51100000000E-03 0. -1.
         11    1    4    4    0    0 -0.23034923453E-01  0.29001037452E-01 -0.49031970499E-01  0.61449679607E-01  0.51100000000E-03 0.  1.
</event>
<event>
 8    1  0.1993226E+004  0.1043930E+01  0.7957747E-01            NaN
         13   -1    0    0    0    0  0.00000000000E+00  0.00000000000E+00  0.74505805969E-08  0.10566000000E+00  0.10566000000E+00 0. -1.
     999900   -1    0    0    0    0 -0.00000000000E+00 -0.00000000000E+00 -0.74505805969E-08  0.93827000000E+00  0.93827000000E+00 0. -1.
     999902    2    1    2    0    0 -0.10777920095E-02 -0.12221084882E-01  0.50674853461E-02  0.10306561174E+01  0.10305706363E+01 0.  0.
     999903    2    3    3    0    0  0.51897066366E-01 -0.35483687033E-01  0.11835981689E+00  0.14150897736E+00  0.45424078134E-01 0.  0.
         14    1    1    2    0    0  0.10777920095E-02  0.12221084882E-01 -0.50674853461E-02  0.13273882591E-01  0.00000000000E+00 0.  1.
     999901    1    3    3    0    0 -0.52974858376E-01  0.23262602151E-01 -0.11329233155E+00  0.88914714005E+00  0.88000000000E+00 0. -1.
        -11    1    4    4    0    0  0.10504196508E-01 -0.44373130420E-02  0.69200892055E-01  0.70135957066E-01  0.51100000000E-03 0. -1.
         11    1    4    4    0    0  0.41392869858E-01 -0.31046373991E-01  0.49158924838E-01  0.71373020290E-01  0.51100000000E-03 0.  1.
</event>
<event>
 8    1  0.1993226E+004  0.1043930E+01  0.7957747E-01            NaN
         13   -1    0    0    0    0  0.00000000000E+00  0.00000000000E+00  0.74505805969E-08  0.10566000000E+00  0.10566000000E+00 0.  1.
     999900   -1    0    0    0    0 -0.00000000000E+00 -0.00000000000E+00 -0.74505805969E-08  0.93827000000E+00  0.93827000000E+00 0. -1.
     999902    2    1    2    0    0  0.88684214630E-02 -0.90046582969E-02 -0.51161957050E-02  0.10302951832E+01  0.10302049584E+01 0.  0.
     999903    2    3    3    0    0  0.11868216412E+00 -0.84603459671E-02 -0.62115494903E-01  0.14163986507E+00  0.45238071748E-01 0.  0.
         14    1    1    2    0    0 -0.88684214630E-02  0.90046582969E-02  0.51161957050E-02  0.13634816786E-01  0.00000000000E+00 0.  1.
     999901    1    3    3    0    0 -0.10981374266E+00 -0.54431232984E-03  0.56999299198E-01  0.88865531814E+00  0.88000000000E+00 0. -1.
        -11    1    4    4    0    0  0.76582539005E-01 -0.14730070772E-01 -0.61080433302E-01  0.99060288303E-01  0.51100000000E-03 0. -1.
         11    1    4    4    0    0  0.42099625119E-01  0.62697248048E-02 -0.10350616016E-02  0.42579576769E-01  0.51100000000E-03 0.  1.
</event>
<event>
 7    1  0.1993226E+004  0.1043930E+01  0.7957747E-01            NaN
         13   -1    0    0    0    0  0.00000000000E+00  0.00000000000E+00  0.74505805969E-08  0.10566000000E+00  0.10566000000E+00 0.  1.
     999900   -1    0    0    0    0 -0.00000000000E+00 -0.00000000000E+00 -0.74505805969E-08  0.93827000000E+00  0.93827000000E+00 0.  1.
     999903    2    1    2    0    0 -0.17123963406E-01  0.26374664327E-01  0.11225025811E+00  0.12503168086E+00  0.45210040187E-01 0.  0.
         14    1    1    2    0    0 -0.20279668641E-01 -0.55689319095E-02 -0.26301616819E-01  0.33675703557E-01  0.00000000000E+00 0. -1.
     999901    1    1    2    0    0  0.37403632047E-01 -0.20805732417E-01 -0.85948641288E-01  0.88522261558E+00  0.88000000000E+00 0.  1.
        -11    1    3    3    0    0 -0.36302697772E-02  0.19526196951E-01  0.11106754362E-01  0.22761202505E-01  0.51100000000E-03 0.  1.
         11    1    3    3    0    0 -0.13493693629E-01  0.68484673757E-02  0.10114350374E+00  0.10227047836E+00  0.51100000000E-03 0. -1.
</event>
<event>
 8    1  0.1993226E+004  0.1043930E+01  0.7957747E-01            NaN
         13   -1    0    0    0    0  0.00000000000E+00  0.00000000000E+00  0.74505805969E-08  0.10566000000E+00  0.10566000000E+00 0. -1.
     999900   -1    0    0    0    0 -0.00000000000E+00 -0.00000000000E+00 -0.74505805969E-08  0.93827000000E+00  0.93827000000E+00 0. -1.
     999902    2    1    2    0    0  0.46352808609E-02 -0.88165373759E-02 -0.73759274881E-03  0.10339419470E+01  0.10338937027E+01 0.  0.
     999903    2    3    3    0    0 -0.88497918305E-01 -0.94518411605E-01 -0.43726684541E-01  0.14384831930E+00  0.44885458088E-01 0.  0.
         14    1    1    2    0    0 -0.46352808609E-02  0.88165373759E-02  0.73759274881E-03  0.99880530146E-02  0.00000000000E+00 0.  1.
     999901    1    3    3    0    0  0.93133199166E-01  0.85701874229E-01  0.42989091792E-01  0.89009362769E+00  0.88000000000E+00 0.  1.
        -11    1    4    4    0    0 -0.17156831359E-01 -0.27771975838E-01 -0.31537470596E-01  0.45392870330E-01  0.51100000000E-03 0. -1.
         11    1    4    4    0    0 -0.71341086946E-01 -0.66746435767E-01 -0.12189213946E-01  0.98455448969E-01  0.51100000000E-03 0.  1.
</event>
<event>
 8    1  0.1993226E+004  0.1043930E+01  0.7957747E-01            NaN
         13   -1    0    0    0    0  0.00000000000E+00  0.00000000000E+00  0.74505805969E-08  0.10566000000E+00  0.10566000000E+00 0. -1.
     999900   -1    0    0    0    0 -0.00000000000E+00 -0.00000000000E+00 -0.74505805969E-08  0.93827000000E+00  0.93827000000E+00 0. -1.
     999902    2    1    2    0    0 -0.27650577696E-02 -0.13392665759E-01  0.26938280331E-02  0.10299920751E+01  0.10298977663E+01 0.  0.
     999903    2    3    3    0    0  0.27592627440E-02 -0.12616117427E+00  0.47371574137E-01  0.14165466420E+00  0.43562856077E-01 0.  0.
         14    1    1    2    0    0  0.27650577696E-02  0.13392665759E-01 -0.26938280331E-02  0.13937924884E-01  0.00000000000E+00 0.  1.
     999901    1    3    3    0    0 -0.55243205136E-02  0.11276850851E+00 -0.44677746104E-01  0.88833741091E+00  0.88000000000E+00 0.  1.
        -11    1    4    4    0    0 -0.60867537247E-02 -0.49854341720E-01  0.40512890453E-01  0.64529523267E-01  0.51100000000E-03 0.  1.
         11    1    4    4    0    0  0.88460164687E-02 -0.76306832553E-01  0.68586836850E-02  0.77125140937E-01  0.51100000000E-03 0. -1.
</event>
<event>
 7    1  0.1993226E+004  0.1043930E+01  0.7957747E-01            NaN
         13   -1    0    0    0    0  0.00000000000E+00  0.00000000000E+00  0.74505805969E-08  0.10566000000E+00  0.10566000000E+00 0. -1.
     999900   -1    0    0    0    0 -0.00000000000E+00 -0.00000000000E+00 -0.74505805969E-08  0.93827000000E+00  0.93827000000E+00 0. -1.
     999903    2    1    2    0    0 -0.22180784043E-01 -0.33747512189E-01 -0.96717537381E-01  0.11391792026E+00  0.44633269661E-01 0.  0.
         14    1    1    2    0    0 -0.29406387250E-01  0.10023097467E-01  0.33847193924E-01  0.45943776842E-01  0.00000000000E+00 0. -1.
     999901    1    1    2    0    0  0.51587171293E-01  0.23724414722E-01  0.62870343457E-01  0.88406830289E+00  0.88000000000E+00 0.  1.
        -11    1    3    3    0    0  0.10597023815E-01 -0.10133890624E-01 -0.50225079955E-01  0.52324109457E-01  0.51100000000E-03 0.  1.
         11    1    3    3    0    0 -0.32777807857E-01 -0.23613621565E-01 -0.46492457425E-01  0.61593810808E-01  0.51100000000E-03 0. -1.
</event>
<event>
 8    1  0.1993226E+004  0.1043930E+01  0.7957747E-01            NaN
         13   -1    0    0    0    0  0.00000000000E+00  0.00000000000E+00  0.74505805969E-08  0.10566000000E+00  0.10566000000E+00 0. -1.
     999900   -1    0    0    0    0 -0.00000000000E+00 -0.00000000000E+00 -0.74505805969E-08  0.93827000000E+00  0.93827000000E+00 0. -1.
     999902    2    1    2    0    0 -0.67659702428E-03 -0.15377259375E-01  0.88493112413E-03  0.10285124453E+01  0.10283968831E+01 0.  0.
     999903    2    3    3    0    0 -0.85697831123E-01  0.45372916732E-01  0.88800850647E-01  0.13797979400E+00  0.41833152470E-01 0.  0.
         14    1    1    2    0    0  0.67659702428E-03  0.15377259375E-01 -0.88493112413E-03  0.15417554686E-01  0.00000000000E+00 0.  1.
     999901    1    3    3    0    0  0.85021234098E-01 -0.60750176106E-01 -0.87915919523E-01  0.89053265131E+00  0.88000000000E+00 0.  1.
        -11    1    4    4    0    0 -0.66159277626E-01  0.52754409748E-01  0.68829049800E-01  0.10907693148E+00  0.51100000000E-03 0.  1.
         11    1    4    4    0    0 -0.19538553497E-01 -0.73814930166E-02  0.19971800847E-01  0.28902862522E-01  0.51100000000E-03 0. -1.
</event>
<event>
 8    1  0.1993226E+004  0.1043930E+01  0.7957747E-01            NaN
         13   -1    0    0    0    0  0.00000000000E+00  0.00000000000E+00  0.74505805969E-08  0.10566000000E+00  0.10566000000E+00 0.  1.
     999900   -1    0    0    0    0 -0.00000000000E+00 -0.00000000000E+00 -0.74505805969E-08  0.93827000000E+00  0.93827000000E+00 0.  1.
     999902    2    1    2    0    0  0.30612164690E-02  0.13374820157E-01 -0.47364783142E-02  0.10294147981E+01  0.10293124576E+01 0.  0.
     999903    2    3    3    0    0 -0.75009274431E-02 -0.91350562549E-01  0.92741626410E-01  0.13779775831E+00  0.44564826227E-01 0.  0.
         14    1    1    2    0    0 -0.30612164690E-02 -0.13374820157E-01  0.47364783142E-02  0.14515201939E-01  0.00000000000E+00 0.  1.
     999901    1    3    3    0    0  0.10562143912E-01  0.10472538271E+00 -0.97478104724E-01  0.89161703975E+00  0.88000000000E+00 0.  1.
        -11    1    4    4    0    0  0.11861450127E-01 -0.73101645752E-02  0.22947308411E-01  0.26850932750E-01  0.51100000000E-03 0.  1.
         11    1    4    4    0    0 -0.19362377570E-01 -0.84040397974E-01  0.69794318000E-01  0.11094682556E+00  0.51100000000E-03 0. -1.
</event>
<event>
 8    1  0.1993226E+004  0.1043930E+01  0.7957747E-01            NaN
         13   -1    0    0    0    0  0.00000000000E+00  0.00000000000E+00  0.74505805969E-08  0.10566000000E+00  0.10566000000E+00 0.  1.
     999900   -1    0    0    0    0 -0.00000000000E+00 -0.00000000000E+00 -0.74505805969E-08  0.93827000000E+00  0.93827000000E+00 0.  1.
     999902    2    1    2    0    0  0.97286715720E-02  0.65202829019E-04 -0.14316630347E-01  0.10266205457E+01  0.10264746114E+01 0.  0.
     999903    2    3    3    0    0 -0.85365764110E-01  0.75658320549E-01 -0.61512448154E-01  0.13702248125E+00  0.44495886769E-01 0.  0.
         14    1    1    2    0    0 -0.97286715720E-02 -0.65202829019E-04  0.14316630347E-01  0.17309454251E-01  0.00000000000E+00 0.  1.
     999901    1    3    3    0    0  0.95094435682E-01 -0.75593117720E-01  0.47195817807E-01  0.88959806450E+00  0.88000000000E+00 0. -1.
        -11    1    4    4    0    0 -0.93853454433E-02  0.28776519273E-01 -0.33279887713E-02  0.30455039006E-01  0.51100000000E-03 0. -1.
         11    1    4    4    0    0 -0.75980418667E-01  0.46881801275E-01 -0.58184459383E-01  0.10656744224E+00  0.51100000000E-03 0.  1.
</event>
<event>
 8    1  0.1993226E+004  0.1043930E+01  0.7957747E-01            NaN
         13   -1    0    0    0    0  0.00000000000E+00  0.00000000000E+00  0.74505805969E-08  0.10566000000E+00  0.10566000000E+00 0.  1.
     999900   -1    0    0    0    0 -0.00000000000E+00 -0.00000000000E+00 -0.74505805969E-08  0.93827000000E+00  0.93827000000E+00 0.  1.
     999902    2    1    2    0    0 -0.79763110969E-02 -0.56061077861E-02  0.10061839276E-01  0.10299196255E+01  0.10298243270E+01 0.  0.
     999903    2    3    3    0    0  0.73122944427E-01 -0.41751227252E-01 -0.10038498199E+00  0.13858239460E+00  0.45142059167E-01 0.  0.
         14    1    1    2    0    0  0.79763110969E-02  0.56061077861E-02 -0.10061839276E-01  0.14010374472E-01  0.00000000000E+00 0.  1.
     999901    1    3    3    0    0 -0.81099255524E-01  0.36145119466E-01  0.11044682127E+00  0.89133723093E+00  0.88000000000E+00 0.  1.
        -11    1    4    4    0    0  0.58792437978E-01 -0.42594952395E-01 -0.55300631475E-01  0.91265008056E-01  0.51100000000E-03 0. -1.
         11    1    4    4    0    0  0.14330506449E-01  0.84372514358E-03 -0.45084350515E-01  0.47317386546E-01  0.51100000000E-03 0.  1.
</event>
<event>
 8    1  0.1993226E+004  0.1043930E+01  0.7957747E-01            NaN
         13   -1    0    0    0    0  0.00000000000E+00  0.00000000000E+00  0.74505805969E-08  0.10566000000E+00  0.10566000000E+00 0. -1.
     999900   -1    0    0    0    0 -0.00000000000E+00 -0.00000000000E+00 -0.74505805969E-08  0.93827000000E+00  0.93827000000E+00 0.  1.
     999902    2    1    2    0    0 -0.69735501514E-02 -0.11012688973E-01 -0.38455762479E-02  0.10303396293E+01  0.10302499956E+01 0.  0.
     999903    2    3    3    0    0 -0.12755817908E+00  0.15338467287E-01 -0.37162429524E-01  0.14110116356E+00  0.44968150520E-01 0.  0.
         14    1    1    2    0    0  0.69735501514E-02  0.11012688973E-01  0.38455762479E-02  0.13590370739E-01  0.00000000000E+00 0. -1.
     999901    1    3    3    0    0  0.12058462893E+00 -0.26351156260E-01  0.33316853277E-01  0.88923846570E+00  0.88000000000E+00 0.  1.
        -11    1    4    4    0    0 -0.87593869723E-01 -0.95648111047E-02 -0.31918690446E-01  0.93718917755E-01  0.51100000000E-03 0. -1.
         11    1    4    4    0    0 -0.39964309357E-01  0.24903278391E-01 -0.52437390783E-02  0.47382245805E-01  0.51100000000E-03 0.  1.
</event>
<event>
 7    1  0.1993226E+004  0.1043930E+01  0.7957747E-01            NaN
         13   -1    0    0    0    0  0.00000000000E+00  0.00000000000E+00  0.74505805969E-08  0.10566000000E+00  0.10566000000E+00 0.  1.
     999900   -1    0    0    0    0 -0.00000000000E+00 -0.00000000000E+00 -0.74505805969E-08  0.93827000000E+00  0.93827000000E+00 0. -1.
     999902    2    1    2    0    0 -0.75352958640E-02 -0.35092566249E-02 -0.14484242023E-01  0.10272300349E+01  0.10270942780E+01 0.  0.
         14    1    1    2    0    0  0.75352958640E-02  0.35092566249E-02  0.14484242023E-01  0.16699965054E-01  0.00000000000E+00 0.  1.
     999901    1    3    3    0    0  0.86433178176E-01  0.82472304029E-01  0.35361298105E-01  0.88877601038E+00  0.88000000000E+00 0. -1.
        -11    1    3    3    0    0 -0.33208614528E-01 -0.27465839235E-01 -0.64132286030E-02  0.43572640796E-01  0.51100000000E-03 0. -1.
         11    1    3    3    0    0 -0.60759859511E-01 -0.58515721419E-01 -0.43432311525E-01  0.94881383772E-01  0.51100000000E-03 0.  1.
</event>
<event>
 8    1  0.1993226E+004  0.1043930E+01  0.7957747E-01            NaN
         13   -1    0    0    0    0  0.00000000000E+00  0.00000000000E+00  0.74505805969E-08  0.10566000000E+00  0.10566000000E+00 0. -1.
     999900   -1    0    0    0    0 -0.00000000000E+00 -0.00000000000E+00 -0.74505805969E-08  0.93827000000E+00  0.93827000000E+00 0.  1.
     999902    2    1    2    0    0  0.11117575881E-01 -0.15854720454E-02 -0.63432533844E-02  0.10310322840E+01  0.10309516087E+01 0.  0.
     999903    2    3    3    0    0  0.13070065268E+00 -0.34028563930E-01 -0.11472657178E-02  0.14233679915E+00  0.44920422978E-01 0.  0.
         14    1    1    2    0    0 -0.11117575881E-01  0.15854720454E-02  0.63432533844E-02  0.12897716022E-01  0.00000000000E+00 0. -1.
     999901    1    3    3    0    0 -0.11958307680E+00  0.32443091885E-01 -0.51959876666E-02  0.88869548483E+00  0.88000000000E+00 0.  1.
        -11    1    4    4    0    0  0.28643158224E-01 -0.24819201782E-01  0.10159239597E-01  0.39241490292E-01  0.51100000000E-03 0. -1.
         11    1    4    4    0    0  0.10205749445E+00 -0.92093621475E-02 -0.11306505315E-01  0.10309530886E+00  0.51100000000E-03 0.  1.
</event>
<event>
 8    1  0.1993226E+004  0.1043930E+01  0.7957747E-01            NaN
         13   -1    0    0    0    0  0.00000000000E+00  0.00000000000E+00  0.74505805969E-08  0.10566000000E+00  0.10566000000E+00 0. -1.
     999900   -1    0    0    0    0 -0.00000000000E+00 -0.00000000000E+00 -0.74505805969E-08  0.93827000000E+00  0.93827000000E+00 0. -1.
     999902    2    1    2    0    0 -0.12718263671E-02  0.13677267601E-01 -0.28023009496E-02  0.10299107960E+01  0.10298153764E+01 0.  0.
     999903    2    3    3    0    0 -0.71456132979E-01 -0.10819996199E+00 -0.19567529534E-01  0.13858539585E+00  0.44830938147E-01 0.  0.
         14    1    1    2    0    0  0.12718263671E-02 -0.13677267601E-01  0.28023009496E-02  0.14019204041E-01  0.00000000000E+00 0. -1.
     999901    1    3    3    0    0  0.70184306612E-01  0.12187722960E+00  0.16765228584E-01  0.89132540011E+00  0.88000000000E+00 0.  1.
        -11    1    4    4    0    0 -0.24184245664E-01 -0.65034000251E-02 -0.37572241831E-02  0.25328833467E-01  0.51100000000E-03 0. -1.
         11    1    4    4    0    0 -0.47271887315E-01 -0.10169656197E+00 -0.15810305351E-01  0.11325656238E+00  0.51100000000E-03 0.  1.
</event>
<event>
 8    1  0.1993226E+004  0.1043930E+01  0.7957747E-01            NaN
         13   -1    0    0    0    0  0.00000000000E+00  0.00000000000E+00  0.74505805969E-08  0.10566000000E+00  0.10566000000E+00 0.  1.
     999900   -1    0    0    0    0 -0.00000000000E+00 -0.00000000000E+00 -0.74505805969E-08  0.93827000000E+00  0.93827000000E+00 0. -1.
     999902    2    1    2    0    0  0.10472587719E-01  0.10985348883E-01  0.77118911971E-03  0.10287330360E+01  0.10286207812E+01 0.  0.
     999903    2    3    3    0    0 -0.69268694399E-01 -0.35772968970E-01  0.10469461723E+00  0.13780930674E+00  0.44188061903E-01 0.  0.
         14    1    1    2    0    0 -0.10472587719E-01 -0.10985348883E-01 -0.77118911971E-03  0.15196964048E-01  0.00000000000E+00 0. -1.
     999901    1    3    3    0    0  0.79741282118E-01  0.46758317853E-01 -0.10392342811E+00  0.89092372921E+00  0.88000000000E+00 0. -1.
        -11    1    4    4    0    0 -0.38157780647E-01 -0.20727059301E-01  0.90626198647E-01  0.10049376206E+00  0.51100000000E-03 0.  1.
         11    1    4    4    0    0 -0.31110913752E-01 -0.15045909669E-01  0.14068418583E-01  0.37315544679E-01  0.51100000000E-03 0. -1.
</event>
<event>
 8    1  0.1993226E+004  0.1043930E+01  0.7957747E-01            NaN
         13   -1    0    0    0    0  0.00000000000E+00  0.00000000000E+00  0.74505805969E-08  0.10566000000E+00  0.10566000000E+00 0.  1.
     999900   -1    0    0    0    0 -0.00000000000E+00 -0.00000000000E+00 -0.74505805969E-08  0.93827000000E+00  0.93827000000E+00 0.  1.
     999902    2    1    2    0    0  0.10216760896E-02  0.18074300736E-01 -0.46897124005E-02  0.10252292628E+01  0.10250586928E+01 0.  0.
     999903    2    3    3    0    0 -0.10338417514E+00 -0.43620298413E-01  0.60954387425E-01  0.13449027007E+00  0.42203996191E-01 0.  0.
         14    1    1    2    0    0 -0.10216760896E-02 -0.18074300736E-01  0.46897124005E-02  0.18700737193E-01  0.00000000000E+00 0.  1.
     999901    1    3    3    0    0  0.10440585123E+00  0.61694599149E-01 -0.65644099826E-01  0.89073899273E+00  0.88000000000E+00 0.  1.
        -11    1    4    4    0    0 -0.54633183021E-01 -0.44109325198E-01  0.27759655081E-01  0.75506799877E-01  0.51100000000E-03 0.  1.
         11    1    4    4    0    0 -0.48750992121E-01  0.48902678506E-03  0.33194732344E-01  0.58983470196E-01  0.51100000000E-03 0. -1.
</event>
<event>
 8    1  0.1993226E+004  0.1043930E+01  0.7957747E-01            NaN
         13   -1    0    0    0    0  0.00000000000E+00  0.00000000000E+00  0.74505805969E-08  0.10566000000E+00  0.10566000000E+00 0.  1.
     999900   -1    0    0    0    0 -0.00000000000E+00 -0.00000000000E+00 -0.74505805969E-08  0.93827000000E+00  0.93827000000E+00 0. -1.
     999902    2    1    2    0    0 -0.28313951571E-02 -0.84661993710E-02  0.96806002599E-02  0.10307615775E+01  0.10306774579E+01 0.  0.
     999903    2    3    3    0    0  0.10328346185E+00 -0.40981452876E-01  0.74721895684E-01  0.14140901820E+00  0.45455426085E-01 0.  0.
         14    1    1    2    0    0  0.28313951571E-02  0.84661993710E-02 -0.96806002599E-02  0.13168422522E-01  0.00000000000E+00 0. -1.
     999901    1    3    3    0    0 -0.10611485701E+00  0.32515253505E-01 -0.65041295424E-01  0.88935255928E+00  0.88000000000E+00 0. -1.
        -11    1    4    4    0    0  0.58152264566E-01 -0.32860825390E-01  0.67539081038E-01  0.94991095940E-01  0.51100000000E-03 0. -1.
         11    1    4    4    0    0  0.45131197288E-01 -0.81206274862E-02  0.71828146458E-02  0.46417922257E-01  0.51100000000E-03 0.  1.
</event>
<event>
 8    1  0.1993226E+004  0.1043930E+01  0.7957747E-01            NaN
         13   -1    0    0    0    0  0.00000000000E+00  0.00000000000E+00  0.74505805969E-08  0.10566000000E+00  0.10566000000E+00 0. -1.
     999900   -1    0    0    0    0 -0.00000000000E+00 -0.00000000000E+00 -0.74505805969E-08  0.93827000000E+00  0.93827000000E+00 0.  1.
     999902    2    1    2    0    0 -0.51800179637E-02  0.21743236957E-02  0.12957740945E-01  0.10298068516E+01  0.10297100021E+01 0.  0.
     999903    2    3    3    0    0 -0.13658001253E-01  0.39835915653E-01 -0.12763133781E+00  0.13781158214E+00  0.30476755203E-01 0.  0.
         14    1    1    2    0    0  0.51800179637E-02 -0.21743236957E-02 -0.12957740945E-01  0.14123148376E-01  0.00000000000E+00 0.  1.
     999901    1    3    3    0    0  0.84779832896E-02 -0.37661591957E-01  0.14058907876E+00  0.89199526948E+00  0.88000000000E+00 0. -1.
        -11    1    4    4    0    0 -0.22298888331E-01  0.35217862832E-01 -0.11000451775E+00  0.11763840074E+00  0.51100000000E-03 0. -1.
         11    1    4    4    0    0  0.86408870781E-02  0.46180528209E-02 -0.17626820061E-01  0.20173181401E-01  0.51100000000E-03 0.  1.
</event>
<event>
 8    1  0.1993226E+004  0.1043930E+01  0.7957747E-01            NaN
         13   -1    0    0    0    0  0.00000000000E+00  0.00000000000E+00  0.74505805969E-08  0.10566000000E+00  0.10566000000E+00 0.  1.
     999900   -1    0    0    0    0 -0.00000000000E+00 -0.00000000000E+00 -0.74505805969E-08  0.93827000000E+00  0.93827000000E+00 0. -1.
     999902    2    1    2    0    0 -0.91885568411E-02 -0.10496545842E-01  0.25574609541E-03  0.10299774928E+01  0.10298829852E+01 0.  0.
     999903    2    3    3    0    0  0.51749208229E-01 -0.11039840066E+00  0.53647318854E-01  0.14062691408E+00  0.45078894431E-01 0.  0.
         14    1    1    2    0    0  0.91885568411E-02  0.10496545842E-01 -0.25574609541E-03  0.13952507212E-01  0.00000000000E+00 0. -1.
     999901    1    3    3    0    0 -0.60937765071E-01  0.99901854816E-01 -0.53391572759E-01  0.88935057871E+00  0.88000000000E+00 0. -1.
        -11    1    4    4    0    0  0.38460802697E-01 -0.33289853815E-01  0.29176639585E-01  0.58642860858E-01  0.51100000000E-03 0.  1.
         11    1    4    4    0    0  0.13288405532E-01 -0.77108546842E-01  0.24470679270E-01  0.81984053222E-01  0.51100000000E-03 0. -1.
</event>
<event>
 8    1  0.1993226E+004  0.1043930E+01  0.7957747E-01            NaN
         13   -1    0    0    0    0  0.00000000000E+00  0.00000000000E+00  0.74505805969E-08  0.10566000000E+00  0.10566000000E+00 0.  1.
     999900   -1    0    0    0    0 -0.00000000000E+00 -0.00000000000E+00 -0.74505805969E-08  0.93827000000E+00  0.93827000000E+00 0.  1.
     999902    2    1    2    0    0  0.36111968159E-02 -0.10810914937E-01 -0.75426058904E-03  0.10325069736E+01  0.10324437829E+01 0.  0.
     999903    2    3    3    0    0 -0.10381197777E+00 -0.86544887716E-01  0.13486585822E-01  0.14263160319E+00  0.43530930521E-01 0.  0.
         14    1    1    2    0    0 -0.36111968159E-02  0.10810914937E-01  0.75426058904E-03  0.11423026449E-01  0.00000000000E+00 0.  1.
     999901    1    3    3    0    0  0.10742317459E+00  0.75733972779E-01 -0.14240846411E-01  0.88987537036E+00  0.88000000000E+00 0.  1.
        -11    1    4    4    0    0 -0.49846935444E-01 -0.17484614602E-01 -0.49806565042E-02  0.53061254990E-01  0.51100000000E-03 0.  1.
         11    1    4    4    0    0 -0.53965042329E-01 -0.69060273114E-01  0.18467242326E-01  0.89570348198E-01  0.51100000000E-03 0. -1.
</event>
<event>
 8    1  0.2046078E+004  0.1043930E+01  0.7957747E-01            NaN
         13   -1    0    0    0    0  0.00000000000E+00  0.00000000000E+00  0.74505805969E-08  0.10566000000E+00  0.10566000000E+00 0. -1.
     999900   -1    0    0    0    0 -0.00000000000E+00 -0.00000000000E+00 -0.74505805969E-08  0.93827000000E+00  0.93827000000E+00 0.  1.
     999902    2    1    2    0    0  0.10735162334E-01 -0.68465347798E-02  0.64443609961E-02  0.10296594521E+01  0.10295605561E+01 0.  0.
     999903    2    3    3    0    0  0.99291532827E-01  0.39887004554E-01 -0.81448469547E-01  0.13963057385E+00  0.37590721439E-01 0.  0.
         14    1    1    2    0    0 -0.10735162334E-01  0.68465347798E-02 -0.64443609961E-02  0.14270547904E-01  0.00000000000E+00 0. -1.
     999901    1    3    3    0    0 -0.88556370494E-01 -0.46733539334E-01  0.87892830543E-01  0.89002887825E+00  0.88000000000E+00 0. -1.
        -11    1    4    4    0    0  0.47680526240E-01  0.17145869244E-02 -0.23670302762E-01  0.53262714395E-01  0.51100000000E-03 0.  1.
         11    1    4    4    0    0  0.51611006587E-01  0.38172417630E-01 -0.57778166785E-01  0.86367859454E-01  0.51100000000E-03 0. -1.
</event>
<event>
 8    1  0.1993226E+004  0.1043930E+01  0.7957747E-01            NaN
         13   -1    0    0    0    0  0.00000000000E+00  0.00000000000E+00  0.74505805969E-08  0.10566000000E+00  0.10566000000E+00 0.  1.
     999900   -1    0    0    0    0 -0.00000000000E+00 -0.00000000000E+00 -0.74505805969E-08  0.93827000000E+00  0.93827000000E+00 0.  1.
     999902    2    1    2    0    0  0.12659067273E-01  0.44406042853E-02  0.17231167572E-02  0.10304044656E+01  0.10303156907E+01 0.  0.
     999903    2    3    3    0    0 -0.53024388770E-01 -0.11774968503E+00  0.24370311422E-01  0.13924921610E+00  0.46041915448E-01 0.  0.
         14    1    1    2    0    0 -0.12659067273E-01 -0.44406042853E-02 -0.17231167572E-02  0.13525534444E-01  0.00000000000E+00 0. -1.
     999901    1    3    3    0    0  0.65683456043E-01  0.12219028931E+00 -0.22647194665E-01  0.89115524945E+00  0.88000000000E+00 0.  1.
        -11    1    4    4    0    0 -0.51743532059E-01 -0.97133805844E-01  0.38439207288E-02  0.11012450316E+00  0.51100000000E-03 0. -1.
         11    1    4    4    0    0 -0.12808567115E-02 -0.20615879183E-01  0.20526390693E-01  0.29124712948E-01  0.51100000000E-03 0.  1.
</event>
<event>
 8    1  0.1993226E+004  0.1043930E+01  0.7957747E-01            NaN
         13   -1    0    0    0    0  0.00000000000E+00  0.00000000000E+00  0.74505805969E-08  0.10566000000E+00  0.10566000000E+00 0. -1.
     999900   -1    0    0    0    0 -0.00000000000E+00 -0.00000000000E+00 -0.74505805969E-08  0.93827000000E+00  0.93827000000E+00 0.  1.
     999902    2    1    2    0    0  0.11229547052E-01 -0.15048473706E-02 -0.38415206077E-02  0.10319665317E+01  0.10318971838E+01 0.  0.
     999903    2    3    3    0    0  0.60904228706E-01 -0.12041555166E+00 -0.11484609989E-01  0.14254776286E+00  0.44483011079E-01 0.  0.
         14    1    1    2    0    0 -0.11229547052E-01  0.15048473706E-02  0.38415206077E-02  0.11963468275E-01  0.00000000000E+00 0. -1.
     999901    1    3    3    0    0 -0.49674681655E-01  0.11891070429E+00  0.76430893808E-02  0.88941876886E+00  0.88000000000E+00 0. -1.
        -11    1    4    4    0    0  0.29450772981E-01 -0.62179559379E-01 -0.28075168781E-01  0.74310980728E-01  0.51100000000E-03 0.  1.
         11    1    4    4    0    0  0.31453455725E-01 -0.58235992279E-01  0.16590558792E-01  0.68236782133E-01  0.51100000000E-03 0. -1.
</event>
<event>
 8    1  0.1993226E+004  0.1043930E+01  0.7957747E-01            NaN
         13   -1    0    0    0    0  0.00000000000E+00  0.00000000000E+00  0.74505805969E-08  0.10566000000E+00  0.10566000000E+00 0.  1.
     999900   -1    0    0    0    0 -0.00000000000E+00 -0.00000000000E+00 -0.74505805969E-08  0.93827000000E+00  0.93827000000E+00 0. -1.
     999902    2    1    2    0    0  0.64675660031E-02  0.11186139268E-01 -0.38058487186E-02  0.10304598995E+01  0.10303718557E+01 0.  0.
     999903    2    3    3    0    0  0.52179648361E-01 -0.35985133275E-01 -0.11755112360E+00  0.14071122100E+00  0.44314055709E-01 0.  0.
         14    1    1    2    0    0 -0.64675660031E-02 -0.11186139268E-01  0.38058487186E-02  0.13470100453E-01  0.00000000000E+00 0.  1.
     999901    1    3    3    0    0 -0.45712082357E-01  0.47171272543E-01  0.11374527489E+00  0.88974867855E+00  0.88000000000E+00 0.  1.
        -11    1    4    4    0    0  0.36484968857E-01 -0.11081686522E-01 -0.98550799495E-01  0.10567155687E+00  0.51100000000E-03 0. -1.
         11    1    4    4    0    0  0.15694679503E-01 -0.24903446753E-01 -0.19000324109E-01  0.35039664127E-01  0.51100000000E-03 0.  1.
</event>
<event>
 8    1  0.1993226E+004  0.1043930E+01  0.7957747E-01            NaN
         13   -1    0    0    0    0  0.00000000000E+00  0.00000000000E+00  0.74505805969E-08  0.10566000000E+00  0.10566000000E+00 0.  1.
     999900   -1    0    0    0    0 -0.00000000000E+00 -0.00000000000E+00 -0.74505805969E-08  0.93827000000E+00  0.93827000000E+00 0. -1.
     999902    2    1    2    0    0 -0.53193649157E-02  0.10733734387E-01  0.51198493279E-02  0.10309022775E+01  0.10308199572E+01 0.  0.
     999903    2    3    3    0    0  0.59366724887E-01 -0.96608163398E-01 -0.68520010899E-01  0.13897772784E+00  0.41979419749E-01 0.  0.
         14    1    1    2    0    0  0.53193649157E-02 -0.10733734387E-01 -0.51198493279E-02  0.13027722523E-01  0.00000000000E+00 0. -1.
     999901    1    3    3    0    0 -0.64686089803E-01  0.10734189779E+00  0.73639860227E-01  0.89192454964E+00  0.88000000000E+00 0. -1.
        -11    1    4    4    0    0  0.21941723999E-01 -0.73931053680E-01 -0.45198271362E-01  0.89388952368E-01  0.51100000000E-03 0. -1.
         11    1    4    4    0    0  0.37425000888E-01 -0.22677109718E-01 -0.23321739537E-01  0.49588775470E-01  0.51100000000E-03 0.  1.
</event>
<event>
 8    1  0.1993226E+004  0.1043930E+01  0.7957747E-01            NaN
         13   -1    0    0    0    0  0.00000000000E+00  0.00000000000E+00  0.74505805969E-08  0.10566000000E+00  0.10566000000E+00 0.  1.
     999900   -1    0    0    0    0 -0.00000000000E+00 -0.00000000000E+00 -0.74505805969E-08  0.93827000000E+00  0.93827000000E+00 0.  1.
     999902    2    1    2    0    0  0.12123565008E-01  0.53735132174E-02 -0.85794519478E-03  0.10306412249E+01  0.10305555507E+01 0.  0.
     999903    2    3    3    0    0 -0.18171007632E-01 -0.12975456584E+00 -0.14747198524E-01  0.13970336501E+00  0.46185684547E-01 0.  0.
         14    1    1    2    0    0 -0.12123565008E-01 -0.53735132174E-02  0.85794519478E-03  0.13288775066E-01  0.00000000000E+00 0. -1.
     999901    1    3    3    0    0  0.30294572640E-01  0.13512807906E+00  0.13889253330E-01  0.89093785992E+00  0.88000000000E+00 0.  1.
        -11    1    4    4    0    0  0.20994489987E-02 -0.80433489091E-01  0.96905872457E-02  0.81043953850E-01  0.51100000000E-03 0.  1.
         11    1    4    4    0    0 -0.20270456631E-01 -0.49321076750E-01 -0.24437785770E-01  0.58659411164E-01  0.51100000000E-03 0. -1.
</event>
<event>
 8    1  0.2015027E+004  0.1043930E+01  0.7957747E-01            NaN
         13   -1    0    0    0    0  0.00000000000E+00  0.00000000000E+00  0.74505805969E-08  0.10566000000E+00  0.10566000000E+00 0.  1.
     999900   -1    0    0    0    0 -0.00000000000E+00 -0.00000000000E+00 -0.74505805969E-08  0.93827000000E+00  0.93827000000E+00 0. -1.
     999902    2    1    2    0    0 -0.62834099339E-02  0.84137122613E-02 -0.76559163334E-02  0.10309344296E+01  0.10308525177E+01 0.  0.
     999903    2    3    3    0    0  0.48561496513E-01 -0.12083862212E+00  0.20545032211E-01  0.13935749901E+00  0.45146679204E-01 0.  0.
         14    1    1    2    0    0  0.62834099339E-02 -0.84137122613E-02  0.76559163334E-02  0.12995570373E-01  0.00000000000E+00 0.  1.
     999901    1    3    3    0    0 -0.54844906447E-01  0.12925233438E+00 -0.28200948544E-01  0.89157693061E+00  0.88000000000E+00 0. -1.
        -11    1    4    4    0    0  0.30714066841E-01 -0.74059819039E-01  0.34640415663E-01  0.87340885136E-01  0.51100000000E-03 0.  1.
         11    1    4    4    0    0  0.17847429672E-01 -0.46778803080E-01 -0.14095383452E-01  0.52016613876E-01  0.51100000000E-03 0. -1.
</event>
<event>
 8    1  0.1993226E+004  0.1043930E+01  0.7957747E-01            NaN
         13   -1    0    0    0    0  0.00000000000E+00  0.00000000000E+00  0.74505805969E-08  0.10566000000E+00  0.10566000000E+00 0.  1.
     999900   -1    0    0    0    0 -0.00000000000E+00 -0.00000000000E+00 -0.74505805969E-08  0.93827000000E+00  0.93827000000E+00 0.  1.
     999902    2    1    2    0    0  0.97616348941E-02 -0.26480539786E-02 -0.99225498825E-02  0.10297610656E+01  0.10296635827E+01 0.  0.
     999903    2    3    3    0    0 -0.19124639809E-01  0.88682939235E-01  0.94484639520E-01  0.13842688115E+00  0.44768725240E-01 0.  0.
         14    1    1    2    0    0 -0.97616348941E-02  0.26480539786E-02  0.99225498825E-02  0.14168934394E-01  0.00000000000E+00 0.  1.
     999901    1    3    3    0    0  0.28886274703E-01 -0.91330993214E-01 -0.10440718940E+00  0.89133418446E+00  0.88000000000E+00 0.  1.
        -11    1    4    4    0    0 -0.26159779856E-01  0.60709418616E-01  0.85770500935E-01  0.10829038527E+00  0.51100000000E-03 0. -1.
         11    1    4    4    0    0  0.70351400472E-02  0.27973520619E-01  0.87141385850E-02  0.30136495875E-01  0.51100000000E-03 0.  1.
</event>
<event>
 8    1  0.1993226E+004  0.1043930E+01  0.7957747E-01            NaN
         13   -1    0    0    0    0  0.00000000000E+00  0.00000000000E+00  0.74505805969E-08  0.10566000000E+00  0.10566000000E+00 0.  1.
     999900   -1    0    0    0    0 -0.00000000000E+00 -0.00000000000E+00 -0.74505805969E-08  0.93827000000E+00  0.93827000000E+00 0.  1.
     999902    2    1    2    0    0  0.11336702933E-01  0.62072380169E-02 -0.27831755483E-02  0.10307089296E+01  0.10306241317E+01 0.  0.
     999903    2    3    3    0    0  0.82012584186E-01  0.89521092081E-01 -0.58882826038E-01  0.14218011785E+00  0.44809695577E-01 0.  0.
         14    1    1    2    0    0 -0.11336702933E-01 -0.62072380169E-02  0.27831755483E-02  0.13221070430E-01  0.00000000000E+00 0. -1.
     999901    1    3    3    0    0 -0.70675881254E-01 -0.83313854064E-01  0.56099650490E-01  0.88852881172E+00  0.88000000000E+00 0. -1.
        -11    1    4    4    0    0  0.40508273640E-01  0.75352600121E-01 -0.39363047021E-01  0.94173484432E-01  0.51100000000E-03 0.  1.
         11    1    4    4    0    0  0.41504310546E-01  0.14168491959E-01 -0.19519779017E-01  0.48006633419E-01  0.51100000000E-03 0. -1.
</event>
<event>
 8    1  0.1993226E+004  0.1043930E+01  0.7957747E-01            NaN
         13   -1    0    0    0    0  0.00000000000E+00  0.00000000000E+00  0.74505805969E-08  0.10566000000E+00  0.10566000000E+00 0.  1.
     999900   -1    0    0    0    0 -0.00000000000E+00 -0.00000000000E+00 -0.74505805969E-08  0.93827000000E+00  0.93827000000E+00 0.  1.
     999902    2    1    2    0    0  0.13221349086E-01 -0.20071109255E-02 -0.46184206905E-03  0.10305491979E+01  0.10304623251E+01 0.  0.
     999903    2    3    3    0    0  0.46220365972E-01 -0.21680632606E-01 -0.12366220547E+00  0.14113685705E+00  0.44954413537E-01 0.  0.
         14    1    1    2    0    0 -0.13221349086E-01  0.20071109255E-02  0.46184206905E-03  0.13380802069E-01  0.00000000000E+00 0. -1.
     999901    1    3    3    0    0 -0.32999016886E-01  0.19673521680E-01  0.12320036340E+00  0.88941234088E+00  0.88000000000E+00 0. -1.
        -11    1    4    4    0    0  0.48964433226E-01 -0.17985837058E-01 -0.70126877075E-01  0.87401636513E-01  0.51100000000E-03 0.  1.
         11    1    4    4    0    0 -0.27440672543E-02 -0.36947955483E-02 -0.53535328391E-01  0.53735220537E-01  0.51100000000E-03 0. -1.
</event>
<event>
 8    1  0.1993226E+004  0.1043930E+01  0.7957747E-01            NaN
         13   -1    0    0    0    0  0.00000000000E+00  0.00000000000E+00  0.74505805969E-08  0.10566000000E+00  0.10566000000E+00 0. -1.
     999900   -1    0    0    0    0 -0.00000000000E+00 -0.00000000000E+00 -0.74505805969E-08  0.93827000000E+00  0.93827000000E+00 0.  1.
     999902    2    1    2    0    0  0.11870982661E-01  0.35509126675E-02  0.40928634985E-02  0.10308808337E+01  0.10307982404E+01 0.  0.
     999903    2    3    3    0    0  0.10675176547E+00 -0.73579682906E-01  0.35356414255E-01  0.14187638975E+00  0.45485434716E-01 0.  0.
         14    1    1    2    0    0 -0.11870982661E-01 -0.35509126675E-02 -0.40928634985E-02  0.13049166323E-01  0.00000000000E+00 0.  1.
     999901    1    3    3    0    0 -0.94880782809E-01  0.77130595573E-01 -0.31263550757E-01  0.88900444393E+00  0.88000000000E+00 0.  1.
        -11    1    4    4    0    0  0.26347505910E-01 -0.42578394162E-01  0.21914144490E-01  0.54658956876E-01  0.51100000000E-03 0.  1.
         11    1    4    4    0    0  0.80404259560E-01 -0.31001288744E-01  0.13442269765E-01  0.87217432871E-01  0.51100000000E-03 0. -1.
</event>
<event>
 8    1  0.1993226E+004  0.1043930E+01  0.7957747E-01            NaN
         13   -1    0    0    0    0  0.00000000000E+00  0.00000000000E+00  0.74505805969E-08  0.10566000000E+00  0.10566000000E+00 0.  1.
     999900   -1    0    0    0    0 -0.00000000000E+00 -0.00000000000E+00 -0.74505805969E-08  0.93827000000E+00  0.93827000000E+00 0. -1.
     999902    2    1    2    0    0  0.12607611219E-02 -0.48134354505E-02  0.13065379919E-01  0.10299491977E+01  0.10298543038E+01 0.  0.
     999903    2    3    3    0    0  0.89470686574E-02 -0.20168632657E-01 -0.12852635556E+00  0.13846555742E+00  0.46549572881E-01 0.  0.
         14    1    1    2    0    0 -0.12607611219E-02  0.48134354505E-02 -0.13065379919E-01  0.13980802262E-01  0.00000000000E+00 0. -1.
     999901    1    3    3    0    0 -0.76863075355E-02  0.15355197206E-01  0.14159173548E+00  0.89148364032E+00  0.88000000000E+00 0.  1.
        -11    1    4    4    0    0 -0.14772991918E-01 -0.45671206951E-02 -0.85669211317E-01  0.87055010024E-01  0.51100000000E-03 0. -1.
         11    1    4    4    0    0  0.23720060576E-01 -0.15601511961E-01 -0.42857144246E-01  0.51410547392E-01  0.51100000000E-03 0.  1.
</event>
<event>
 8    1  0.1993226E+004  0.1043930E+01  0.7957747E-01            NaN
         13   -1    0    0    0    0  0.00000000000E+00  0.00000000000E+00  0.74505805969E-08  0.10566000000E+00  0.10566000000E+00 0.  1.
     999900   -1    0    0    0    0 -0.00000000000E+00 -0.00000000000E+00 -0.74505805969E-08  0.93827000000E+00  0.93827000000E+00 0.  1.
     999902    2    1    2    0    0  0.10319572817E-01 -0.46877574969E-02  0.81600259946E-02  0.10299638023E+01  0.10298691079E+01 0.  0.
     999903    2    3    3    0    0  0.34684952037E-01 -0.44900920127E-01  0.12153149879E+00  0.14144601353E+00  0.44921387108E-01 0.  0.
         14    1    1    2    0    0 -0.10319572817E-01  0.46877574969E-02 -0.81600259946E-02  0.13966197682E-01  0.00000000000E+00 0. -1.
     999901    1    3    3    0    0 -0.24365379220E-01  0.40213162630E-01 -0.11337147279E+00  0.88851778879E+00  0.88000000000E+00 0.  1.
        -11    1    4    4    0    0 -0.62621860785E-02 -0.17153900988E-01  0.58715466416E-01  0.61491775149E-01  0.51100000000E-03 0. -1.
         11    1    4    4    0    0  0.40947138115E-01 -0.27747019139E-01  0.62816032370E-01  0.79954238379E-01  0.51100000000E-03 0.  1.
</event>
<event>
 8    1  0.1993226E+004  0.1043930E+01  0.7957747E-01            NaN
         13   -1    0    0    0    0  0.00000000000E+00  0.00000000000E+00  0.74505805969E-08  0.10566000000E+00  0.10566000000E+00 0.  1.
     999900   -1    0    0    0    0 -0.00000000000E+00 -0.00000000000E+00 -0.74505805969E-08  0.93827000000E+00  0.93827000000E+00 0. -1.
     999902    2    1    2    0    0  0.55970308131E-02  0.92660324471E-02 -0.82003783552E-02  0.10303494140E+01  0.10302599102E+01 0.  0.
     999903    2    3    3    0    0  0.48535652702E-01  0.42174029009E-01  0.11605278364E+00  0.13997561060E+00  0.44615744611E-01 0.  0.
         14    1    1    2    0    0 -0.55970308131E-02 -0.92660324471E-02  0.82003783552E-02  0.13580586011E-01  0.00000000000E+00 0. -1.
     999901    1    3    3    0    0 -0.42938621889E-01 -0.32907996562E-01 -0.12425316200E+00  0.89037380338E+00  0.88000000000E+00 0. -1.
        -11    1    4    4    0    0  0.42805684433E-01  0.50325451043E-01  0.10996811294E+00  0.12828961231E+00  0.51100000000E-03 0. -1.
         11    1    4    4    0    0  0.57299682691E-02 -0.81514220335E-02  0.60846706973E-02  0.11685998290E-01  0.51100000000E-03 0.  1.
</event>
<event>
 7    1  0.1993226E+004  0.1043930E+01  0.7957747E-01            NaN
         13   -1    0    0    0    0  0.00000000000E+00  0.00000000000E+00  0.74505805969E-08  0.10566000000E+00  0.10566000000E+00 0.  1.
     999900   -1    0    0    0    0 -0.00000000000E+00 -0.00000000000E+00 -0.74505805969E-08  0.93827000000E+00  0.93827000000E+00 0.  1.
     999903    2    1    2    0    0  0.71234134800E-01 -0.80089118789E-01  0.51727482644E-01  0.12712767352E+00  0.44689417139E-01 0.  0.
         14    1    1    2    0    0 -0.26340499396E-01 -0.10603932625E-01  0.63669345233E-02  0.29099882315E-01  0.00000000000E+00 0. -1.
     999901    1    1    2    0    0 -0.44893635403E-01  0.90693051414E-01 -0.58094417167E-01  0.88770244417E+00  0.88000000000E+00 0. -1.
        -11    1    3    3    0    0  0.54713559635E-01 -0.30731100127E-01  0.37738959016E-01  0.73228848629E-01  0.51100000000E-03 0.  1.
         11    1    3    3    0    0  0.16520575165E-01 -0.49358018662E-01  0.13988523628E-01  0.53898824888E-01  0.51100000000E-03 0. -1.
</event>
<event>
 8    1  0.1993226E+004  0.1043930E+01  0.7957747E-01            NaN
         13   -1    0    0    0    0  0.00000000000E+00  0.00000000000E+00  0.74505805969E-08  0.10566000000E+00  0.10566000000E+00 0. -1.
     999900   -1    0    0    0    0 -0.00000000000E+00 -0.00000000000E+00 -0.74505805969E-08  0.93827000000E+00  0.93827000000E+00 0.  1.
     999902    2    1    2    0    0  0.43136737551E-02 -0.90634141760E-02 -0.74718134736E-02  0.10314167568E+01  0.10313408481E+01 0.  0.
     999903    2    3    3    0    0 -0.12577210219E+00 -0.25060296001E-01  0.36135065459E-01  0.14064194286E+00  0.45030800681E-01 0.  0.
         14    1    1    2    0    0 -0.43136737551E-02  0.90634141760E-02  0.74718134736E-02  0.12513243160E-01  0.00000000000E+00 0. -1.
     999901    1    3    3    0    0  0.13008577595E+00  0.15996881825E-01 -0.43606878933E-01  0.89077481398E+00  0.88000000000E+00 0. -1.
        -11    1    4    4    0    0 -0.47033846060E-01  0.12506739522E-01  0.13631717446E-01  0.50543902206E-01  0.51100000000E-03 0.  1.
         11    1    4    4    0    0 -0.78738256132E-01 -0.37567035524E-01  0.22503348013E-01  0.90098040653E-01  0.51100000000E-03 0. -1.
</event>
<event>
 8    1  0.1993226E+004  0.1043930E+01  0.7957747E-01            NaN
         13   -1    0    0    0    0  0.00000000000E+00  0.00000000000E+00  0.74505805969E-08  0.10566000000E+00  0.10566000000E+00 0. -1.
     999900   -1    0    0    0    0 -0.00000000000E+00 -0.00000000000E+00 -0.74505805969E-08  0.93827000000E+00  0.93827000000E+00 0. -1.
     999902    2    1    2    0    0 -0.70272493834E-02  0.74265156356E-02  0.99926917414E-02  0.10296335229E+01  0.10295342647E+01 0.  0.
     999903    2    3    3    0    0 -0.54670458464E-01  0.10674602851E+00 -0.57132022727E-01  0.14022924573E+00  0.44906566395E-01 0.  0.
         14    1    1    2    0    0  0.70272493834E-02 -0.74265156356E-02 -0.99926917414E-02  0.14296477070E-01  0.00000000000E+00 0.  1.
     999901    1    3    3    0    0  0.47643209080E-01 -0.99319512876E-01  0.67124714468E-01  0.88940427720E+00  0.88000000000E+00 0.  1.
        -11    1    4    4    0    0 -0.47394464568E-01  0.94129055349E-01 -0.30238721641E-01  0.10964103128E+00  0.51100000000E-03 0. -1.
         11    1    4    4    0    0 -0.72759938955E-02  0.12616973162E-01 -0.26893301085E-01  0.30588214449E-01  0.51100000000E-03 0.  1.
</event>
<event>
 8    1  0.1993226E+004  0.1043930E+01  0.7957747E-01            NaN
         13   -1    0    0    0    0  0.00000000000E+00  0.00000000000E+00  0.74505805969E-08  0.10566000000E+00  0.10566000000E+00 0.  1.
     999900   -1    0    0    0    0 -0.00000000000E+00 -0.00000000000E+00 -0.74505805969E-08  0.93827000000E+00  0.93827000000E+00 0.  1.
     999902    2    1    2    0    0 -0.27501564371E-02  0.75467923693E-02 -0.11592462596E-01  0.10298267158E+01  0.10297301404E+01 0.  0.
     999903    2    3    3    0    0  0.85343895189E-03  0.33944198441E-01  0.12661633384E+00  0.13864128037E+00  0.45130606715E-01 0.  0.
         14    1    1    2    0    0  0.27501564371E-02 -0.75467923693E-02  0.11592462596E-01  0.14103284175E-01  0.00000000000E+00 0.  1.
     999901    1    3    3    0    0 -0.36035953890E-02 -0.26397406071E-01 -0.13820879644E+00  0.89118543545E+00  0.88000000000E+00 0.  1.
        -11    1    4    4    0    0  0.39669764160E-03  0.10807289370E-01  0.10904293859E+00  0.10957909677E+00  0.51100000000E-03 0.  1.
         11    1    4    4    0    0  0.45674131029E-03  0.23136909071E-01  0.17573395254E-01  0.29062183602E-01  0.51100000000E-03 0. -1.
</event>
<event>
 8    1  0.1993226E+004  0.1043930E+01  0.7957747E-01            NaN
         13   -1    0    0    0    0  0.00000000000E+00  0.00000000000E+00  0.74505805969E-08  0.10566000000E+00  0.10566000000E+00 0. -1.
     999900   -1    0    0    0    0 -0.00000000000E+00 -0.00000000000E+00 -0.74505805969E-08  0.93827000000E+00  0.93827000000E+00 0.  1.
     999902    2    1    2    0    0  0.11253587753E-01  0.80732636496E-02  0.91739382809E-02  0.10273172950E+01  0.10271829646E+01 0.  0.
     999903    2    3    3    0    0  0.13077618929E+00  0.13815325582E-01 -0.27796602628E-02  0.13913853369E+00  0.45371027536E-01 0.  0.
         14    1    1    2    0    0 -0.11253587753E-01 -0.80732636496E-02 -0.91739382809E-02  0.16612704983E-01  0.00000000000E+00 0.  1.
     999901    1    3    3    0    0 -0.11952260154E+00 -0.57420619319E-02  0.11953598544E-01  0.88817876133E+00  0.88000000000E+00 0.  1.
        -11    1    4    4    0    0  0.47261351054E-01 -0.83329408850E-02 -0.18278773827E-01  0.51356089229E-01  0.51100000000E-03 0.  1.
         11    1    4    4    0    0  0.83514838238E-01  0.22148266467E-01  0.15499113564E-01  0.87782444461E-01  0.51100000000E-03 0. -1.
</event>
<event>
 8    1  0.1993226E+004  0.1043930E+01  0.7957747E-01            NaN
         13   -1    0    0    0    0  0.00000000000E+00  0.00000000000E+00  0.74505805969E-08  0.10566000000E+00  0.10566000000E+00 0. -1.
     999900   -1    0    0    0    0 -0.00000000000E+00 -0.00000000000E+00 -0.74505805969E-08  0.93827000000E+00  0.93827000000E+00 0. -1.
     999902    2    1    2    0    0  0.60502256221E-02  0.18413053041E-01 -0.89370120982E-02  0.10225871807E+01  0.10223644292E+01 0.  0.
     999903    2    3    3    0    0 -0.10048420200E-01  0.20874160468E-01  0.12238802507E+00  0.13269309211E+00  0.45737585075E-01 0.  0.
         14    1    1    2    0    0 -0.60502256221E-02 -0.18413053041E-01  0.89370120982E-02  0.21342819345E-01  0.00000000000E+00 0. -1.
     999901    1    3    3    0    0  0.16098645823E-01 -0.24611074278E-02 -0.13132503717E+00  0.88989408855E+00  0.88000000000E+00 0. -1.
        -11    1    4    4    0    0 -0.11830380426E-01  0.34551854765E-01  0.99168336422E-01  0.10568069189E+00  0.51100000000E-03 0.  1.
         11    1    4    4    0    0  0.17819602258E-02 -0.13677694297E-01  0.23219688648E-01  0.27012400216E-01  0.51100000000E-03 0. -1.
</event>
<event>
 8    1  0.1993226E+004  0.1043930E+01  0.7957747E-01            NaN
         13   -1    0    0    0    0  0.00000000000E+00  0.00000000000E+00  0.74505805969E-08  0.10566000000E+00  0.10566000000E+00 0. -1.
     999900   -1    0    0    0    0 -0.00000000000E+00 -0.00000000000E+00 -0.74505805969E-08  0.93827000000E+00  0.93827000000E+00 0. -1.
     999902    2    1    2    0    0 -0.74838594992E-03  0.11242559121E-01 -0.81249439576E-02  0.10300386382E+01  0.10299449628E+01 0.  0.
     999903    2    3    3    0    0  0.12036303443E+00  0.45460944879E-02 -0.54077339352E-01  0.14053066109E+00  0.48130874084E-01 0.  0.
         14    1    1    2    0    0  0.74838594992E-03 -0.11242559121E-01  0.81249439576E-02  0.13891361756E-01  0.00000000000E+00 0.  1.
     999901    1    3    3    0    0 -0.12111142038E+00  0.66964646336E-02  0.45952395395E-01  0.88950797716E+00  0.88000000000E+00 0. -1.
        -11    1    4    4    0    0  0.61441334406E-01 -0.10641560730E-01 -0.53722547943E-02  0.62589157455E-01  0.51100000000E-03 0.  1.
         11    1    4    4    0    0  0.58921700029E-01  0.15187655218E-01 -0.48705084558E-01  0.77941503630E-01  0.51100000000E-03 0. -1.
</event>
<event>
 8    1  0.1993226E+004  0.1043930E+01  0.7957747E-01            NaN
         13   -1    0    0    0    0  0.00000000000E+00  0.00000000000E+00  0.74505805969E-08  0.10566000000E+00  0.10566000000E+00 0.  1.
     999900   -1    0    0    0    0 -0.00000000000E+00 -0.00000000000E+00 -0.74505805969E-08  0.93827000000E+00  0.93827000000E+00 0.  1.
     999902    2    1    2    0    0 -0.29580823512E-02 -0.40430705740E-02 -0.11888353341E-01  0.10310292397E+01  0.10309485261E+01 0.  0.
     999903    2    3    3    0    0 -0.51290144811E-01  0.52458187665E-01  0.10990263023E+00  0.13953531145E+00  0.44821586343E-01 0.  0.
         14    1    1    2    0    0  0.29580823512E-02  0.40430705740E-02  0.11888353341E-01  0.12900760289E-01  0.00000000000E+00 0.  1.
     999901    1    3    3    0    0  0.48332062460E-01 -0.56501258239E-01 -0.12179098357E+00  0.89149392826E+00  0.88000000000E+00 0.  1.
        -11    1    4    4    0    0 -0.30455397835E-01  0.50958127532E-01  0.55546917224E-01  0.81301802889E-01  0.51100000000E-03 0. -1.
         11    1    4    4    0    0 -0.20834746976E-01  0.15000601322E-02  0.54355713008E-01  0.58233508563E-01  0.51100000000E-03 0.  1.
</event>
<event>
 8    1  0.1993226E+004  0.1043930E+01  0.7957747E-01            NaN
         13   -1    0    0    0    0  0.00000000000E+00  0.00000000000E+00  0.74505805969E-08  0.10566000000E+00  0.10566000000E+00 0. -1.
     999900   -1    0    0    0    0 -0.00000000000E+00 -0.00000000000E+00 -0.74505805969E-08  0.93827000000E+00  0.93827000000E+00 0.  1.
     999902    2    1    2    0    0 -0.92344774944E-02 -0.82971881952E-02  0.93328405290E-03  0.10314805050E+01  0.10314053724E+01 0.  0.
     999903    2    3    3    0    0  0.10330285543E+00  0.68484589829E-01 -0.46328285385E-01  0.13974413775E+00  0.44949916844E-01 0.  0.
         14    1    1    2    0    0  0.92344774944E-02  0.82971881952E-02 -0.93328405290E-03  0.12449494996E-01  0.00000000000E+00 0. -1.
     999901    1    3    3    0    0 -0.11253733293E+00 -0.76781778024E-01  0.47261569438E-01  0.89173636725E+00  0.88000000000E+00 0.  1.
        -11    1    4    4    0    0  0.98595634740E-01  0.61489905847E-01 -0.27944261795E-01  0.11951255415E+00  0.51100000000E-03 0. -1.
         11    1    4    4    0    0  0.47072206911E-02  0.69946839816E-02 -0.18384023589E-01  0.20231583600E-01  0.51100000000E-03 0.  1.
</event>
<event>
 8    1  0.1993226E+004  0.1043930E+01  0.7957747E-01            NaN
         13   -1    0    0    0    0  0.00000000000E+00  0.00000000000E+00  0.74505805969E-08  0.10566000000E+00  0.10566000000E+00 0.  1.
     999900   -1    0    0    0    0 -0.00000000000E+00 -0.00000000000E+00 -0.74505805969E-08  0.93827000000E+00  0.93827000000E+00 0.  1.
     999902    2    1    2    0    0 -0.15053243076E-01  0.73655804532E-02  0.88816915919E-02  0.10249632832E+01  0.10247877807E+01 0.  0.
     999903    2    3    3    0    0 -0.23923712333E-01  0.78451895345E-01  0.10085179497E+00  0.13727502182E+00  0.44116926133E-01 0.  0.
         14    1    1    2    0    0  0.15053243076E-01 -0.73655804532E-02 -0.88816915919E-02  0.18966716849E-01  0.00000000000E+00 0.  1.
     999901    1    3    3    0    0  0.88704692577E-02 -0.71086314891E-01 -0.91970103380E-01  0.88768826133E+00  0.88000000000E+00 0.  1.
        -11    1    4    4    0    0 -0.24349793682E-01  0.76935145753E-01  0.71321766253E-01  0.10769858201E+00  0.51100000000E-03 0.  1.
         11    1    4    4    0    0  0.42608134880E-03  0.15167495911E-02  0.29530028720E-01  0.29576439810E-01  0.51100000000E-03 0. -1.
</event>
<event>
 8    1  0.1993226E+004  0.1043930E+01  0.7957747E-01            NaN
         13   -1    0    0    0    0  0.00000000000E+00  0.00000000000E+00  0.74505805969E-08  0.10566000000E+00  0.10566000000E+00 0. -1.
     999900   -1    0    0    0    0 -0.00000000000E+00 -0.00000000000E+00 -0.74505805969E-08  0.93827000000E+00  0.93827000000E+00 0. -1.
     999902    2    1    2    0    0  0.49289125747E-02  0.34136630019E-02 -0.13231231459E-01  0.10294037217E+01  0.10293012239E+01 0.  0.
     999903    2    3    3    0    0  0.35208433888E-01  0.36811215537E-02 -0.12924504119E+00  0.14127303034E+00  0.44728111488E-01 0.  0.
         14    1    1    2    0    0 -0.49289125747E-02 -0.34136630019E-02  0.13231231459E-01  0.14526278263E-01  0.00000000000E+00 0. -1.
     999901    1    3    3    0    0 -0.30279521313E-01 -0.26745855177E-03  0.11601380973E+00  0.88813069139E+00  0.88000000000E+00 0.  1.
        -11    1    4    4    0    0  0.10736255737E-01 -0.19293632400E-01 -0.36768873719E-01  0.42891987993E-01  0.51100000000E-03 0.  1.
         11    1    4    4    0    0  0.24472178151E-01  0.22974753954E-01 -0.92476167473E-01  0.98381042351E-01  0.51100000000E-03 0. -1.
</event>
<event>
 8    1  0.1993226E+004  0.1043930E+01  0.7957747E-01            NaN
         13   -1    0    0    0    0  0.00000000000E+00  0.00000000000E+00  0.74505805969E-08  0.10566000000E+00  0.10566000000E+00 0. -1.
     999900   -1    0    0    0    0 -0.00000000000E+00 -0.00000000000E+00 -0.74505805969E-08  0.93827000000E+00  0.93827000000E+00 0.  1.
     999902    2    1    2    0    0 -0.26636367612E-02 -0.12608639061E-01 -0.77883234940E-03  0.10310195655E+01  0.10309387300E+01 0.  0.
     999903    2    3    3    0    0  0.47467116647E-01  0.18142994983E-01 -0.12383602214E+00  0.14051306500E+00  0.42734829191E-01 0.  0.
         14    1    1    2    0    0  0.26636367612E-02  0.12608639061E-01  0.77883234940E-03  0.12910434524E-01  0.00000000000E+00 0. -1.
     999901    1    3    3    0    0 -0.50130753408E-01 -0.30751634044E-01  0.12305718979E+00  0.89050650048E+00  0.88000000000E+00 0. -1.
        -11    1    4    4    0    0  0.79264660399E-03  0.18662310127E-01 -0.47399249686E-01  0.50949583901E-01  0.51100000000E-03 0. -1.
         11    1    4    4    0    0  0.46674470043E-01 -0.51931514358E-03 -0.76436772454E-01  0.89563481097E-01  0.51100000000E-03 0.  1.
</event>
<event>
 8    1  0.1993226E+004  0.1043930E+01  0.7957747E-01            NaN
         13   -1    0    0    0    0  0.00000000000E+00  0.00000000000E+00  0.74505805969E-08  0.10566000000E+00  0.10566000000E+00 0.  1.
     999900   -1    0    0    0    0 -0.00000000000E+00 -0.00000000000E+00 -0.74505805969E-08  0.93827000000E+00  0.93827000000E+00 0.  1.
     999902    2    1    2    0    0  0.31987453925E-02 -0.13025775232E-01  0.46726866262E-03  0.10305090786E+01  0.10304216806E+01 0.  0.
     999903    2    3    3    0    0 -0.51597004928E-01  0.55005691410E-01  0.10840880863E+00  0.13962062832E+00  0.45316366356E-01 0.  0.
         14    1    1    2    0    0 -0.31987453925E-02  0.13025775232E-01 -0.46726866262E-03  0.13420921447E-01  0.00000000000E+00 0.  1.
     999901    1    3    3    0    0  0.54795750321E-01 -0.68031466642E-01 -0.10794153996E+00  0.89088845023E+00  0.88000000000E+00 0.  1.
        -11    1    4    4    0    0 -0.38226192764E-01  0.40979808626E-01  0.40891049847E-01  0.69375252121E-01  0.51100000000E-03 0.  1.
         11    1    4    4    0    0 -0.13370812164E-01  0.14025882785E-01  0.67517758780E-01  0.70245376200E-01  0.51100000000E-03 0. -1.
</event>
<event>
 8    1  0.1993226E+004  0.1043930E+01  0.7957747E-01            NaN
         13   -1    0    0    0    0  0.00000000000E+00  0.00000000000E+00  0.74505805969E-08  0.10566000000E+00  0.10566000000E+00 0. -1.
     999900   -1    0    0    0    0 -0.00000000000E+00 -0.00000000000E+00 -0.74505805969E-08  0.93827000000E+00  0.93827000000E+00 0.  1.
     999902    2    1    2    0    0 -0.10815957821E-01 -0.17366375656E-03 -0.74960404005E-02  0.10307692354E+01  0.10306852143E+01 0.  0.
     999903    2    3    3    0    0 -0.39587499128E-01 -0.10003676893E+00  0.78299001464E-01  0.14051015483E+00  0.45142493883E-01 0.  0.
         14    1    1    2    0    0  0.10815957821E-01  0.17366375656E-03  0.74960404005E-02  0.13160764582E-01  0.00000000000E+00 0. -1.
     999901    1    3    3    0    0  0.28771541307E-01  0.99863105175E-01 -0.85795041865E-01  0.89025908059E+00  0.88000000000E+00 0.  1.
        -11    1    4    4    0    0 -0.35399111998E-01 -0.32858352232E-01  0.23507135886E-01  0.53717920662E-01  0.51100000000E-03 0.  1.
         11    1    4    4    0    0 -0.41883871294E-02 -0.67178416699E-01  0.54791865578E-01  0.86792234166E-01  0.51100000000E-03 0. -1.
</event>
<event>
 8    1  0.1993226E+004  0.1043930E+01  0.7957747E-01            NaN
         13   -1    0    0    0    0  0.00000000000E+00  0.00000000000E+00  0.74505805969E-08  0.10566000000E+00  0.10566000000E+00 0. -1.
     999900   -1    0    0    0    0 -0.00000000000E+00 -0.00000000000E+00 -0.74505805969E-08  0.93827000000E+00  0.93827000000E+00 0. -1.
     999902    2    1    2    0    0 -0.11859863464E-01  0.15912960421E-02 -0.75276512784E-02  0.10297930230E+01  0.10296959824E+01 0.  0.
     999903    2    3    3    0    0  0.45012949117E-01 -0.10495618979E+00 -0.66233120319E-01  0.13960584290E+00  0.45398213419E-01 0.  0.
         14    1    1    2    0    0  0.11859863464E-01 -0.15912960421E-02  0.75276512784E-02  0.14136976984E-01  0.00000000000E+00 0. -1.
     999901    1    3    3    0    0 -0.56872812582E-01  0.10654748583E+00  0.58705469040E-01  0.89018718012E+00  0.88000000000E+00 0.  1.
        -11    1    4    4    0    0  0.22429327442E-01 -0.30268049128E-01 -0.45097461746E-01  0.58764544621E-01  0.51100000000E-03 0. -1.
         11    1    4    4    0    0  0.22583621675E-01 -0.74688140660E-01 -0.21135658572E-01  0.80841298279E-01  0.51100000000E-03 0.  1.
</event>
<event>
 7    1  0.1993226E+004  0.1043930E+01  0.7957747E-01            NaN
         13   -1    0    0    0    0  0.00000000000E+00  0.00000000000E+00  0.74505805969E-08  0.10566000000E+00  0.10566000000E+00 0.  1.
     999900   -1    0    0    0    0 -0.00000000000E+00 -0.00000000000E+00 -0.74505805969E-08  0.93827000000E+00  0.93827000000E+00 0. -1.
     999903    2    1    2    0    0 -0.10902581442E+00  0.39168811599E-01 -0.28478164512E-01  0.12731264501E+00  0.44459866307E-01 0.  0.
         14    1    1    2    0    0  0.83985384465E-02  0.22099056541E-01  0.16240316018E-01  0.28681903918E-01  0.00000000000E+00 0.  1.
     999901    1    1    2    0    0  0.10062727598E+00 -0.61267868139E-01  0.12237848495E-01  0.88793545107E+00  0.88000000000E+00 0.  1.
        -11    1    3    3    0    0 -0.87852525367E-01  0.14100852740E-01 -0.31421874177E-01  0.94363634728E-01  0.51100000000E-03 0.  1.
         11    1    3    3    0    0 -0.21173289058E-01  0.25067958858E-01  0.29437096645E-02  0.32949010280E-01  0.51100000000E-03 0. -1.
</event>
<event>
 8    1  0.1993226E+004  0.1043930E+01  0.7957747E-01            NaN
         13   -1    0    0    0    0  0.00000000000E+00  0.00000000000E+00  0.74505805969E-08  0.10566000000E+00  0.10566000000E+00 0.  1.
     999900   -1    0    0    0    0 -0.00000000000E+00 -0.00000000000E+00 -0.74505805969E-08  0.93827000000E+00  0.93827000000E+00 0. -1.
     999902    2    1    2    0    0  0.32929141120E-02  0.13479369162E-01  0.24260208731E-02  0.10298437566E+01  0.10297474160E+01 0.  0.
     999903    2    3    3    0    0  0.10065256106E+00 -0.82194620142E-01  0.22645730895E-01  0.13909056419E+00  0.44118729478E-01 0.  0.
         14    1    1    2    0    0 -0.32929141120E-02 -0.13479369162E-01 -0.24260208731E-02  0.14086243418E-01  0.00000000000E+00 0. -1.
     999901    1    3    3    0    0 -0.97359646948E-01  0.95673989304E-01 -0.20219710022E-01  0.89075319239E+00  0.88000000000E+00 0. -1.
        -11    1    4    4    0    0  0.36944873001E-01 -0.28397318408E-01  0.29936026038E-01  0.55387346116E-01  0.51100000000E-03 0. -1.
         11    1    4    4    0    0  0.63707688059E-01 -0.53797301733E-01 -0.72902951436E-02  0.83703218074E-01  0.51100000000E-03 0.  1.
</event>
<event>
 8    1  0.1993226E+004  0.1043930E+01  0.7957747E-01            NaN
         13   -1    0    0    0    0  0.00000000000E+00  0.00000000000E+00  0.74505805969E-08  0.10566000000E+00  0.10566000000E+00 0.  1.
     999900   -1    0    0    0    0 -0.00000000000E+00 -0.00000000000E+00 -0.74505805969E-08  0.93827000000E+00  0.93827000000E+00 0.  1.
     999902    2    1    2    0    0 -0.20775281865E-02 -0.41264684920E-02 -0.13093037543E-01  0.10300457824E+01  0.10299522039E+01 0.  0.
     999903    2    3    3    0    0  0.19054941870E-01  0.83298663192E-01  0.99309403568E-01  0.13834849987E+00  0.44454377525E-01 0.  0.
         14    1    1    2    0    0  0.20775281865E-02  0.41264684920E-02  0.13093037543E-01  0.13884217575E-01  0.00000000000E+00 0.  1.
     999901    1    3    3    0    0 -0.21132470056E-01 -0.87425131684E-01 -0.11240244111E+00  0.89169728255E+00  0.88000000000E+00 0.  1.
        -11    1    4    4    0    0  0.15847132575E-01  0.68776899052E-01  0.49097509360E-01  0.85978020450E-01  0.51100000000E-03 0. -1.
         11    1    4    4    0    0  0.32078092952E-02  0.14521764140E-01  0.50211894208E-01  0.52370479425E-01  0.51100000000E-03 0.  1.
</event>
<event>
 8    1  0.1993226E+004  0.1043930E+01  0.7957747E-01            NaN
         13   -1    0    0    0    0  0.00000000000E+00  0.00000000000E+00  0.74505805969E-08  0.10566000000E+00  0.10566000000E+00 0.  1.
     999900   -1    0    0    0    0 -0.00000000000E+00 -0.00000000000E+00 -0.74505805969E-08  0.93827000000E+00  0.93827000000E+00 0.  1.
     999902    2    1    2    0    0 -0.86669767091E-02  0.82446631652E-02 -0.59467986615E-02  0.10305712811E+01  0.10304846967E+01 0.  0.
     999903    2    3    3    0    0 -0.16666443352E-01 -0.20033584481E-01 -0.13123614392E+00  0.14121135915E+00  0.45150942867E-01 0.  0.
         14    1    1    2    0    0  0.86669767091E-02 -0.82446631652E-02  0.59467986615E-02  0.13358718887E-01  0.00000000000E+00 0.  1.
     999901    1    3    3    0    0  0.79994666432E-02  0.28278247647E-01  0.12528934526E+00  0.88935992196E+00  0.88000000000E+00 0. -1.
        -11    1    4    4    0    0 -0.99128346997E-02 -0.31852406761E-01 -0.11632474454E+00  0.12101465787E+00  0.51100000000E-03 0.  1.
         11    1    4    4    0    0 -0.67536086525E-02  0.11818822280E-01 -0.14911399382E-01  0.20196701277E-01  0.51100000000E-03 0. -1.
</event>
<event>
 8    1  0.1993226E+004  0.1043930E+01  0.7957747E-01            NaN
         13   -1    0    0    0    0  0.00000000000E+00  0.00000000000E+00  0.74505805969E-08  0.10566000000E+00  0.10566000000E+00 0. -1.
     999900   -1    0    0    0    0 -0.00000000000E+00 -0.00000000000E+00 -0.74505805969E-08  0.93827000000E+00  0.93827000000E+00 0. -1.
     999902    2    1    2    0    0 -0.11717357612E-01 -0.70176559146E-02 -0.51932345614E-02  0.10293178937E+01  0.10292141724E+01 0.  0.
     999903    2    3    3    0    0  0.44247307932E-01  0.12238023277E+00  0.96875087940E-02  0.13797211690E+00  0.44807494706E-01 0.  0.
         14    1    1    2    0    0  0.11717357612E-01  0.70176559146E-02  0.51932345614E-02  0.14612106253E-01  0.00000000000E+00 0. -1.
     999901    1    3    3    0    0 -0.55964665544E-01 -0.12939788869E+00 -0.14880743355E-01  0.89134577685E+00  0.88000000000E+00 0.  1.
        -11    1    4    4    0    0  0.21136773349E-01  0.50734567078E-01 -0.17883005625E-01  0.57799848576E-01  0.51100000000E-03 0.  1.
         11    1    4    4    0    0  0.23110534584E-01  0.71645665693E-01  0.27570514419E-01  0.80172268321E-01  0.51100000000E-03 0. -1.
</event>
<event>
 8    1  0.1993226E+004  0.1043930E+01  0.7957747E-01            NaN
         13   -1    0    0    0    0  0.00000000000E+00  0.00000000000E+00  0.74505805969E-08  0.10566000000E+00  0.10566000000E+00 0. -1.
     999900   -1    0    0    0    0 -0.00000000000E+00 -0.00000000000E+00 -0.74505805969E-08  0.93827000000E+00  0.93827000000E+00 0. -1.
     999902    2    1    2    0    0  0.73199152908E-02 -0.10504188632E-01  0.66054902479E-02  0.10295233474E+01  0.10294225426E+01 0.  0.
     999903    2    3    3    0    0 -0.12408678525E+00 -0.29199426929E-01  0.31662408754E-01  0.13921717416E+00  0.46138667582E-01 0.  0.
         14    1    1    2    0    0 -0.73199152908E-02  0.10504188632E-01 -0.66054902479E-02  0.14406652633E-01  0.00000000000E+00 0.  1.
     999901    1    3    3    0    0  0.13140670054E+00  0.18695238297E-01 -0.25056918506E-01  0.89030617321E+00  0.88000000000E+00 0. -1.
        -11    1    4    4    0    0 -0.62800789123E-01  0.32375286985E-02 -0.24286001011E-03  0.62886729987E-01  0.51100000000E-03 0.  1.
         11    1    4    4    0    0 -0.61285996129E-01 -0.32436955627E-01  0.31905268764E-01  0.76330444174E-01  0.51100000000E-03 0. -1.
</event>
<event>
 8    1  0.1993226E+004  0.1043930E+01  0.7957747E-01            NaN
         13   -1    0    0    0    0  0.00000000000E+00  0.00000000000E+00  0.74505805969E-08  0.10566000000E+00  0.10566000000E+00 0.  1.
     999900   -1    0    0    0    0 -0.00000000000E+00 -0.00000000000E+00 -0.74505805969E-08  0.93827000000E+00  0.93827000000E+00 0.  1.
     999902    2    1    2    0    0 -0.12977966873E-01  0.40659596283E-02 -0.16168059199E-02  0.10302342447E+01  0.10301432062E+01 0.  0.
     999903    2    3    3    0    0 -0.56711840800E-01  0.11913396790E+00 -0.23177380216E-01  0.14140458913E+00  0.45265126521E-01 0.  0.
         14    1    1    2    0    0  0.12977966873E-01 -0.40659596283E-02  0.16168059199E-02  0.13695755300E-01  0.00000000000E+00 0. -1.
     999901    1    3    3    0    0  0.43733873927E-01 -0.11506800827E+00  0.21560574296E-01  0.88882965557E+00  0.88000000000E+00 0.  1.
        -11    1    4    4    0    0 -0.30082480831E-01  0.26398252275E-01 -0.20293941505E-01  0.44876815383E-01  0.51100000000E-03 0.  1.
         11    1    4    4    0    0 -0.26629359969E-01  0.92735715625E-01 -0.28834387111E-02  0.96527773747E-01  0.51100000000E-03 0. -1.
</event>
<event>
 8    1  0.1993226E+004  0.1043930E+01  0.7957747E-01            NaN
         13   -1    0    0    0    0  0.00000000000E+00  0.00000000000E+00  0.74505805969E-08  0.10566000000E+00  0.10566000000E+00 0.  1.
     999900   -1    0    0    0    0 -0.00000000000E+00 -0.00000000000E+00 -0.74505805969E-08  0.93827000000E+00  0.93827000000E+00 0. -1.
     999902    2    1    2    0    0 -0.11804653971E-01 -0.45273511333E-02 -0.51337561484E-02  0.10302844067E+01  0.10301940383E+01 0.  0.
     999903    2    3    3    0    0  0.12730237871E+00 -0.23618307266E-01  0.21895128202E-01  0.13874316161E+00  0.44794510742E-01 0.  0.
         14    1    1    2    0    0  0.11804653971E-01  0.45273511333E-02  0.51337561484E-02  0.13645593276E-01  0.00000000000E+00 0. -1.
     999901    1    3    3    0    0 -0.13910703268E+00  0.19090956133E-01 -0.27028884351E-01  0.89154124511E+00  0.88000000000E+00 0. -1.
        -11    1    4    4    0    0  0.93099491575E-01 -0.35267315491E-01  0.74772691038E-02  0.99837215244E-01  0.51100000000E-03 0. -1.
         11    1    4    4    0    0  0.34202887132E-01  0.11649008225E-01  0.14417859099E-01  0.38905946368E-01  0.51100000000E-03 0.  1.
</event>
<event>
 7    1  0.4274301E+004  0.1043930E+01  0.7957747E-01            NaN
         13   -1    0    0    0    0  0.00000000000E+00  0.00000000000E+00  0.74505805969E-08  0.10566000000E+00  0.10566000000E+00 0.  1.
     999900   -1    0    0    0    0 -0.00000000000E+00 -0.00000000000E+00 -0.74505805969E-08  0.93827000000E+00  0.93827000000E+00 0. -1.
     999903    2    1    2    0    0  0.21155995083E-01  0.98368969198E-01  0.75037164631E-02  0.11067151986E+00  0.45473611240E-01 0.  0.
         14    1    1    2    0    0  0.42573543205E-01  0.28777294230E-02 -0.14708252058E-01  0.45134472260E-01  0.00000000000E+00 0. -1.
     999901    1    1    2    0    0 -0.63729538288E-01 -0.10124669862E+00  0.72045355947E-02  0.88812400788E+00  0.88000000000E+00 0. -1.
        -11    1    3    3    0    0 -0.14238186579E-01  0.34337893925E-01  0.58388096742E-03  0.37180895017E-01  0.51100000000E-03 0. -1.
         11    1    3    3    0    0  0.35394181662E-01  0.64031075273E-01  0.69198354957E-02  0.73490624847E-01  0.51100000000E-03 0.  1.
</event>
<event>
 8    1  0.1993226E+004  0.1043930E+01  0.7957747E-01            NaN
         13   -1    0    0    0    0  0.00000000000E+00  0.00000000000E+00  0.74505805969E-08  0.10566000000E+00  0.10566000000E+00 0. -1.
     999900   -1    0    0    0    0 -0.00000000000E+00 -0.00000000000E+00 -0.74505805969E-08  0.93827000000E+00  0.93827000000E+00 0.  1.
     999902    2    1    2    0    0  0.39459183526E-02  0.11376468609E-01 -0.43686588555E-02  0.10311206483E+01  0.10310410816E+01 0.  0.
     999903    2    3    3    0    0  0.82625725277E-01  0.93580503521E-01  0.50396110310E-01  0.14210591544E+00  0.45497276320E-01 0.  0.
         14    1    1    2    0    0 -0.39459183526E-02 -0.11376468609E-01  0.43686588555E-02  0.12809351656E-01  0.00000000000E+00 0. -1.
     999901    1    3    3    0    0 -0.78679806924E-01 -0.82204034912E-01 -0.54764769165E-01  0.88901473290E+00  0.88000000000E+00 0.  1.
        -11    1    4    4    0    0  0.41372946607E-02  0.24036677642E-01 -0.27337377780E-02  0.24548187762E-01  0.51100000000E-03 0. -1.
         11    1    4    4    0    0  0.78488430616E-01  0.69543825879E-01  0.53129848088E-01  0.11755772768E+00  0.51100000000E-03 0.  1.
</event>
<event>
 8    1  0.1993226E+004  0.1043930E+01  0.7957747E-01            NaN
         13   -1    0    0    0    0  0.00000000000E+00  0.00000000000E+00  0.74505805969E-08  0.10566000000E+00  0.10566000000E+00 0.  1.
     999900   -1    0    0    0    0 -0.00000000000E+00 -0.00000000000E+00 -0.74505805969E-08  0.93827000000E+00  0.93827000000E+00 0.  1.
     999902    2    1    2    0    0  0.86645586177E-02 -0.91478501133E-02 -0.58298058855E-02  0.10300467592E+01  0.10299531940E+01 0.  0.
     999903    2    3    3    0    0 -0.10401989243E+00 -0.33959179023E-02  0.80494256399E-01  0.13865306732E+00  0.43745599625E-01 0.  0.
         14    1    1    2    0    0 -0.86645586177E-02  0.91478501133E-02  0.58298058855E-02  0.13883240774E-01  0.00000000000E+00 0.  1.
     999901    1    3    3    0    0  0.11268445104E+00 -0.57519322109E-02 -0.86324062285E-01  0.89139369190E+00  0.88000000000E+00 0. -1.
        -11    1    4    4    0    0 -0.33792144561E-01 -0.21577464943E-01  0.24257858895E-01  0.46863641200E-01  0.51100000000E-03 0. -1.
         11    1    4    4    0    0 -0.70227747865E-01  0.18181547040E-01  0.56236397505E-01  0.91789426124E-01  0.51100000000E-03 0.  1.
</event>
<event>
 8    1  0.1993226E+004  0.1043930E+01  0.7957747E-01            NaN
         13   -1    0    0    0    0  0.00000000000E+00  0.00000000000E+00  0.74505805969E-08  0.10566000000E+00  0.10566000000E+00 0. -1.
     999900   -1    0    0    0    0 -0.00000000000E+00 -0.00000000000E+00 -0.74505805969E-08  0.93827000000E+00  0.93827000000E+00 0. -1.
     999902    2    1    2    0    0 -0.65048979240E-02  0.11253368729E-01  0.40764496898E-02  0.10303076123E+01  0.10302175530E+01 0.  0.
     999903    2    3    3    0    0 -0.12241785642E+00 -0.31052661838E-01 -0.42578832994E-01  0.14047485858E+00  0.44382761258E-01 0.  0.
         14    1    1    2    0    0  0.65048979240E-02 -0.11253368729E-01 -0.40764496898E-02  0.13622387707E-01  0.00000000000E+00 0. -1.
     999901    1    3    3    0    0  0.11591295850E+00  0.42306030567E-01  0.46655282684E-01  0.88983275371E+00  0.88000000000E+00 0.  1.
        -11    1    4    4    0    0 -0.51126939917E-01 -0.34277438787E-01 -0.28047201487E-01  0.67644759053E-01  0.51100000000E-03 0. -1.
         11    1    4    4    0    0 -0.71290916506E-01  0.32247769488E-02 -0.14531631507E-01  0.72830099532E-01  0.51100000000E-03 0.  1.
</event>
<event>
 8    1  0.1993226E+004  0.1043930E+01  0.7957747E-01            NaN
         13   -1    0    0    0    0  0.00000000000E+00  0.00000000000E+00  0.74505805969E-08  0.10566000000E+00  0.10566000000E+00 0. -1.
     999900   -1    0    0    0    0 -0.00000000000E+00 -0.00000000000E+00 -0.74505805969E-08  0.93827000000E+00  0.93827000000E+00 0. -1.
     999902    2    1    2    0    0  0.22889236308E-02  0.93316192949E-02 -0.72230938054E-02  0.10319095435E+01  0.10318395295E+01 0.  0.
     999903    2    3    3    0    0 -0.16131442214E-01  0.65748290524E-01  0.11573341605E+00  0.14138135531E+00  0.44848666690E-01 0.  0.
         14    1    1    2    0    0 -0.22889236308E-02 -0.93316192949E-02  0.72230938054E-02  0.12020456488E-01  0.00000000000E+00 0. -1.
     999901    1    3    3    0    0  0.18420365844E-01 -0.56416671229E-01 -0.12295650985E+00  0.89052818820E+00  0.88000000000E+00 0. -1.
        -11    1    4    4    0    0 -0.17273020398E-01  0.22551931891E-01  0.15810965960E-01  0.32514529541E-01  0.51100000000E-03 0. -1.
         11    1    4    4    0    0  0.11415781846E-02  0.43196358633E-01  0.99922450089E-01  0.10886682577E+00  0.51100000000E-03 0.  1.
</event>
<event>
 8    1  0.1993226E+004  0.1043930E+01  0.7957747E-01            NaN
         13   -1    0    0    0    0  0.00000000000E+00  0.00000000000E+00  0.74505805969E-08  0.10566000000E+00  0.10566000000E+00 0.  1.
     999900   -1    0    0    0    0 -0.00000000000E+00 -0.00000000000E+00 -0.74505805969E-08  0.93827000000E+00  0.93827000000E+00 0. -1.
     999902    2    1    2    0    0  0.89852775509E-02 -0.10369269009E-01 -0.24303219007E-02  0.10299957466E+01  0.10299014878E+01 0.  0.
     999903    2    3    3    0    0 -0.94586708695E-01 -0.26377228466E-01  0.91723357071E-01  0.13878963895E+00  0.34741704111E-01 0.  0.
         14    1    1    2    0    0 -0.89852775509E-02  0.10369269009E-01  0.24303219007E-02  0.13934253370E-01  0.00000000000E+00 0. -1.
     999901    1    3    3    0    0  0.10357198625E+00  0.16007959457E-01 -0.94153678971E-01  0.89120610768E+00  0.88000000000E+00 0.  1.
        -11    1    4    4    0    0 -0.28204936852E-01 -0.12215612588E-01  0.51246974990E-01  0.59759963356E-01  0.51100000000E-03 0. -1.
         11    1    4    4    0    0 -0.66381771843E-01 -0.14161615877E-01  0.40476382081E-01  0.79029675594E-01  0.51100000000E-03 0.  1.
</event>
<event>
 8    1  0.1993226E+004  0.1043930E+01  0.7957747E-01            NaN
         13   -1    0    0    0    0  0.00000000000E+00  0.00000000000E+00  0.74505805969E-08  0.10566000000E+00  0.10566000000E+00 0.  1.
     999900   -1    0    0    0    0 -0.00000000000E+00 -0.00000000000E+00 -0.74505805969E-08  0.93827000000E+00  0.93827000000E+00 0. -1.
     999902    2    1    2    0    0 -0.69131310964E-02 -0.89011630758E-03  0.14672643555E-01  0.10276859193E+01  0.10275575305E+01 0.  0.
     999903    2    3    3    0    0  0.74643225175E-01  0.33133870895E-02  0.10821099913E+00  0.13896856680E+00  0.44944995559E-01 0.  0.
         14    1    1    2    0    0  0.69131310964E-02  0.89011630758E-03 -0.14672643555E-01  0.16244080691E-01  0.00000000000E+00 0. -1.
     999901    1    3    3    0    0 -0.81556356271E-01 -0.42035033970E-02 -0.93538355580E-01  0.88871735251E+00  0.88000000000E+00 0. -1.
        -11    1    4    4    0    0  0.57149359848E-01  0.14187502650E-01  0.50107323624E-01  0.77319722996E-01  0.51100000000E-03 0.  1.
         11    1    4    4    0    0  0.17493865327E-01 -0.10874115560E-01  0.58103675511E-01  0.61648843803E-01  0.51100000000E-03 0. -1.
</event>
<event>
 8    1  0.1993226E+004  0.1043930E+01  0.7957747E-01            NaN
         13   -1    0    0    0    0  0.00000000000E+00  0.00000000000E+00  0.74505805969E-08  0.10566000000E+00  0.10566000000E+00 0.  1.
     999900   -1    0    0    0    0 -0.00000000000E+00 -0.00000000000E+00 -0.74505805969E-08  0.93827000000E+00  0.93827000000E+00 0.  1.
     999902    2    1    2    0    0 -0.13018927369E-01 -0.53092099887E-02  0.48196039611E-02  0.10290670002E+01  0.10289596601E+01 0.  0.
     999903    2    3    3    0    0  0.11605797074E+00  0.53858908295E-01  0.23927745461E-01  0.13748030621E+00  0.44250005839E-01 0.  0.
         14    1    1    2    0    0  0.13018927369E-01  0.53092099887E-02 -0.48196039611E-02  0.14862999795E-01  0.00000000000E+00 0. -1.
     999901    1    3    3    0    0 -0.12907689811E+00 -0.59168118284E-01 -0.19108141500E-01  0.89158669400E+00  0.88000000000E+00 0. -1.
        -11    1    4    4    0    0  0.53915246651E-01  0.11686266715E-01  0.28770917015E-01  0.62220972654E-01  0.51100000000E-03 0.  1.
         11    1    4    4    0    0  0.62142724088E-01  0.42172641580E-01 -0.48431715534E-02  0.75259333551E-01  0.51100000000E-03 0. -1.
</event>
<event>
 8    1  0.1993226E+004  0.1043930E+01  0.7957747E-01            NaN
         13   -1    0    0    0    0  0.00000000000E+00  0.00000000000E+00  0.74505805969E-08  0.10566000000E+00  0.10566000000E+00 0.  1.
     999900   -1    0    0    0    0 -0.00000000000E+00 -0.00000000000E+00 -0.74505805969E-08  0.93827000000E+00  0.93827000000E+00 0.  1.
     999902    2    1    2    0    0 -0.88863640651E-02 -0.10928798811E-01 -0.36770303087E-03  0.10298395310E+01  0.10297431322E+01 0.  0.
     999903    2    3    3    0    0 -0.97108532413E-01 -0.57975467840E-01 -0.71204339172E-01  0.14134959353E+00  0.46026380860E-01 0.  0.
         14    1    1    2    0    0  0.88863640651E-02  0.10928798811E-01  0.36770303087E-03  0.14090468951E-01  0.00000000000E+00 0. -1.
     999901    1    3    3    0    0  0.88222168348E-01  0.47046669029E-01  0.70836636141E-01  0.88848993752E+00  0.88000000000E+00 0.  1.
        -11    1    4    4    0    0 -0.62885771947E-01 -0.51166569750E-01 -0.27912571744E-01  0.85743868327E-01  0.51100000000E-03 0. -1.
         11    1    4    4    0    0 -0.34222760467E-01 -0.68088980899E-02 -0.43291767428E-01  0.55605725202E-01  0.51100000000E-03 0.  1.
</event>
<event>
 7    1  0.1993226E+004  0.1043930E+01  0.7957747E-01            NaN
         13   -1    0    0    0    0  0.00000000000E+00  0.00000000000E+00  0.74505805969E-08  0.10566000000E+00  0.10566000000E+00 0.  1.
     999900   -1    0    0    0    0 -0.00000000000E+00 -0.00000000000E+00 -0.74505805969E-08  0.93827000000E+00  0.93827000000E+00 0.  1.
     999903    2    1    2    0    0 -0.89362972469E-01 -0.59178860730E-01  0.13919888560E-01  0.11716523250E+00  0.45233284235E-01 0.  0.
         14    1    1    2    0    0  0.14728033218E-01  0.40250295516E-01 -0.66475184301E-02  0.43372695937E-01  0.00000000000E+00 0. -1.
     999901    1    1    2    0    0  0.74634939251E-01  0.18928565214E-01 -0.72723701301E-02  0.88339207157E+00  0.88000000000E+00 0. -1.
        -11    1    3    3    0    0 -0.76335804734E-01 -0.65087411164E-01  0.53039606817E-02  0.10045854516E+00  0.51100000000E-03 0. -1.
         11    1    3    3    0    0 -0.13027167735E-01  0.59085504347E-02  0.86159278784E-02  0.16706687333E-01  0.51100000000E-03 0.  1.
</event>
<event>
 8    1  0.1993226E+004  0.1043930E+01  0.7957747E-01            NaN
         13   -1    0    0    0    0  0.00000000000E+00  0.00000000000E+00  0.74505805969E-08  0.10566000000E+00  0.10566000000E+00 0. -1.
     999900   -1    0    0    0    0 -0.00000000000E+00 -0.00000000000E+00 -0.74505805969E-08  0.93827000000E+00  0.93827000000E+00 0.  1.
     999902    2    1    2    0    0  0.13968236785E-01 -0.29439450784E-03 -0.27185941941E-02  0.10296966216E+01  0.10295982437E+01 0.  0.
     999903    2    3    3    0    0  0.14593288677E-01  0.13204313231E+00 -0.37591599827E-02  0.13980073189E+00  0.43379263344E-01 0.  0.
         14    1    1    2    0    0 -0.13968236785E-01  0.29439450784E-03  0.27185941941E-02  0.14233378426E-01  0.00000000000E+00 0. -1.
     999901    1    3    3    0    0 -0.62505189130E-03 -0.13233752682E+00  0.10405657887E-02  0.88989588968E+00  0.88000000000E+00 0. -1.
        -11    1    4    4    0    0  0.38803553747E-02  0.74230799215E-01 -0.23201968447E-01  0.77870797933E-01  0.51100000000E-03 0. -1.
         11    1    4    4    0    0  0.10712933302E-01  0.57812333099E-01  0.19442808464E-01  0.61929933960E-01  0.51100000000E-03 0.  1.
</event>
<event>
 8    1  0.1993226E+004  0.1043930E+01  0.7957747E-01            NaN
         13   -1    0    0    0    0  0.00000000000E+00  0.00000000000E+00  0.74505805969E-08  0.10566000000E+00  0.10566000000E+00 0. -1.
     999900   -1    0    0    0    0 -0.00000000000E+00 -0.00000000000E+00 -0.74505805969E-08  0.93827000000E+00  0.93827000000E+00 0.  1.
     999902    2    1    2    0    0  0.83962373750E-02 -0.60943155945E-02 -0.94648520177E-02  0.10298864638E+01  0.10297907105E+01 0.  0.
     999903    2    3    3    0    0 -0.65375325341E-02 -0.70015357220E-01 -0.11402842086E+00  0.14126817852E+00  0.44825527559E-01 0.  0.
         14    1    1    2    0    0 -0.83962373750E-02  0.60943155945E-02  0.94648520177E-02  0.14043536176E-01  0.00000000000E+00 0. -1.
     999901    1    3    3    0    0  0.14933769909E-01  0.63921041626E-01  0.10456356884E+00  0.88861828530E+00  0.88000000000E+00 0. -1.
        -11    1    4    4    0    0 -0.24707152925E-01 -0.52322302723E-01 -0.83231513574E-01  0.10136968354E+00  0.51100000000E-03 0.  1.
         11    1    4    4    0    0  0.18169620391E-01 -0.17693054497E-01 -0.30796907284E-01  0.39898494982E-01  0.51100000000E-03 0. -1.
</event>
<event>
 8    1  0.1993226E+004  0.1043930E+01  0.7957747E-01            NaN
         13   -1    0    0    0    0  0.00000000000E+00  0.00000000000E+00  0.74505805969E-08  0.10566000000E+00  0.10566000000E+00 0. -1.
     999900   -1    0    0    0    0 -0.00000000000E+00 -0.00000000000E+00 -0.74505805969E-08  0.93827000000E+00  0.93827000000E+00 0. -1.
     999902    2    1    2    0    0  0.10486024781E-01 -0.17694806556E-02  0.82713624395E-02  0.10304576871E+01  0.10303696141E+01 0.  0.
     999903    2    3    3    0    0 -0.19115775327E-01 -0.10685278328E+00 -0.76372767057E-01  0.13968083757E+00  0.43531674386E-01 0.  0.
         14    1    1    2    0    0 -0.10486024781E-01  0.17694806556E-02 -0.82713624395E-02  0.13472312871E-01  0.00000000000E+00 0.  1.
     999901    1    3    3    0    0  0.29601800107E-01  0.10508330262E+00  0.84644129497E-01  0.89077684956E+00  0.88000000000E+00 0.  1.
        -11    1    4    4    0    0 -0.33029173546E-01 -0.72502491548E-01 -0.48130844556E-01  0.93082634817E-01  0.51100000000E-03 0. -1.
         11    1    4    4    0    0  0.13913398220E-01 -0.34350291728E-01 -0.28241922501E-01  0.46598202748E-01  0.51100000000E-03 0.  1.
</event>
<event>
 8    1  0.1993226E+004  0.1043930E+01  0.7957747E-01            NaN
         13   -1    0    0    0    0  0.00000000000E+00  0.00000000000E+00  0.74505805969E-08  0.10566000000E+00  0.10566000000E+00 0.  1.
     999900   -1    0    0    0    0 -0.00000000000E+00 -0.00000000000E+00 -0.74505805969E-08  0.93827000000E+00  0.93827000000E+00 0. -1.
     999902    2    1    2    0    0 -0.12918514447E-01  0.29424669288E-02 -0.25089147129E-02  0.10304451648E+01  0.10303569269E+01 0.  0.
     999903    2    3    3    0    0 -0.51316655092E-01  0.42090093427E-01  0.11585174028E+00  0.14082940589E+00  0.44791972295E-01 0.  0.
         14    1    1    2    0    0  0.12918514447E-01 -0.29424669288E-02  0.25089147129E-02  0.13484835193E-01  0.00000000000E+00 0.  1.
     999901    1    3    3    0    0  0.38398140645E-01 -0.39147626498E-01 -0.11836065500E+00  0.88961575892E+00  0.88000000000E+00 0. -1.
        -11    1    4    4    0    0 -0.37791011939E-01  0.26467048573E-01  0.36506478734E-01  0.58835782940E-01  0.51100000000E-03 0.  1.
         11    1    4    4    0    0 -0.13525643153E-01  0.15623044854E-01  0.79345261548E-01  0.81993622949E-01  0.51100000000E-03 0. -1.
</event>
<event>
 8    1  0.1993226E+004  0.1043930E+01  0.7957747E-01            NaN
         13   -1    0    0    0    0  0.00000000000E+00  0.00000000000E+00  0.74505805969E-08  0.10566000000E+00  0.10566000000E+00 0. -1.
     999900   -1    0    0    0    0 -0.00000000000E+00 -0.00000000000E+00 -0.74505805969E-08  0.93827000000E+00  0.93827000000E+00 0.  1.
     999902    2    1    2    0    0 -0.81783753447E-02 -0.11382494667E-01  0.65423723782E-02  0.10284623032E+01  0.10283459824E+01 0.  0.
     999903    2    3    3    0    0  0.50259168141E-01  0.18231905951E-01  0.11991871247E+00  0.13877350721E+00  0.44935535209E-01 0.  0.
         14    1    1    2    0    0  0.81783753447E-02  0.11382494667E-01 -0.65423723782E-02  0.15467696805E-01  0.00000000000E+00 0. -1.
     999901    1    3    3    0    0 -0.58437543486E-01 -0.29614400618E-01 -0.11337634009E+00  0.88968879599E+00  0.88000000000E+00 0.  1.
        -11    1    4    4    0    0 -0.27969638541E-02 -0.92073830080E-02  0.22834935136E-01  0.24784961011E-01  0.51100000000E-03 0.  1.
         11    1    4    4    0    0  0.53056131995E-01  0.27439288959E-01  0.97083777337E-01  0.11398854620E+00  0.51100000000E-03 0. -1.
</event>
<event>
 8    1  0.1993226E+004  0.1043930E+01  0.7957747E-01            NaN
         13   -1    0    0    0    0  0.00000000000E+00  0.00000000000E+00  0.74505805969E-08  0.10566000000E+00  0.10566000000E+00 0.  1.
     999900   -1    0    0    0    0 -0.00000000000E+00 -0.00000000000E+00 -0.74505805969E-08  0.93827000000E+00  0.93827000000E+00 0.  1.
     999902    2    1    2    0    0 -0.99559659320E-02 -0.54113170050E-02 -0.75379182444E-02  0.10303203042E+01  0.10302304137E+01 0.  0.
     999903    2    3    3    0    0 -0.90544915351E-01 -0.73783236396E-01  0.64339210809E-01  0.14108714024E+00  0.46083613416E-01 0.  0.
         14    1    1    2    0    0  0.99559659320E-02  0.54113170050E-02  0.75379182444E-02  0.13609695839E-01  0.00000000000E+00 0.  1.
     999901    1    3    3    0    0  0.80588949419E-01  0.68371919391E-01 -0.71877129054E-01  0.88923316392E+00  0.88000000000E+00 0.  1.
        -11    1    4    4    0    0 -0.33706803593E-01 -0.16867146576E-02  0.17640042034E-01  0.38084456393E-01  0.51100000000E-03 0.  1.
         11    1    4    4    0    0 -0.56838111758E-01 -0.72096521739E-01  0.46699168775E-01  0.10300268385E+00  0.51100000000E-03 0. -1.
</event>
<event>
 8    1  0.1993226E+004  0.1043930E+01  0.7957747E-01            NaN
         13   -1    0    0    0    0  0.00000000000E+00  0.00000000000E+00  0.74505805969E-08  0.10566000000E+00  0.10566000000E+00 0.  1.
     999900   -1    0    0    0    0 -0.00000000000E+00 -0.00000000000E+00 -0.74505805969E-08  0.93827000000E+00  0.93827000000E+00 0. -1.
     999902    2    1    2    0    0  0.24914036683E-02  0.13316404835E-01 -0.37264157576E-02  0.10298793806E+01  0.10297835301E+01 0.  0.
     999903    2    3    3    0    0  0.11121203312E+00  0.39646829977E-01  0.61574893735E-01  0.14039766212E+00  0.44497736512E-01 0.  0.
         14    1    1    2    0    0 -0.24914036683E-02 -0.13316404835E-01  0.37264157576E-02  0.14050619359E-01  0.00000000000E+00 0. -1.
     999901    1    3    3    0    0 -0.10872062945E+00 -0.26330425142E-01 -0.65301309492E-01  0.88948171852E+00  0.88000000000E+00 0. -1.
        -11    1    4    4    0    0  0.88629498457E-01  0.31826631010E-01  0.67385254047E-01  0.11579791027E+00  0.51100000000E-03 0.  1.
         11    1    4    4    0    0  0.22582534658E-01  0.78201989668E-02 -0.58103603127E-02  0.24599751857E-01  0.51100000000E-03 0. -1.
</event>
<event>
 8    1  0.1993226E+004  0.1043930E+01  0.7957747E-01            NaN
         13   -1    0    0    0    0  0.00000000000E+00  0.00000000000E+00  0.74505805969E-08  0.10566000000E+00  0.10566000000E+00 0. -1.
     999900   -1    0    0    0    0 -0.00000000000E+00 -0.00000000000E+00 -0.74505805969E-08  0.93827000000E+00  0.93827000000E+00 0.  1.
     999902    2    1    2    0    0 -0.13106153444E-01  0.29187916322E-03 -0.38576413650E-02  0.10302647942E+01  0.10301741641E+01 0.  0.
     999903    2    3    3    0    0  0.12447565841E+00 -0.39952573267E-01 -0.90032536891E-02  0.13865117376E+00  0.45306641444E-01 0.  0.
         14    1    1    2    0    0  0.13106153444E-01 -0.29187916322E-03  0.38576413650E-02  0.13665205760E-01  0.00000000000E+00 0.  1.
     999901    1    3    3    0    0 -0.13758181186E+00  0.40244452430E-01  0.51456123241E-02  0.89161362048E+00  0.88000000000E+00 0. -1.
        -11    1    4    4    0    0  0.80196869404E-01 -0.30540273600E-02  0.34873632722E-03  0.80257383980E-01  0.51100000000E-03 0. -1.
         11    1    4    4    0    0  0.44278789010E-01 -0.36898545907E-01 -0.93519900164E-02  0.58393789777E-01  0.51100000000E-03 0.  1.
</event>
<event>
 8    1  0.1993226E+004  0.1043930E+01  0.7957747E-01            NaN
         13   -1    0    0    0    0  0.00000000000E+00  0.00000000000E+00  0.74505805969E-08  0.10566000000E+00  0.10566000000E+00 0. -1.
     999900   -1    0    0    0    0 -0.00000000000E+00 -0.00000000000E+00 -0.74505805969E-08  0.93827000000E+00  0.93827000000E+00 0.  1.
     999902    2    1    2    0    0 -0.60992268358E-02  0.11135892704E-01  0.59710161362E-02  0.10298992585E+01  0.10298036807E+01 0.  0.
     999903    2    3    3    0    0 -0.18918331218E-01  0.11678799906E+00  0.64359145873E-01  0.14156606044E+00  0.43606304938E-01 0.  0.
         14    1    1    2    0    0  0.60992268358E-02 -0.11135892704E-01 -0.59710161362E-02  0.14030741535E-01  0.00000000000E+00 0.  1.
     999901    1    3    3    0    0  0.12819104383E-01 -0.10565210636E+00 -0.58388129737E-01  0.88833319802E+00  0.88000000000E+00 0. -1.
        -11    1    4    4    0    0 -0.95193291710E-02  0.60921495881E-02  0.17838953725E-01  0.21123950991E-01  0.51100000000E-03 0. -1.
         11    1    4    4    0    0 -0.93990020475E-02  0.11069584948E+00  0.46520192148E-01  0.12044210945E+00  0.51100000000E-03 0.  1.
</event>
<event>
 8    1  0.1993226E+004  0.1043930E+01  0.7957747E-01            NaN
         13   -1    0    0    0    0  0.00000000000E+00  0.00000000000E+00  0.74505805969E-08  0.10566000000E+00  0.10566000000E+00 0.  1.
     999900   -1    0    0    0    0 -0.00000000000E+00 -0.00000000000E+00 -0.74505805969E-08  0.93827000000E+00  0.93827000000E+00 0. -1.
     999902    2    1    2    0    0 -0.13293079810E-01 -0.65397707908E-03  0.88970941928E-04  0.10306205457E+01  0.10305346029E+01 0.  0.
     999903    2    3    3    0    0  0.51495096120E-01 -0.84164910635E-01 -0.88529168203E-01  0.13987661040E+00  0.44638272897E-01 0.  0.
         14    1    1    2    0    0  0.13293079810E-01  0.65397707908E-03 -0.88970941928E-04  0.13309454259E-01  0.00000000000E+00 0. -1.
     999901    1    3    3    0    0 -0.64788175930E-01  0.83510933556E-01  0.88618139145E-01  0.89074393534E+00  0.88000000000E+00 0.  1.
        -11    1    4    4    0    0  0.27069241574E-01 -0.20847122617E-01 -0.53554417166E-01  0.63527026373E-01  0.51100000000E-03 0. -1.
         11    1    4    4    0    0  0.24425854547E-01 -0.63317788017E-01 -0.34974751036E-01  0.76349584025E-01  0.51100000000E-03 0.  1.
</event>
<event>
 8    1  0.1993226E+004  0.1043930E+01  0.7957747E-01            NaN
         13   -1    0    0    0    0  0.00000000000E+00  0.00000000000E+00  0.74505805969E-08  0.10566000000E+00  0.10566000000E+00 0. -1.
     999900   -1    0    0    0    0 -0.00000000000E+00 -0.00000000000E+00 -0.74505805969E-08  0.93827000000E+00  0.93827000000E+00 0.  1.
     999902    2    1    2    0    0  0.13873631255E-01  0.23955171032E-03  0.11290794255E-02  0.10300084394E+01  0.10299143534E+01 0.  0.
     999903    2    3    3    0    0  0.10144529512E+00  0.88072300862E-01  0.57258332836E-02  0.14129897153E+00  0.43413547498E-01 0.  0.
         14    1    1    2    0    0 -0.13873631255E-01 -0.23955171032E-03 -0.11290794255E-02  0.13921560601E-01  0.00000000000E+00 0. -1.
     999901    1    3    3    0    0 -0.87571663869E-01 -0.87832749151E-01 -0.45967538581E-02  0.88870946787E+00  0.88000000000E+00 0.  1.
        -11    1    4    4    0    0  0.90944899571E-01  0.54895822959E-01  0.71253001700E-02  0.10646857358E+00  0.51100000000E-03 0.  1.
         11    1    4    4    0    0  0.10500395553E-01  0.33176477903E-01 -0.13994668864E-02  0.34830397951E-01  0.51100000000E-03 0. -1.
</event>
<event>
 8    1  0.1993226E+004  0.1043930E+01  0.7957747E-01            NaN
         13   -1    0    0    0    0  0.00000000000E+00  0.00000000000E+00  0.74505805969E-08  0.10566000000E+00  0.10566000000E+00 0. -1.
     999900   -1    0    0    0    0 -0.00000000000E+00 -0.00000000000E+00 -0.74505805969E-08  0.93827000000E+00  0.93827000000E+00 0. -1.
     999902    2    1    2    0    0  0.18483406829E-02  0.72750149239E-02  0.13383844412E-01  0.10285849846E+01  0.10284705154E+01 0.  0.
     999903    2    3    3    0    0 -0.17728349446E-01 -0.59264862586E-01 -0.11326479824E+00  0.13681669590E+00  0.45423291885E-01 0.  0.
         14    1    1    2    0    0 -0.18483406829E-02 -0.72750149239E-02 -0.13383844412E-01  0.15345015369E-01  0.00000000000E+00 0.  1.
     999901    1    3    3    0    0  0.19576690129E-01  0.66539877510E-01  0.12664864265E+00  0.89176828873E+00  0.88000000000E+00 0.  1.
        -11    1    4    4    0    0  0.67607734457E-02 -0.23780649504E-01 -0.13592031219E-01  0.28217579309E-01  0.51100000000E-03 0.  1.
         11    1    4    4    0    0 -0.24489122892E-01 -0.35484213082E-01 -0.99672767022E-01  0.10859911659E+00  0.51100000000E-03 0. -1.
</event>
<event>
 8    1  0.1993226E+004  0.1043930E+01  0.7957747E-01            NaN
         13   -1    0    0    0    0  0.00000000000E+00  0.00000000000E+00  0.74505805969E-08  0.10566000000E+00  0.10566000000E+00 0. -1.
     999900   -1    0    0    0    0 -0.00000000000E+00 -0.00000000000E+00 -0.74505805969E-08  0.93827000000E+00  0.93827000000E+00 0. -1.
     999902    2    1    2    0    0  0.96868926294E-02  0.71769051908E-02 -0.74038930153E-02  0.10297821560E+01  0.10296849651E+01 0.  0.
     999903    2    3    3    0    0  0.84937888928E-01 -0.61186808356E-02  0.10151685684E+00  0.13978034997E+00  0.44508322642E-01 0.  0.
         14    1    1    2    0    0 -0.96868926294E-02 -0.71769051908E-02  0.74038930153E-02  0.14147843960E-01  0.00000000000E+00 0. -1.
     999901    1    3    3    0    0 -0.75250996299E-01  0.13295586026E-01 -0.10892074986E+00  0.89000180607E+00  0.88000000000E+00 0. -1.
        -11    1    4    4    0    0  0.74353859857E-01  0.11784656468E-01  0.79551184864E-01  0.10952637462E+00  0.51100000000E-03 0.  1.
         11    1    4    4    0    0  0.10584029071E-01 -0.17903337303E-01  0.21965671981E-01  0.30253975351E-01  0.51100000000E-03 0. -1.
</event>
<event>
 8    1  0.1993226E+004  0.1043930E+01  0.7957747E-01            NaN
         13   -1    0    0    0    0  0.00000000000E+00  0.00000000000E+00  0.74505805969E-08  0.10566000000E+00  0.10566000000E+00 0. -1.
     999900   -1    0    0    0    0 -0.00000000000E+00 -0.00000000000E+00 -0.74505805969E-08  0.93827000000E+00  0.93827000000E+00 0.  1.
     999902    2    1    2    0    0 -0.22204329702E-05  0.87344375521E-02  0.10673074037E-01  0.10301385203E+01  0.10300461960E+01 0.  0.
     999903    2    3    3    0    0  0.27133295678E-01  0.30779137297E-01  0.12793176021E+00  0.14167248010E+00  0.44955370302E-01 0.  0.
         14    1    1    2    0    0  0.22204329702E-05 -0.87344375521E-02 -0.10673074037E-01  0.13791479749E-01  0.00000000000E+00 0.  1.
     999901    1    3    3    0    0 -0.27135516111E-01 -0.22044699745E-01 -0.11725868618E+00  0.88846604015E+00  0.88000000000E+00 0.  1.
        -11    1    4    4    0    0  0.64367266482E-02  0.37814778438E-01  0.90962153364E-01  0.98720633020E-01  0.51100000000E-03 0. -1.
         11    1    4    4    0    0  0.20696569030E-01 -0.70356411409E-02  0.36969606848E-01  0.42951847078E-01  0.51100000000E-03 0.  1.
</event>
<event>
 8    1  0.1993226E+004  0.1043930E+01  0.7957747E-01            NaN
         13   -1    0    0    0    0  0.00000000000E+00  0.00000000000E+00  0.74505805969E-08  0.10566000000E+00  0.10566000000E+00 0.  1.
     999900   -1    0    0    0    0 -0.00000000000E+00 -0.00000000000E+00 -0.74505805969E-08  0.93827000000E+00  0.93827000000E+00 0. -1.
     999902    2    1    2    0    0 -0.98357502690E-02  0.25205689005E-02  0.88447036446E-02  0.10304643387E+01  0.10303763533E+01 0.  0.
     999903    2    3    3    0    0 -0.85927294390E-01  0.62710459727E-01 -0.80435705431E-01  0.14064203203E+00  0.44656206583E-01 0.  0.
         14    1    1    2    0    0  0.98357502690E-02 -0.25205689005E-02 -0.88447036446E-02  0.13465661272E-01  0.00000000000E+00 0. -1.
     999901    1    3    3    0    0  0.76091544121E-01 -0.60189890826E-01  0.89280409075E-01  0.88982230669E+00  0.88000000000E+00 0.  1.
        -11    1    4    4    0    0 -0.80418899530E-01  0.36286758210E-01 -0.58543364863E-01  0.10588444132E+00  0.51100000000E-03 0. -1.
         11    1    4    4    0    0 -0.55083948590E-02  0.26423701517E-01 -0.21892340567E-01  0.34757590715E-01  0.51100000000E-03 0.  1.
</event>
<event>
 8    1  0.1993226E+004  0.1043930E+01  0.7957747E-01            NaN
         13   -1    0    0    0    0  0.00000000000E+00  0.00000000000E+00  0.74505805969E-08  0.10566000000E+00  0.10566000000E+00 0.  1.
     999900   -1    0    0    0    0 -0.00000000000E+00 -0.00000000000E+00 -0.74505805969E-08  0.93827000000E+00  0.93827000000E+00 0. -1.
     999902    2    1    2    0    0 -0.97593149342E-03  0.10941993730E-01  0.77743314944E-02  0.10304719207E+01  0.10303840349E+01 0.  0.
     999903    2    3    3    0    0 -0.64942521748E-01  0.62618270632E-01  0.10000526509E+00  0.14183886514E+00  0.44481812816E-01 0.  0.
         14    1    1    2    0    0  0.97593149342E-03 -0.10941993730E-01 -0.77743314944E-02  0.13458079330E-01  0.00000000000E+00 0. -1.
     999901    1    3    3    0    0  0.63966590255E-01 -0.51676276901E-01 -0.92230933596E-01  0.88863305553E+00  0.88000000000E+00 0.  1.
        -11    1    4    4    0    0 -0.19450890970E-01  0.47720270907E-01  0.62617050084E-01  0.81096963551E-01  0.51100000000E-03 0.  1.
         11    1    4    4    0    0 -0.45491630778E-01  0.14897999725E-01  0.37388215006E-01  0.60741901592E-01  0.51100000000E-03 0. -1.
</event>
<event>
 8    1  0.1993226E+004  0.1043930E+01  0.7957747E-01            NaN
         13   -1    0    0    0    0  0.00000000000E+00  0.00000000000E+00  0.74505805969E-08  0.10566000000E+00  0.10566000000E+00 0.  1.
     999900   -1    0    0    0    0 -0.00000000000E+00 -0.00000000000E+00 -0.74505805969E-08  0.93827000000E+00  0.93827000000E+00 0. -1.
     999902    2    1    2    0    0  0.10717422916E-02 -0.11552681049E-01 -0.23136304841E-02  0.10320992791E+01  0.10320314704E+01 0.  0.
     999903    2    3    3    0    0 -0.58119999794E-01  0.41536915195E-01 -0.11423189647E+00  0.14145464412E+00  0.43095712906E-01 0.  0.
         14    1    1    2    0    0 -0.10717422916E-02  0.11552681049E-01  0.23136304841E-02  0.11830720899E-01  0.00000000000E+00 0.  1.
     999901    1    3    3    0    0  0.59191742086E-01 -0.53089596244E-01  0.11191826599E+00  0.89064463498E+00  0.88000000000E+00 0.  1.
        -11    1    4    4    0    0 -0.41448139281E-01  0.15232057241E-01 -0.95223023287E-01  0.10496498989E+00  0.51100000000E-03 0. -1.
         11    1    4    4    0    0 -0.16671860513E-01  0.26304857954E-01 -0.19008873187E-01  0.36489654230E-01  0.51100000000E-03 0.  1.
</event>
<event>
 8    1  0.1993226E+004  0.1043930E+01  0.7957747E-01            NaN
         13   -1    0    0    0    0  0.00000000000E+00  0.00000000000E+00  0.74505805969E-08  0.10566000000E+00  0.10566000000E+00 0. -1.
     999900   -1    0    0    0    0 -0.00000000000E+00 -0.00000000000E+00 -0.74505805969E-08  0.93827000000E+00  0.93827000000E+00 0. -1.
     999902    2    1    2    0    0 -0.90100328564E-02  0.79415577219E-02  0.52770106130E-02  0.10308114684E+01  0.10307279891E+01 0.  0.
     999903    2    3    3    0    0 -0.67533515478E-01  0.22451962859E-01 -0.11284000158E+00  0.14087485352E+00  0.45254746164E-01 0.  0.
         14    1    1    2    0    0  0.90100328564E-02 -0.79415577219E-02 -0.52770106130E-02  0.13118531630E-01  0.00000000000E+00 0.  1.
     999901    1    3    3    0    0  0.58523482621E-01 -0.14510405137E-01  0.11811701219E+00  0.88993661485E+00  0.88000000000E+00 0.  1.
        -11    1    4    4    0    0 -0.54877727052E-01  0.35436001638E-01 -0.79284501473E-01  0.10273056231E+00  0.51100000000E-03 0.  1.
         11    1    4    4    0    0 -0.12655788426E-01 -0.12984038779E-01 -0.33555500104E-01  0.38144291210E-01  0.51100000000E-03 0. -1.
</event>
<event>
 8    1  0.1993226E+004  0.1043930E+01  0.7957747E-01            NaN
         13   -1    0    0    0    0  0.00000000000E+00  0.00000000000E+00  0.74505805969E-08  0.10566000000E+00  0.10566000000E+00 0. -1.
     999900   -1    0    0    0    0 -0.00000000000E+00 -0.00000000000E+00 -0.74505805969E-08  0.93827000000E+00  0.93827000000E+00 0.  1.
     999902    2    1    2    0    0 -0.50237813834E-02 -0.12533667405E-01 -0.91736159498E-03  0.10303958672E+01  0.10303069787E+01 0.  0.
     999903    2    3    3    0    0  0.95481027143E-01  0.76171676787E-01  0.42233728929E-01  0.13919899152E+00  0.51709965123E-01 0.  0.
         14    1    1    2    0    0  0.50237813834E-02  0.12533667405E-01  0.91736159498E-03  0.13534132787E-01  0.00000000000E+00 0.  1.
     999901    1    3    3    0    0 -0.10050480853E+00 -0.88705344192E-01 -0.43151090524E-01  0.89119687569E+00  0.88000000000E+00 0. -1.
        -11    1    4    4    0    0  0.40094738816E-01  0.26295255401E-01 -0.89532373999E-02  0.48779607606E-01  0.51100000000E-03 0.  1.
         11    1    4    4    0    0  0.55386288327E-01  0.49876421387E-01  0.51186966329E-01  0.90419383917E-01  0.51100000000E-03 0. -1.
</event>
<event>
 8    1  0.1993226E+004  0.1043930E+01  0.7957747E-01            NaN
         13   -1    0    0    0    0  0.00000000000E+00  0.00000000000E+00  0.74505805969E-08  0.10566000000E+00  0.10566000000E+00 0. -1.
     999900   -1    0    0    0    0 -0.00000000000E+00 -0.00000000000E+00 -0.74505805969E-08  0.93827000000E+00  0.93827000000E+00 0.  1.
     999902    2    1    2    0    0  0.40665638882E-02 -0.42272476638E-02 -0.12024727499E-01  0.10305508881E+01  0.10304640373E+01 0.  0.
     999903    2    3    3    0    0  0.32846474565E-01  0.64955001084E-01 -0.11274930413E+00  0.14164149609E+00  0.45297514029E-01 0.  0.
         14    1    1    2    0    0 -0.40665638882E-02  0.42272476638E-02  0.12024727499E-01  0.13379111932E-01  0.00000000000E+00 0. -1.
     999901    1    3    3    0    0 -0.28779910677E-01 -0.69182248747E-01  0.10072457663E+00  0.88890939197E+00  0.88000000000E+00 0. -1.
        -11    1    4    4    0    0 -0.10649712709E-01  0.22723460913E-01 -0.32412506254E-01  0.40995167267E-01  0.51100000000E-03 0.  1.
         11    1    4    4    0    0  0.43496187274E-01  0.42231540171E-01 -0.80336797876E-01  0.10064632883E+00  0.51100000000E-03 0. -1.
</event>
<event>
 8    1  0.1993226E+004  0.1043930E+01  0.7957747E-01            NaN
         13   -1    0    0    0    0  0.00000000000E+00  0.00000000000E+00  0.74505805969E-08  0.10566000000E+00  0.10566000000E+00 0.  1.
     999900   -1    0    0    0    0 -0.00000000000E+00 -0.00000000000E+00 -0.74505805969E-08  0.93827000000E+00  0.93827000000E+00 0.  1.
     999902    2    1    2    0    0  0.55553325113E-02 -0.10922898723E-01 -0.60047177383E-02  0.10302834594E+01  0.10301930783E+01 0.  0.
     999903    2    3    3    0    0  0.72552730311E-01 -0.60599285751E-01  0.94226322416E-01  0.14067531185E+00  0.44438400271E-01 0.  0.
         14    1    1    2    0    0 -0.55553325113E-02  0.10922898723E-01  0.60047177383E-02  0.13646540622E-01  0.00000000000E+00 0.  1.
     999901    1    3    3    0    0 -0.66997397800E-01  0.49676387027E-01 -0.10023104015E+00  0.88960814753E+00  0.88000000000E+00 0.  1.
        -11    1    4    4    0    0  0.52275423454E-01 -0.62560664453E-01  0.61499677519E-01  0.10212261302E+00  0.51100000000E-03 0. -1.
         11    1    4    4    0    0  0.20277306858E-01  0.19613787019E-02  0.32726644897E-01  0.38552698829E-01  0.51100000000E-03 0.  1.
</event>
<event>
 8    1  0.1993226E+004  0.1043930E+01  0.7957747E-01            NaN
         13   -1    0    0    0    0  0.00000000000E+00  0.00000000000E+00  0.74505805969E-08  0.10566000000E+00  0.10566000000E+00 0.  1.
     999900   -1    0    0    0    0 -0.00000000000E+00 -0.00000000000E+00 -0.74505805969E-08  0.93827000000E+00  0.93827000000E+00 0. -1.
     999902    2    1    2    0    0 -0.20539163469E-02 -0.90112011201E-02 -0.10470396000E-01  0.10299639873E+01  0.10298692954E+01 0.  0.
     999903    2    3    3    0    0 -0.64783910731E-01 -0.11401867956E+00  0.25262604342E-01  0.14078545066E+00  0.44554792801E-01 0.  0.
         14    1    1    2    0    0  0.20539163469E-02  0.90112011201E-02  0.10470396000E-01  0.13966012687E-01  0.00000000000E+00 0.  1.
     999901    1    3    3    0    0  0.62729994385E-01  0.10500747844E+00 -0.35733000342E-01  0.88917853665E+00  0.88000000000E+00 0.  1.
        -11    1    4    4    0    0 -0.15369081028E-01 -0.13227953698E-02  0.33835268199E-02  0.15800880164E-01  0.51100000000E-03 0.  1.
         11    1    4    4    0    0 -0.49414829704E-01 -0.11269588419E+00  0.21879077522E-01  0.12498457050E+00  0.51100000000E-03 0. -1.
</event>
<event>
 8    1  0.1993226E+004  0.1043930E+01  0.7957747E-01            NaN
         13   -1    0    0    0    0  0.00000000000E+00  0.00000000000E+00  0.74505805969E-08  0.10566000000E+00  0.10566000000E+00 0. -1.
     999900   -1    0    0    0    0 -0.00000000000E+00 -0.00000000000E+00 -0.74505805969E-08  0.93827000000E+00  0.93827000000E+00 0.  1.
     999902    2    1    2    0    0 -0.72042693389E-02 -0.49026255867E-02  0.10282996859E-01  0.10304512293E+01  0.10303630713E+01 0.  0.
     999903    2    3    3    0    0  0.11506695364E+00  0.49607467197E-01  0.43656455387E-01  0.13970132621E+00  0.43695192247E-01 0.  0.
         14    1    1    2    0    0  0.72042693389E-02  0.49026255867E-02 -0.10282996859E-01  0.13478770669E-01  0.00000000000E+00 0.  1.
     999901    1    3    3    0    0 -0.12227122298E+00 -0.54510092783E-01 -0.33373458528E-01  0.89074990313E+00  0.88000000000E+00 0. -1.
        -11    1    4    4    0    0  0.91427655878E-01  0.23324745233E-01  0.44530078137E-01  0.10433718886E+00  0.51100000000E-03 0.  1.
         11    1    4    4    0    0  0.23639297760E-01  0.26282721964E-01 -0.87362275046E-03  0.35364137345E-01  0.51100000000E-03 0. -1.
</event>
<event>
 8    1  0.1993226E+004  0.1043930E+01  0.7957747E-01            NaN
         13   -1    0    0    0    0  0.00000000000E+00  0.00000000000E+00  0.74505805969E-08  0.10566000000E+00  0.10566000000E+00 0.  1.
     999900   -1    0    0    0    0 -0.00000000000E+00 -0.00000000000E+00 -0.74505805969E-08  0.93827000000E+00  0.93827000000E+00 0.  1.
     999902    2    1    2    0    0 -0.13395231658E-01  0.49159950876E-02 -0.44223248378E-02  0.10289915866E+01  0.10288831464E+01 0.  0.
     999903    2    3    3    0    0 -0.10695922972E+00 -0.64455901325E-01 -0.43823577947E-01  0.14044269062E+00  0.46997907679E-01 0.  0.
         14    1    1    2    0    0  0.13395231658E-01 -0.49159950876E-02  0.44223248378E-02  0.14938413432E-01  0.00000000000E+00 0.  1.
     999901    1    3    3    0    0  0.93563998063E-01  0.69371896412E-01  0.39401253109E-01  0.88854889595E+00  0.88000000000E+00 0. -1.
        -11    1    4    4    0    0 -0.25121880007E-01 -0.39305423184E-01 -0.67197498042E-02  0.47132168476E-01  0.51100000000E-03 0.  1.
         11    1    4    4    0    0 -0.81837349714E-01 -0.25150478140E-01 -0.37103828143E-01  0.93310522144E-01  0.51100000000E-03 0. -1.
</event>
<event>
 8    1  0.1993226E+004  0.1043930E+01  0.7957747E-01            NaN
         13   -1    0    0    0    0  0.00000000000E+00  0.00000000000E+00  0.74505805969E-08  0.10566000000E+00  0.10566000000E+00 0.  1.
     999900   -1    0    0    0    0 -0.00000000000E+00 -0.00000000000E+00 -0.74505805969E-08  0.93827000000E+00  0.93827000000E+00 0. -1.
     999902    2    1    2    0    0  0.85475765999E-02  0.75809114090E-02  0.80015477715E-02  0.10299816650E+01  0.10298872143E+01 0.  0.
     999903    2    3    3    0    0 -0.86452685725E-01  0.24370433888E-01  0.98330766615E-01  0.14011296359E+00  0.43528358416E-01 0.  0.
         14    1    1    2    0    0 -0.85475765999E-02 -0.75809114090E-02 -0.80015477715E-02  0.13948335035E-01  0.00000000000E+00 0. -1.
     999901    1    3    3    0    0  0.95000262325E-01 -0.16789522479E-01 -0.90329218843E-01  0.88986870137E+00  0.88000000000E+00 0. -1.
        -11    1    4    4    0    0 -0.70548287796E-01  0.68730771649E-02  0.91004460682E-01  0.11535325347E+00  0.51100000000E-03 0.  1.
         11    1    4    4    0    0 -0.15904397929E-01  0.17497356723E-01  0.73263059326E-02  0.24759710123E-01  0.51100000000E-03 0. -1.
</event>
<event>
 7    1  0.1993226E+004  0.1043930E+01  0.7957747E-01            NaN
         13   -1    0    0    0    0  0.00000000000E+00  0.00000000000E+00  0.74505805969E-08  0.10566000000E+00  0.10566000000E+00 0. -1.
     999900   -1    0    0    0    0 -0.00000000000E+00 -0.00000000000E+00 -0.74505805969E-08  0.93827000000E+00  0.93827000000E+00 0. -1.
     999903    2    1    2    0    0 -0.47157249607E-01 -0.80004597942E-01  0.77004689436E-01  0.12879783997E+00  0.45106756745E-01 0.  0.
         14    1    1    2    0    0  0.20455132466E-01  0.19835868754E-01  0.47808266607E-02  0.28891701870E-01  0.00000000000E+00 0.  1.
     999901    1    1    2    0    0  0.26702117141E-01  0.60168729188E-01 -0.81785516097E-01  0.88624045816E+00  0.88000000000E+00 0.  1.
        -11    1    3    3    0    0 -0.11781683431E-01 -0.58426590035E-01  0.32120635813E-01  0.67708720661E-01  0.51100000000E-03 0.  1.
         11    1    3    3    0    0 -0.35375566176E-01 -0.21578007907E-01  0.44884053623E-01  0.61089119311E-01  0.51100000000E-03 0. -1.
</event>
<event>
 8    1  0.1993226E+004  0.1043930E+01  0.7957747E-01            NaN
         13   -1    0    0    0    0  0.00000000000E+00  0.00000000000E+00  0.74505805969E-08  0.10566000000E+00  0.10566000000E+00 0. -1.
     999900   -1    0    0    0    0 -0.00000000000E+00 -0.00000000000E+00 -0.74505805969E-08  0.93827000000E+00  0.93827000000E+00 0.  1.
     999902    2    1    2    0    0 -0.20103054949E-01 -0.89941879324E-02  0.76718610359E-02  0.10206086431E+01  0.10203421567E+01 0.  0.
     999903    2    3    3    0    0 -0.11545621799E+00  0.77102556539E-03  0.52756311829E-01  0.13425645985E+00  0.43713108101E-01 0.  0.
         14    1    1    2    0    0  0.20103054949E-01  0.89941879324E-02 -0.76718610359E-02  0.23321356877E-01  0.00000000000E+00 0.  1.
     999901    1    3    3    0    0  0.95353163040E-01 -0.97652134977E-02 -0.45084450793E-01  0.88635218328E+00  0.88000000000E+00 0. -1.
        -11    1    4    4    0    0 -0.99809199887E-01  0.93362186867E-02  0.57795283068E-01  0.11571342717E+00  0.51100000000E-03 0. -1.
         11    1    4    4    0    0 -0.15647018102E-01 -0.85651931213E-02 -0.50389712392E-02  0.18543032676E-01  0.51100000000E-03 0.  1.
</event>
<event>
 8    1  0.2384948E+004  0.1043930E+01  0.7957747E-01            NaN
         13   -1    0    0    0    0  0.00000000000E+00  0.00000000000E+00  0.74505805969E-08  0.10566000000E+00  0.10566000000E+00 0.  1.
     999900   -1    0    0    0    0 -0.00000000000E+00 -0.00000000000E+00 -0.74505805969E-08  0.93827000000E+00  0.93827000000E+00 0. -1.
     999902    2    1    2    0    0 -0.43563627358E-02 -0.69909747875E-02 -0.11821267302E-01  0.10295218778E+01  0.10294210523E+01 0.  0.
     999903    2    3    3    0    0  0.10372099008E+00  0.51980303903E-01 -0.69741682625E-01  0.13906519698E+00  0.31862688828E-01 0.  0.
         14    1    1    2    0    0  0.43563627358E-02  0.69909747875E-02  0.11821267302E-01  0.14408122202E-01  0.00000000000E+00 0.  1.
     999901    1    3    3    0    0 -0.10807735281E+00 -0.58971278691E-01  0.57920415323E-01  0.89045668082E+00  0.88000000000E+00 0. -1.
        -11    1    4    4    0    0  0.45573235588E-01  0.11278531136E-01 -0.14551851788E-01  0.49154273243E-01  0.51100000000E-03 0.  1.
         11    1    4    4    0    0  0.58147754488E-01  0.40701772767E-01 -0.55189830837E-01  0.89910923737E-01  0.51100000000E-03 0. -1.
</event>
<event>
 8    1  0.1993226E+004  0.1043930E+01  0.7957747E-01            NaN
         13   -1    0    0    0    0  0.00000000000E+00  0.00000000000E+00  0.74505805969E-08  0.10566000000E+00  0.10566000000E+00 0. -1.
     999900   -1    0    0    0    0 -0.00000000000E+00 -0.00000000000E+00 -0.74505805969E-08  0.93827000000E+00  0.93827000000E+00 0.  1.
     999902    2    1    2    0    0 -0.45292917551E-02  0.88407292120E-02  0.98504513500E-02  0.10299405622E+01  0.10298455503E+01 0.  0.
     999903    2    3    3    0    0 -0.11745087938E+00 -0.10334873416E-01  0.61586922784E-01  0.14101106495E+00  0.46793725071E-01 0.  0.
         14    1    1    2    0    0  0.45292917551E-02 -0.88407292120E-02 -0.98504513500E-02  0.13989437751E-01  0.00000000000E+00 0. -1.
     999901    1    3    3    0    0  0.11292158762E+00  0.19175602628E-01 -0.51736471434E-01  0.88892949730E+00  0.88000000000E+00 0.  1.
        -11    1    4    4    0    0 -0.57967798969E-01 -0.26982912044E-01  0.21895088150E-01  0.67586975563E-01  0.51100000000E-03 0. -1.
         11    1    4    4    0    0 -0.59483080408E-01  0.16648038628E-01  0.39691834635E-01  0.73424089390E-01  0.51100000000E-03 0.  1.
</event>
<event>
 7    1  0.1993226E+004  0.1043930E+01  0.7957747E-01            NaN
         13   -1    0    0    0    0  0.00000000000E+00  0.00000000000E+00  0.74505805969E-08  0.10566000000E+00  0.10566000000E+00 0. -1.
     999900   -1    0    0    0    0 -0.00000000000E+00 -0.00000000000E+00 -0.74505805969E-08  0.93827000000E+00  0.93827000000E+00 0. -1.
     999902    2    1    2    0    0  0.12245499377E-02 -0.13550533156E-01  0.20585252622E-02  0.10301694042E+01  0.10300774958E+01 0.  0.
         14    1    1    2    0    0 -0.12245499377E-02  0.13550533156E-01 -0.20585252622E-02  0.13760595830E-01  0.00000000000E+00 0.  1.
     999901    1    3    3    0    0  0.73238585295E-01 -0.84723876525E-01  0.32430801615E-01  0.88769013880E+00  0.88000000000E+00 0.  1.
        -11    1    3    3    0    0 -0.33430381962E-01  0.67780758451E-01  0.20716185733E-01  0.78366084033E-01  0.51100000000E-03 0.  1.
         11    1    3    3    0    0 -0.38583653396E-01  0.33925849182E-02 -0.51088462086E-01  0.64113181337E-01  0.51100000000E-03 0. -1.
</event>
<event>
 8    1  0.1993226E+004  0.1043930E+01  0.7957747E-01            NaN
         13   -1    0    0    0    0  0.00000000000E+00  0.00000000000E+00  0.74505805969E-08  0.10566000000E+00  0.10566000000E+00 0.  1.
     999900   -1    0    0    0    0 -0.00000000000E+00 -0.00000000000E+00 -0.74505805969E-08  0.93827000000E+00  0.93827000000E+00 0.  1.
     999902    2    1    2    0    0  0.35909493654E-02 -0.99814387258E-02  0.80170270449E-02  0.10306335058E+01  0.10305477313E+01 0.  0.
     999903    2    3    3    0    0 -0.94835624511E-01  0.90850412282E-01  0.13452130995E-01  0.13940716359E+00  0.44786207075E-01 0.  0.
         14    1    1    2    0    0 -0.35909493654E-02  0.99814387258E-02 -0.80170270449E-02  0.13296494238E-01  0.00000000000E+00 0. -1.
     999901    1    3    3    0    0  0.98426573877E-01 -0.10083185101E+00 -0.54351039502E-02  0.89122634217E+00  0.88000000000E+00 0. -1.
        -11    1    4    4    0    0 -0.12724490089E-01  0.22737708470E-02 -0.10023193176E-01  0.16364846603E-01  0.51100000000E-03 0. -1.
         11    1    4    4    0    0 -0.82111134423E-01  0.88576641435E-01  0.23475324172E-01  0.12304231699E+00  0.51100000000E-03 0.  1.
</event>
<event>
 8    1  0.1993226E+004  0.1043930E+01  0.7957747E-01            NaN
         13   -1    0    0    0    0  0.00000000000E+00  0.00000000000E+00  0.74505805969E-08  0.10566000000E+00  0.10566000000E+00 0.  1.
     999900   -1    0    0    0    0 -0.00000000000E+00 -0.00000000000E+00 -0.74505805969E-08  0.93827000000E+00  0.93827000000E+00 0. -1.
     999902    2    1    2    0    0 -0.73608164125E-02  0.42744104066E-02  0.11446014589E-01  0.10296659384E+01  0.10295671330E+01 0.  0.
     999903    2    3    3    0    0 -0.12371604094E+00 -0.44305336038E-01 -0.17964013423E-01  0.14019222899E+00  0.45415126357E-01 0.  0.
         14    1    1    2    0    0  0.73608164125E-02 -0.42744104066E-02 -0.11446014589E-01  0.14264061573E-01  0.00000000000E+00 0. -1.
     999901    1    3    3    0    0  0.11635522453E+00  0.48579746445E-01  0.29410028012E-01  0.88947370944E+00  0.88000000000E+00 0.  1.
        -11    1    4    4    0    0 -0.92089940884E-01 -0.52651383103E-01 -0.17236627355E-01  0.10747133478E+00  0.51100000000E-03 0.  1.
         11    1    4    4    0    0 -0.31626100057E-01  0.83460470653E-02 -0.72738606744E-03  0.32720894210E-01  0.51100000000E-03 0. -1.
</event>
<event>
 8    1  0.1993226E+004  0.1043930E+01  0.7957747E-01            NaN
         13   -1    0    0    0    0  0.00000000000E+00  0.00000000000E+00  0.74505805969E-08  0.10566000000E+00  0.10566000000E+00 0.  1.
     999900   -1    0    0    0    0 -0.00000000000E+00 -0.00000000000E+00 -0.74505805969E-08  0.93827000000E+00  0.93827000000E+00 0. -1.
     999902    2    1    2    0    0 -0.12359622314E-01  0.20938141398E-02 -0.54865269826E-02  0.10302462030E+01  0.10301553245E+01 0.  0.
     999903    2    3    3    0    0 -0.79739951155E-01  0.35562363434E-01  0.10078685134E+00  0.14066524355E+00  0.44783700581E-01 0.  0.
         14    1    1    2    0    0  0.12359622314E-01 -0.20938141398E-02  0.54865269826E-02  0.13683796978E-01  0.00000000000E+00 0.  1.
     999901    1    3    3    0    0  0.67380328841E-01 -0.33468549294E-01 -0.10627337832E+00  0.88958095947E+00  0.88000000000E+00 0. -1.
        -11    1    4    4    0    0 -0.17524209242E-01  0.29254614522E-01  0.24351421551E-01  0.41906839930E-01  0.51100000000E-03 0.  1.
         11    1    4    4    0    0 -0.62215741913E-01  0.63077489116E-02  0.76435429791E-01  0.98758403625E-01  0.51100000000E-03 0. -1.
</event>
<event>
 8    1  0.1993226E+004  0.1043930E+01  0.7957747E-01            NaN
         13   -1    0    0    0    0  0.00000000000E+00  0.00000000000E+00  0.74505805969E-08  0.10566000000E+00  0.10566000000E+00 0.  1.
     999900   -1    0    0    0    0 -0.00000000000E+00 -0.00000000000E+00 -0.74505805969E-08  0.93827000000E+00  0.93827000000E+00 0.  1.
     999902    2    1    2    0    0  0.34451756265E-02 -0.63286038783E-02  0.12081971961E-01  0.10298625017E+01  0.10297664191E+01 0.  0.
     999903    2    3    3    0    0  0.77349660552E-01  0.91200527404E-01  0.57294126902E-01  0.14024576214E+00  0.45670018983E-01 0.  0.
         14    1    1    2    0    0 -0.34451756265E-02  0.63286038783E-02 -0.12081971961E-01  0.14067498307E-01  0.00000000000E+00 0. -1.
     999901    1    3    3    0    0 -0.73904484926E-01 -0.97529131283E-01 -0.45212154941E-01  0.88961673955E+00  0.88000000000E+00 0.  1.
        -11    1    4    4    0    0  0.23574236522E-01  0.47872708666E-01  0.49580869541E-02  0.53594632286E-01  0.51100000000E-03 0. -1.
         11    1    4    4    0    0  0.53775424030E-01  0.43327818738E-01  0.52336039948E-01  0.86651129852E-01  0.51100000000E-03 0.  1.
</event>
<event>
 8    1  0.1993226E+004  0.1043930E+01  0.7957747E-01            NaN
         13   -1    0    0    0    0  0.00000000000E+00  0.00000000000E+00  0.74505805969E-08  0.10566000000E+00  0.10566000000E+00 0.  1.
     999900   -1    0    0    0    0 -0.00000000000E+00 -0.00000000000E+00 -0.74505805969E-08  0.93827000000E+00  0.93827000000E+00 0.  1.
     999902    2    1    2    0    0 -0.30404687619E-02 -0.62155757387E-02 -0.92311474095E-02  0.10323934531E+01  0.10323289931E+01 0.  0.
     999903    2    3    3    0    0  0.63243432661E-02  0.83757166077E-01 -0.10626093501E+00  0.14245099784E+00  0.44109412718E-01 0.  0.
         14    1    1    2    0    0  0.30404687619E-02  0.62155757387E-02  0.92311474095E-02  0.11536546908E-01  0.00000000000E+00 0.  1.
     999901    1    3    3    0    0 -0.93648120280E-02 -0.89972741816E-01  0.97029787600E-01  0.88994245525E+00  0.88000000000E+00 0. -1.
        -11    1    4    4    0    0  0.23315234265E-01  0.58986140208E-01 -0.82968765448E-01  0.10443678493E+00  0.51100000000E-03 0. -1.
         11    1    4    4    0    0 -0.16990890998E-01  0.24771025869E-01 -0.23292169561E-01  0.38014212913E-01  0.51100000000E-03 0.  1.
</event>
<event>
 8    1  0.1993226E+004  0.1043930E+01  0.7957747E-01            NaN
         13   -1    0    0    0    0  0.00000000000E+00  0.00000000000E+00  0.74505805969E-08  0.10566000000E+00  0.10566000000E+00 0. -1.
     999900   -1    0    0    0    0 -0.00000000000E+00 -0.00000000000E+00 -0.74505805969E-08  0.93827000000E+00  0.93827000000E+00 0.  1.
     999902    2    1    2    0    0  0.22310209455E-02 -0.12686588951E-01  0.49617828544E-02  0.10301261497E+01  0.10300336587E+01 0.  0.
     999903    2    3    3    0    0 -0.10467927879E+00 -0.70293598885E-01 -0.43819537141E-01  0.14044755777E+00  0.43662606370E-01 0.  0.
         14    1    1    2    0    0 -0.22310209455E-02  0.12686588951E-01 -0.49617828544E-02  0.13803850288E-01  0.00000000000E+00 0.  1.
     999901    1    3    3    0    0  0.10691029974E+00  0.57607009934E-01  0.48781319995E-01  0.88967859194E+00  0.88000000000E+00 0. -1.
        -11    1    4    4    0    0 -0.42148711601E-01 -0.43155544831E-01 -0.39574774190E-01  0.72148034016E-01  0.51100000000E-03 0.  1.
         11    1    4    4    0    0 -0.62530567192E-01 -0.27138054054E-01 -0.42447629512E-02  0.68299523752E-01  0.51100000000E-03 0. -1.
</event>
<event>
 8    1  0.1993226E+004  0.1043930E+01  0.7957747E-01            NaN
         13   -1    0    0    0    0  0.00000000000E+00  0.00000000000E+00  0.74505805969E-08  0.10566000000E+00  0.10566000000E+00 0.  1.
     999900   -1    0    0    0    0 -0.00000000000E+00 -0.00000000000E+00 -0.74505805969E-08  0.93827000000E+00  0.93827000000E+00 0. -1.
     999902    2    1    2    0    0  0.61547194942E-02  0.12125421912E-01  0.44022088715E-02  0.10296371391E+01  0.10295379315E+01 0.  0.
     999903    2    3    3    0    0 -0.81348288098E-02 -0.12081154520E+00  0.49472851634E-01  0.13839767006E+00  0.45218880280E-01 0.  0.
         14    1    1    2    0    0 -0.61547194942E-02 -0.12125421912E-01 -0.44022088715E-02  0.14292860859E-01  0.00000000000E+00 0. -1.
     999901    1    3    3    0    0  0.14289548304E-01  0.13293696712E+00 -0.45070642763E-01  0.89123946909E+00  0.88000000000E+00 0. -1.
        -11    1    4    4    0    0  0.15617208493E-01 -0.68302627419E-01  0.16443940611E-01  0.71970899795E-01  0.51100000000E-03 0.  1.
         11    1    4    4    0    0 -0.23752037303E-01 -0.52508917784E-01  0.33028911023E-01  0.66426770260E-01  0.51100000000E-03 0. -1.
</event>
<event>
 8    1  0.1993226E+004  0.1043930E+01  0.7957747E-01            NaN
         13   -1    0    0    0    0  0.00000000000E+00  0.00000000000E+00  0.74505805969E-08  0.10566000000E+00  0.10566000000E+00 0. -1.
     999900   -1    0    0    0    0 -0.00000000000E+00 -0.00000000000E+00 -0.74505805969E-08  0.93827000000E+00  0.93827000000E+00 0.  1.
     999902    2    1    2    0    0  0.12557910010E-01  0.35360760527E-02 -0.31836449709E-02  0.10305009072E+01  0.10304134021E+01 0.  0.
     999903    2    3    3    0    0  0.34117116139E-02  0.39698015608E-01 -0.12750139079E+00  0.14098067656E+00  0.45070769806E-01 0.  0.
         14    1    1    2    0    0 -0.12557910010E-01 -0.35360760527E-02  0.31836449709E-02  0.13429092783E-01  0.00000000000E+00 0. -1.
     999901    1    3    3    0    0  0.91461983957E-02 -0.36161939556E-01  0.12431774582E+00  0.88952023065E+00  0.88000000000E+00 0. -1.
        -11    1    4    4    0    0  0.23972489630E-01  0.19899090413E-01 -0.57900536871E-01  0.65752470290E-01  0.51100000000E-03 0. -1.
         11    1    4    4    0    0 -0.20560778016E-01  0.19798925195E-01 -0.69600853921E-01  0.75228206273E-01  0.51100000000E-03 0.  1.
</event>
<event>
 8    1  0.1993226E+004  0.1043930E+01  0.7957747E-01            NaN
         13   -1    0    0    0    0  0.00000000000E+00  0.00000000000E+00  0.74505805969E-08  0.10566000000E+00  0.10566000000E+00 0. -1.
     999900   -1    0    0    0    0 -0.00000000000E+00 -0.00000000000E+00 -0.74505805969E-08  0.93827000000E+00  0.93827000000E+00 0. -1.
     999902    2    1    2    0    0  0.16758399963E-02 -0.12984923627E-01  0.32735816619E-02  0.10304343334E+01  0.10303459527E+01 0.  0.
     999903    2    3    3    0    0 -0.10683162128E+00 -0.59047384766E-01  0.53447618932E-01  0.14115763092E+00  0.46575098981E-01 0.  0.
         14    1    1    2    0    0 -0.16758399963E-02  0.12984923627E-01 -0.32735816619E-02  0.13495666645E-01  0.00000000000E+00 0.  1.
     999901    1    3    3    0    0  0.10850746127E+00  0.46062461139E-01 -0.50174037270E-01  0.88927670244E+00  0.88000000000E+00 0. -1.
        -11    1    4    4    0    0 -0.32003845958E-01 -0.38837179336E-01  0.35523215211E-01  0.61601400916E-01  0.51100000000E-03 0.  1.
         11    1    4    4    0    0 -0.74827775319E-01 -0.20210205430E-01  0.17924403720E-01  0.79556230004E-01  0.51100000000E-03 0. -1.
</event>
<event>
 8    1  0.1993226E+004  0.1043930E+01  0.7957747E-01            NaN
         13   -1    0    0    0    0  0.00000000000E+00  0.00000000000E+00  0.74505805969E-08  0.10566000000E+00  0.10566000000E+00 0. -1.
     999900   -1    0    0    0    0 -0.00000000000E+00 -0.00000000000E+00 -0.74505805969E-08  0.93827000000E+00  0.93827000000E+00 0.  1.
     999902    2    1    2    0    0 -0.13115133749E-01 -0.61959255591E-03 -0.91505916188E-04  0.10307999200E+01  0.10307162927E+01 0.  0.
     999903    2    3    3    0    0  0.92041236855E-03  0.11653439908E+00 -0.64356216323E-01  0.14060218502E+00  0.45234262732E-01 0.  0.
         14    1    1    2    0    0  0.13115133749E-01  0.61959255591E-03  0.91505916188E-04  0.13130080028E-01  0.00000000000E+00 0. -1.
     999901    1    3    3    0    0 -0.14035546118E-01 -0.11715399164E+00  0.64264710407E-01  0.89019773495E+00  0.88000000000E+00 0. -1.
        -11    1    4    4    0    0 -0.11041851434E-01  0.28032641783E-01 -0.35899964532E-01  0.46870247095E-01  0.51100000000E-03 0. -1.
         11    1    4    4    0    0  0.11962263803E-01  0.88501757297E-01 -0.28456251792E-01  0.93731937924E-01  0.51100000000E-03 0.  1.
</event>
<event>
 8    1  0.1993226E+004  0.1043930E+01  0.7957747E-01            NaN
         13   -1    0    0    0    0  0.00000000000E+00  0.00000000000E+00  0.74505805969E-08  0.10566000000E+00  0.10566000000E+00 0.  1.
     999900   -1    0    0    0    0 -0.00000000000E+00 -0.00000000000E+00 -0.74505805969E-08  0.93827000000E+00  0.93827000000E+00 0. -1.
     999902    2    1    2    0    0 -0.65680657923E-02 -0.10442628333E-01 -0.29200026932E-02  0.10312526820E+01  0.10311747572E+01 0.  0.
     999903    2    3    3    0    0  0.85345186009E-01 -0.57010774545E-01 -0.85946305597E-01  0.14135942717E+00  0.45405847811E-01 0.  0.
         14    1    1    2    0    0  0.65680657923E-02  0.10442628333E-01  0.29200026932E-02  0.12677317953E-01  0.00000000000E+00 0.  1.
     999901    1    3    3    0    0 -0.91913251802E-01  0.46568146212E-01  0.83026302904E-01  0.88989325488E+00  0.88000000000E+00 0. -1.
        -11    1    4    4    0    0  0.60103646649E-01 -0.18870482695E-01 -0.32087886978E-01  0.70699625666E-01  0.51100000000E-03 0. -1.
         11    1    4    4    0    0  0.25241539360E-01 -0.38140291850E-01 -0.53858418619E-01  0.70659801506E-01  0.51100000000E-03 0.  1.
</event>
<event>
 7    1  0.1993226E+004  0.1043930E+01  0.7957747E-01            NaN
         13   -1    0    0    0    0  0.00000000000E+00  0.00000000000E+00  0.74505805969E-08  0.10566000000E+00  0.10566000000E+00 0. -1.
     999900   -1    0    0    0    0 -0.00000000000E+00 -0.00000000000E+00 -0.74505805969E-08  0.93827000000E+00  0.93827000000E+00 0.  1.
     999903    2    1    2    0    0  0.69080938331E-02  0.74781095686E-01  0.29830498997E-01  0.92169273641E-01  0.44332632458E-01 0.  0.
         14    1    1    2    0    0 -0.27587569679E-01  0.15755238793E-01  0.54271489493E-01  0.62886374693E-01  0.00000000000E+00 0. -1.
     999901    1    1    2    0    0  0.20679475846E-01 -0.90536334479E-01 -0.84101988490E-01  0.88887435167E+00  0.88000000000E+00 0.  1.
        -11    1    3    3    0    0  0.10156520977E-02 -0.49686767681E-02  0.76303001829E-02  0.91761593213E-02  0.51100000000E-03 0. -1.
         11    1    3    3    0    0  0.58924417354E-02  0.79749772454E-01  0.22200198814E-01  0.82993114320E-01  0.51100000000E-03 0.  1.
</event>
<event>
 8    1  0.1993226E+004  0.1043930E+01  0.7957747E-01            NaN
         13   -1    0    0    0    0  0.00000000000E+00  0.00000000000E+00  0.74505805969E-08  0.10566000000E+00  0.10566000000E+00 0.  1.
     999900   -1    0    0    0    0 -0.00000000000E+00 -0.00000000000E+00 -0.74505805969E-08  0.93827000000E+00  0.93827000000E+00 0. -1.
     999902    2    1    2    0    0 -0.11209068390E-01  0.60281557424E-02  0.68563438646E-02  0.10294734677E+01  0.10293719587E+01 0.  0.
     999903    2    3    3    0    0  0.12874478769E+00  0.12737021456E-01  0.17415444787E-01  0.13832612557E+00  0.45753330205E-01 0.  0.
         14    1    1    2    0    0  0.11209068390E-01 -0.60281557424E-02 -0.68563438646E-02  0.14456532331E-01  0.00000000000E+00 0. -1.
     999901    1    3    3    0    0 -0.13995385609E+00 -0.67088657135E-02 -0.10559100923E-01  0.89114734210E+00  0.88000000000E+00 0. -1.
        -11    1    4    4    0    0  0.92182764200E-01  0.29498172530E-01  0.87855658767E-02  0.97186683691E-01  0.51100000000E-03 0. -1.
         11    1    4    4    0    0  0.36562023495E-01 -0.16761151074E-01  0.86298789106E-02  0.41139441882E-01  0.51100000000E-03 0.  1.
</event>
<event>
 8    1  0.1993226E+004  0.1043930E+01  0.7957747E-01            NaN
         13   -1    0    0    0    0  0.00000000000E+00  0.00000000000E+00  0.74505805969E-08  0.10566000000E+00  0.10566000000E+00 0. -1.
     999900   -1    0    0    0    0 -0.00000000000E+00 -0.00000000000E+00 -0.74505805969E-08  0.93827000000E+00  0.93827000000E+00 0. -1.
     999902    2    1    2    0    0 -0.10920630903E-01 -0.87738370007E-02 -0.57840578777E-04  0.10299212977E+01  0.10298260220E+01 0.  0.
     999903    2    3    3    0    0 -0.11159724814E+00  0.67059810292E-01  0.27260786857E-01  0.14052103305E+00  0.45299517451E-01 0.  0.
         14    1    1    2    0    0  0.10920630903E-01  0.87738370007E-02  0.57840578777E-04  0.14008702316E-01  0.00000000000E+00 0. -1.
     999901    1    3    3    0    0  0.10067661724E+00 -0.75833647292E-01 -0.27318627436E-01  0.88940026463E+00  0.88000000000E+00 0.  1.
        -11    1    4    4    0    0 -0.76398625616E-01  0.21318666353E-01  0.23282051069E-01  0.82665292318E-01  0.51100000000E-03 0. -1.
         11    1    4    4    0    0 -0.35198622525E-01  0.45741143939E-01  0.39787357878E-02  0.57855740735E-01  0.51100000000E-03 0.  1.
</event>
<event>
 8    1  0.1993226E+004  0.1043930E+01  0.7957747E-01            NaN
         13   -1    0    0    0    0  0.00000000000E+00  0.00000000000E+00  0.74505805969E-08  0.10566000000E+00  0.10566000000E+00 0. -1.
     999900   -1    0    0    0    0 -0.00000000000E+00 -0.00000000000E+00 -0.74505805969E-08  0.93827000000E+00  0.93827000000E+00 0. -1.
     999902    2    1    2    0    0  0.71005169596E-02  0.34816081211E-02  0.10412046544E-01  0.10308552285E+01  0.10307723088E+01 0.  0.
     999903    2    3    3    0    0 -0.56607080411E-01 -0.32903186155E-01  0.11684753874E+00  0.14141100586E+00  0.45351340179E-01 0.  0.
         14    1    1    2    0    0 -0.71005169596E-02 -0.34816081211E-02 -0.10412046544E-01  0.13074771487E-01  0.00000000000E+00 0.  1.
     999901    1    3    3    0    0  0.63707597371E-01  0.36384794276E-01 -0.10643549220E+00  0.88944422266E+00  0.88000000000E+00 0. -1.
        -11    1    4    4    0    0 -0.43229863300E-01  0.86369832674E-03  0.66693511929E-01  0.79484921275E-01  0.51100000000E-03 0. -1.
         11    1    4    4    0    0 -0.13377217112E-01 -0.33766884482E-01  0.50154026812E-01  0.61926084582E-01  0.51100000000E-03 0.  1.
</event>
<event>
 8    1  0.1993226E+004  0.1043930E+01  0.7957747E-01            NaN
         13   -1    0    0    0    0  0.00000000000E+00  0.00000000000E+00  0.74505805969E-08  0.10566000000E+00  0.10566000000E+00 0. -1.
     999900   -1    0    0    0    0 -0.00000000000E+00 -0.00000000000E+00 -0.74505805969E-08  0.93827000000E+00  0.93827000000E+00 0.  1.
     999902    2    1    2    0    0  0.37300958696E-02 -0.30588275206E-02  0.13791076159E-01  0.10293195988E+01  0.10292159019E+01 0.  0.
     999903    2    3    3    0    0  0.85359615192E-01  0.76033043310E-01  0.67903195221E-01  0.14036120616E+00  0.44979291814E-01 0.  0.
         14    1    1    2    0    0 -0.37300958696E-02  0.30588275206E-02 -0.13791076159E-01  0.14610401180E-01  0.00000000000E+00 0.  1.
     999901    1    3    3    0    0 -0.81629519323E-01 -0.79091870830E-01 -0.54112119062E-01  0.88895839266E+00  0.88000000000E+00 0. -1.
        -11    1    4    4    0    0  0.19830268022E-01  0.82244987984E-02  0.33879093307E-01  0.40111544405E-01  0.51100000000E-03 0.  1.
         11    1    4    4    0    0  0.65529347171E-01  0.67808544511E-01  0.34024101914E-01  0.10024966175E+00  0.51100000000E-03 0. -1.
</event>
<event>
 8    1  0.1993226E+004  0.1043930E+01  0.7957747E-01            NaN
         13   -1    0    0    0    0  0.00000000000E+00  0.00000000000E+00  0.74505805969E-08  0.10566000000E+00  0.10566000000E+00 0. -1.
     999900   -1    0    0    0    0 -0.00000000000E+00 -0.00000000000E+00 -0.74505805969E-08  0.93827000000E+00  0.93827000000E+00 0. -1.
     999902    2    1    2    0    0 -0.11677473789E-01  0.33347399074E-02  0.36839802139E-02  0.10312392319E+01  0.10311611406E+01 0.  0.
     999903    2    3    3    0    0 -0.91675889480E-01  0.42940388563E-01 -0.88502702540E-01  0.14193234541E+00  0.45428148031E-01 0.  0.
         14    1    1    2    0    0  0.11677473789E-01 -0.33347399074E-02 -0.36839802139E-02  0.12690768084E-01  0.00000000000E+00 0. -1.
     999901    1    3    3    0    0  0.79998415692E-01 -0.39605648655E-01  0.92186682753E-01  0.88930688651E+00  0.88000000000E+00 0.  1.
        -11    1    4    4    0    0 -0.58498361826E-01  0.44013507090E-01 -0.40787745762E-01  0.83804227030E-01  0.51100000000E-03 0.  1.
         11    1    4    4    0    0 -0.33177527654E-01 -0.10731185273E-02 -0.47714956777E-01  0.58128118375E-01  0.51100000000E-03 0. -1.
</event>
<event>
 8    1  0.1993226E+004  0.1043930E+01  0.7957747E-01            NaN
         13   -1    0    0    0    0  0.00000000000E+00  0.00000000000E+00  0.74505805969E-08  0.10566000000E+00  0.10566000000E+00 0.  1.
     999900   -1    0    0    0    0 -0.00000000000E+00 -0.00000000000E+00 -0.74505805969E-08  0.93827000000E+00  0.93827000000E+00 0. -1.
     999902    2    1    2    0    0 -0.71029416465E-02  0.12128506193E-01  0.62647189285E-03  0.10298607104E+01  0.10297646032E+01 0.  0.
     999903    2    3    3    0    0  0.73814168018E-01 -0.89539889644E-01 -0.62585221875E-01  0.13807611782E+00  0.41014400864E-01 0.  0.
         14    1    1    2    0    0  0.71029416465E-02 -0.12128506193E-01 -0.62647189285E-03  0.14069289589E-01  0.00000000000E+00 0.  1.
     999901    1    3    3    0    0 -0.80917109664E-01  0.10166839584E+00  0.63211693768E-01  0.89178459259E+00  0.88000000000E+00 0.  1.
        -11    1    4    4    0    0  0.20132359467E-01 -0.26403223771E-01  0.16106822126E-02  0.33246015422E-01  0.51100000000E-03 0. -1.
         11    1    4    4    0    0  0.53681808550E-01 -0.63136665873E-01 -0.64195904088E-01  0.10483010240E+00  0.51100000000E-03 0.  1.
</event>
<event>
 8    1  0.1993226E+004  0.1043930E+01  0.7957747E-01            NaN
         13   -1    0    0    0    0  0.00000000000E+00  0.00000000000E+00  0.74505805969E-08  0.10566000000E+00  0.10566000000E+00 0. -1.
     999900   -1    0    0    0    0 -0.00000000000E+00 -0.00000000000E+00 -0.74505805969E-08  0.93827000000E+00  0.93827000000E+00 0. -1.
     999902    2    1    2    0    0  0.22521826494E-02  0.75514685099E-02 -0.11419572105E-01  0.10300554322E+01  0.10299619847E+01 0.  0.
     999903    2    3    3    0    0  0.49754042167E-01 -0.10412427402E+00  0.63146575868E-01  0.13860268052E+00  0.43656429692E-01 0.  0.
         14    1    1    2    0    0 -0.22521826494E-02 -0.75514685099E-02  0.11419572105E-01  0.13874567756E-01  0.00000000000E+00 0. -1.
     999901    1    3    3    0    0 -0.47501859518E-01  0.11167574253E+00 -0.74566147973E-01  0.89145275172E+00  0.88000000000E+00 0. -1.
        -11    1    4    4    0    0  0.52318598503E-01 -0.93129990125E-01  0.42302333654E-01  0.11489203351E+00  0.51100000000E-03 0.  1.
         11    1    4    4    0    0 -0.25645563361E-02 -0.10994283890E-01  0.20844242213E-01  0.23710647016E-01  0.51100000000E-03 0. -1.
</event>
<event>
 8    1  0.1993226E+004  0.1043930E+01  0.7957747E-01            NaN
         13   -1    0    0    0    0  0.00000000000E+00  0.00000000000E+00  0.74505805969E-08  0.10566000000E+00  0.10566000000E+00 0. -1.
     999900   -1    0    0    0    0 -0.00000000000E+00 -0.00000000000E+00 -0.74505805969E-08  0.93827000000E+00  0.93827000000E+00 0.  1.
     999902    2    1    2    0    0 -0.12484883828E-01 -0.13093882901E-01 -0.24430846415E-02  0.10256737475E+01  0.10255112605E+01 0.  0.
     999903    2    3    3    0    0  0.12461427212E+00 -0.15874454708E-01 -0.18526288120E-01  0.13490858225E+00  0.45567390586E-01 0.  0.
         14    1    1    2    0    0  0.12484883828E-01  0.13093882901E-01  0.24430846415E-02  0.18256252523E-01  0.00000000000E+00 0. -1.
     999901    1    3    3    0    0 -0.13709915595E+00  0.27805718073E-02  0.16083203478E-01  0.89076516522E+00  0.88000000000E+00 0. -1.
        -11    1    4    4    0    0  0.12398205917E+00 -0.64978260742E-02 -0.16131438187E-01  0.12519687360E+00  0.51100000000E-03 0.  1.
         11    1    4    4    0    0  0.63221295107E-03 -0.93766286337E-02 -0.23948499324E-02  0.97117086524E-02  0.51100000000E-03 0. -1.
</event>
<event>
 8    1  0.1993226E+004  0.1043930E+01  0.7957747E-01            NaN
         13   -1    0    0    0    0  0.00000000000E+00  0.00000000000E+00  0.74505805969E-08  0.10566000000E+00  0.10566000000E+00 0. -1.
     999900   -1    0    0    0    0 -0.00000000000E+00 -0.00000000000E+00 -0.74505805969E-08  0.93827000000E+00  0.93827000000E+00 0.  1.
     999902    2    1    2    0    0 -0.55850866483E-02 -0.65732940874E-02 -0.10856061102E-01  0.10300643788E+01  0.10299710525E+01 0.  0.
     999903    2    3    3    0    0  0.13072253686E+00 -0.20371615430E-01  0.77506942331E-02  0.13926901891E+00  0.42806565025E-01 0.  0.
         14    1    1    2    0    0  0.55850866483E-02  0.65732940874E-02  0.10856061102E-01  0.13865621179E-01  0.00000000000E+00 0. -1.
     999901    1    3    3    0    0 -0.13630762350E+00  0.13798321342E-01 -0.18606755335E-01  0.89079535991E+00  0.88000000000E+00 0.  1.
        -11    1    4    4    0    0  0.88499618596E-01  0.16639985139E-02 -0.85459810515E-02  0.88928321112E-01  0.51100000000E-03 0. -1.
         11    1    4    4    0    0  0.42222918260E-01 -0.22035613944E-01  0.16296675285E-01  0.50340697796E-01  0.51100000000E-03 0.  1.
</event>
<event>
 8    1  0.1993226E+004  0.1043930E+01  0.7957747E-01            NaN
         13   -1    0    0    0    0  0.00000000000E+00  0.00000000000E+00  0.74505805969E-08  0.10566000000E+00  0.10566000000E+00 0. -1.
     999900   -1    0    0    0    0 -0.00000000000E+00 -0.00000000000E+00 -0.74505805969E-08  0.93827000000E+00  0.93827000000E+00 0. -1.
     999902    2    1    2    0    0  0.85549652403E-02  0.80499035452E-02 -0.19704273228E-01  0.10209899311E+01  0.10207321846E+01 0.  0.
     999903    2    3    3    0    0 -0.66274450355E-01  0.93355108619E-01 -0.50197135322E-01  0.13318013499E+00  0.45931654501E-01 0.  0.
         14    1    1    2    0    0 -0.85549652403E-02 -0.80499035452E-02  0.19704273228E-01  0.22940068893E-01  0.00000000000E+00 0. -1.
     999901    1    3    3    0    0  0.74829415595E-01 -0.85305205073E-01  0.30492862094E-01  0.88780979612E+00  0.88000000000E+00 0. -1.
        -11    1    4    4    0    0 -0.19808235707E-01  0.88491519320E-03 -0.92278223203E-02  0.21876085173E-01  0.51100000000E-03 0.  1.
         11    1    4    4    0    0 -0.46466214648E-01  0.92470193425E-01 -0.40969313002E-01  0.11130404981E+00  0.51100000000E-03 0. -1.
</event>
<event>
 8    1  0.1993226E+004  0.1043930E+01  0.7957747E-01            NaN
         13   -1    0    0    0    0  0.00000000000E+00  0.00000000000E+00  0.74505805969E-08  0.10566000000E+00  0.10566000000E+00 0.  1.
     999900   -1    0    0    0    0 -0.00000000000E+00 -0.00000000000E+00 -0.74505805969E-08  0.93827000000E+00  0.93827000000E+00 0.  1.
     999902    2    1    2    0    0 -0.11499841298E-03 -0.12288661644E-01 -0.55705938250E-02  0.10304371891E+01  0.10303488462E+01 0.  0.
     999903    2    3    3    0    0  0.38638390650E-01  0.24763575742E-01  0.12367463447E+00  0.13938218381E+00  0.45009088401E-01 0.  0.
         14    1    1    2    0    0  0.11499841298E-03  0.12288661644E-01  0.55705938250E-02  0.13492810871E-01  0.00000000000E+00 0.  1.
     999901    1    3    3    0    0 -0.38753389063E-01 -0.37052237386E-01 -0.12924522829E+00  0.89105500531E+00  0.88000000000E+00 0.  1.
        -11    1    4    4    0    0  0.18625859680E-01  0.19704124722E-01  0.20064498360E-01  0.33734557880E-01  0.51100000000E-03 0. -1.
         11    1    4    4    0    0  0.20012530970E-01  0.50594510195E-02  0.10361013611E+00  0.10564762593E+00  0.51100000000E-03 0.  1.
</event>
<event>
 8    1  0.1993226E+004  0.1043930E+01  0.7957747E-01            NaN
         13   -1    0    0    0    0  0.00000000000E+00  0.00000000000E+00  0.74505805969E-08  0.10566000000E+00  0.10566000000E+00 0. -1.
     999900   -1    0    0    0    0 -0.00000000000E+00 -0.00000000000E+00 -0.74505805969E-08  0.93827000000E+00  0.93827000000E+00 0. -1.
     999902    2    1    2    0    0  0.94043213213E-02 -0.10247347398E-01  0.10769150059E-02  0.10299797622E+01  0.10298852856E+01 0.  0.
     999903    2    3    3    0    0 -0.11029138357E-01 -0.10396802227E+00  0.84222212303E-01  0.14087108965E+00  0.42664872059E-01 0.  0.
         14    1    1    2    0    0 -0.94043213213E-02  0.10247347398E-01 -0.10769150059E-02  0.13950237781E-01  0.00000000000E+00 0. -1.
     999901    1    3    3    0    0  0.20433459678E-01  0.93720674867E-01 -0.83145297297E-01  0.88910867257E+00  0.88000000000E+00 0. -1.
        -11    1    4    4    0    0  0.13511144406E-01 -0.60699534036E-01  0.37467126898E-01  0.72601867568E-01  0.51100000000E-03 0. -1.
         11    1    4    4    0    0 -0.24540282762E-01 -0.43268488229E-01  0.46755085405E-01  0.68269222084E-01  0.51100000000E-03 0.  1.
</event>
<event>
 8    1  0.1993226E+004  0.1043930E+01  0.7957747E-01            NaN
         13   -1    0    0    0    0  0.00000000000E+00  0.00000000000E+00  0.74505805969E-08  0.10566000000E+00  0.10566000000E+00 0.  1.
     999900   -1    0    0    0    0 -0.00000000000E+00 -0.00000000000E+00 -0.74505805969E-08  0.93827000000E+00  0.93827000000E+00 0. -1.
     999902    2    1    2    0    0  0.11559007627E-01 -0.46479598025E-02  0.80987931570E-02  0.10290705034E+01  0.10289632143E+01 0.  0.
     999903    2    3    3    0    0 -0.11115960084E+00  0.81614883169E-02 -0.66380158480E-01  0.13734686179E+00  0.45108405570E-01 0.  0.
         14    1    1    2    0    0 -0.11559007627E-01  0.46479598025E-02 -0.80987931570E-02  0.14859496568E-01  0.00000000000E+00 0. -1.
     999901    1    3    3    0    0  0.12271860847E+00 -0.12809448119E-01  0.74478951637E-01  0.89172364164E+00  0.88000000000E+00 0. -1.
        -11    1    4    4    0    0 -0.65670631404E-01  0.12259244348E-01 -0.62536269310E-01  0.91509382040E-01  0.51100000000E-03 0.  1.
         11    1    4    4    0    0 -0.45488969438E-01 -0.40977560307E-02 -0.38438891693E-02  0.45837479751E-01  0.51100000000E-03 0. -1.
</event>
<event>
 8    1  0.1993226E+004  0.1043930E+01  0.7957747E-01            NaN
         13   -1    0    0    0    0  0.00000000000E+00  0.00000000000E+00  0.74505805969E-08  0.10566000000E+00  0.10566000000E+00 0.  1.
     999900   -1    0    0    0    0 -0.00000000000E+00 -0.00000000000E+00 -0.74505805969E-08  0.93827000000E+00  0.93827000000E+00 0.  1.
     999902    2    1    2    0    0 -0.12043348151E-01  0.52996489295E-02  0.32194344481E-02  0.10303840312E+01  0.10302949861E+01 0.  0.
     999903    2    3    3    0    0 -0.60455429799E-01 -0.10209626624E+00  0.63038148066E-01  0.14052118177E+00  0.41156868704E-01 0.  0.
         14    1    1    2    0    0  0.12043348151E-01 -0.52996489295E-02 -0.32194344481E-02  0.13545968833E-01  0.00000000000E+00 0. -1.
     999901    1    3    3    0    0  0.48412081648E-01  0.10739591517E+00 -0.59818713618E-01  0.88986284940E+00  0.88000000000E+00 0.  1.
        -11    1    4    4    0    0 -0.24964472140E-01 -0.10326494169E-01  0.10601853001E-01  0.29026225368E-01  0.51100000000E-03 0. -1.
         11    1    4    4    0    0 -0.35490957659E-01 -0.91769772069E-01  0.52436295065E-01  0.11149495640E+00  0.51100000000E-03 0.  1.
</event>
<event>
 8    1  0.1993226E+004  0.1043930E+01  0.7957747E-01            NaN
         13   -1    0    0    0    0  0.00000000000E+00  0.00000000000E+00  0.74505805969E-08  0.10566000000E+00  0.10566000000E+00 0. -1.
     999900   -1    0    0    0    0 -0.00000000000E+00 -0.00000000000E+00 -0.74505805969E-08  0.93827000000E+00  0.93827000000E+00 0.  1.
     999902    2    1    2    0    0 -0.68193714957E-02 -0.97947419921E-02 -0.60951424508E-02  0.10305288224E+01  0.10304416831E+01 0.  0.
     999903    2    3    3    0    0  0.58324369167E-01 -0.93169079251E-01  0.74956980453E-01  0.14049262448E+00  0.45137780717E-01 0.  0.
         14    1    1    2    0    0  0.68193714957E-02  0.97947419921E-02  0.60951424508E-02  0.13401177552E-01  0.00000000000E+00 0. -1.
     999901    1    3    3    0    0 -0.65143740663E-01  0.83374337259E-01 -0.81052122904E-01  0.89003619797E+00  0.88000000000E+00 0.  1.
        -11    1    4    4    0    0  0.38327502559E-01 -0.73561030821E-01  0.31372624382E-01  0.88683286979E-01  0.51100000000E-03 0. -1.
         11    1    4    4    0    0  0.19996866608E-01 -0.19608048430E-01  0.43584356071E-01  0.51809337503E-01  0.51100000000E-03 0.  1.
</event>
<event>
 8    1  0.1993226E+004  0.1043930E+01  0.7957747E-01            NaN
         13   -1    0    0    0    0  0.00000000000E+00  0.00000000000E+00  0.74505805969E-08  0.10566000000E+00  0.10566000000E+00 0. -1.
     999900   -1    0    0    0    0 -0.00000000000E+00 -0.00000000000E+00 -0.74505805969E-08  0.93827000000E+00  0.93827000000E+00 0. -1.
     999902    2    1    2    0    0 -0.13647399888E-01  0.16766622833E-02  0.57299862672E-02  0.10290338440E+01  0.10289260210E+01 0.  0.
     999903    2    3    3    0    0 -0.10253311991E+00 -0.41202702657E-01 -0.73432570032E-01  0.13998602671E+00  0.44643498387E-01 0.  0.
         14    1    1    2    0    0  0.13647399888E-01 -0.16766622833E-02 -0.57299862672E-02  0.14896155972E-01  0.00000000000E+00 0.  1.
     999901    1    3    3    0    0  0.88885720018E-01  0.42879364941E-01  0.79162556299E-01  0.88904781732E+00  0.88000000000E+00 0. -1.
        -11    1    4    4    0    0 -0.23300578180E-01 -0.29816054313E-01 -0.33449068568E-01  0.50507577128E-01  0.51100000000E-03 0.  1.
         11    1    4    4    0    0 -0.79232541727E-01 -0.11386648344E-01 -0.39983501464E-01  0.89478449580E-01  0.51100000000E-03 0. -1.
</event>
<event>
 8    1  0.1993226E+004  0.1043930E+01  0.7957747E-01            NaN
         13   -1    0    0    0    0  0.00000000000E+00  0.00000000000E+00  0.74505805969E-08  0.10566000000E+00  0.10566000000E+00 0.  1.
     999900   -1    0    0    0    0 -0.00000000000E+00 -0.00000000000E+00 -0.74505805969E-08  0.93827000000E+00  0.93827000000E+00 0.  1.
     999902    2    1    2    0    0  0.73782626611E-02  0.11236315082E-01  0.33561617380E-02  0.10300751323E+01  0.10299819517E+01 0.  0.
     999903    2    3    3    0    0  0.17472374053E-01  0.12161305140E+00  0.55182333611E-01  0.14160967600E+00  0.43740053367E-01 0.  0.
         14    1    1    2    0    0 -0.73782626611E-02 -0.11236315082E-01 -0.33561617380E-02  0.13854867669E-01  0.00000000000E+00 0.  1.
     999901    1    3    3    0    0 -0.10094111392E-01 -0.11037673631E+00 -0.51826171873E-01  0.88846545633E+00  0.88000000000E+00 0.  1.
        -11    1    4    4    0    0  0.19640444317E-01  0.96547450061E-01  0.23755919022E-01  0.10134970141E+00  0.51100000000E-03 0. -1.
         11    1    4    4    0    0 -0.21680702634E-02  0.25065601336E-01  0.31426414589E-01  0.40259974589E-01  0.51100000000E-03 0.  1.
</event>
<event>
 7    1  0.1993226E+004  0.1043930E+01  0.7957747E-01            NaN
         13   -1    0    0    0    0  0.00000000000E+00  0.00000000000E+00  0.74505805969E-08  0.10566000000E+00  0.10566000000E+00 0.  1.
     999900   -1    0    0    0    0 -0.00000000000E+00 -0.00000000000E+00 -0.74505805969E-08  0.93827000000E+00  0.93827000000E+00 0.  1.
     999902    2    1    2    0    0 -0.71909335958E-02 -0.84641984127E-02 -0.77492619911E-02  0.10303873547E+01  0.10302983536E+01 0.  0.
         14    1    1    2    0    0  0.71909335958E-02  0.84641984127E-02  0.77492619911E-02  0.13542645316E-01  0.00000000000E+00 0. -1.
     999901    1    3    3    0    0  0.75115392816E-01  0.91665008018E-01 -0.54711543080E-01  0.88962809582E+00  0.88000000000E+00 0.  1.
        -11    1    3    3    0    0 -0.71783721373E-01 -0.70168722708E-01  0.41062909992E-01  0.10845725425E+00  0.51100000000E-03 0. -1.
         11    1    3    3    0    0 -0.10522605039E-01 -0.29960483723E-01  0.58993710972E-02  0.32302004614E-01  0.51100000000E-03 0.  1.
</event>
<event>
 8    1  0.1993226E+004  0.1043930E+01  0.7957747E-01            NaN
         13   -1    0    0    0    0  0.00000000000E+00  0.00000000000E+00  0.74505805969E-08  0.10566000000E+00  0.10566000000E+00 0. -1.
     999900   -1    0    0    0    0 -0.00000000000E+00 -0.00000000000E+00 -0.74505805969E-08  0.93827000000E+00  0.93827000000E+00 0.  1.
     999902    2    1    2    0    0 -0.11588381624E-01  0.67716015044E-02  0.56439857480E-02  0.10293697888E+01  0.10292668081E+01 0.  0.
     999903    2    3    3    0    0 -0.12408116885E+00 -0.45533169942E-01  0.14529165204E-01  0.14062383931E+00  0.45766379711E-01 0.  0.
         14    1    1    2    0    0  0.11588381624E-01 -0.67716015044E-02 -0.56439857480E-02  0.14560211218E-01  0.00000000000E+00 0.  1.
     999901    1    3    3    0    0  0.11249278723E+00  0.52304771447E-01 -0.88851794557E-02  0.88874594947E+00  0.88000000000E+00 0.  1.
        -11    1    4    4    0    0 -0.20809061444E-01 -0.26928769871E-01  0.10469237034E-01  0.35609573573E-01  0.51100000000E-03 0. -1.
         11    1    4    4    0    0 -0.10327210741E+00 -0.18604400071E-01  0.40599281695E-02  0.10501426573E+00  0.51100000000E-03 0.  1.
</event>
<event>
 8    1  0.1993226E+004  0.1043930E+01  0.7957747E-01            NaN
         13   -1    0    0    0    0  0.00000000000E+00  0.00000000000E+00  0.74505805969E-08  0.10566000000E+00  0.10566000000E+00 0.  1.
     999900   -1    0    0    0    0 -0.00000000000E+00 -0.00000000000E+00 -0.74505805969E-08  0.93827000000E+00  0.93827000000E+00 0. -1.
     999902    2    1    2    0    0 -0.91787833173E-03  0.12261903608E-01 -0.54953108503E-02  0.10304616957E+01  0.10303736754E+01 0.  0.
     999903    2    3    3    0    0  0.12645540826E+00  0.40921283074E-01  0.91460830690E-02  0.14070909825E+00  0.45275576272E-01 0.  0.
         14    1    1    2    0    0  0.91787833173E-03 -0.12261903608E-01  0.54953108503E-02  0.13468304350E-01  0.00000000000E+00 0.  1.
     999901    1    3    3    0    0 -0.12737328659E+00 -0.28659379466E-01 -0.14641393919E-01  0.88975259740E+00  0.88000000000E+00 0.  1.
        -11    1    4    4    0    0  0.11482144951E+00  0.38267150941E-01 -0.62864409564E-02  0.12119455669E+00  0.51100000000E-03 0. -1.
         11    1    4    4    0    0  0.11633958750E-01  0.26541321333E-02  0.15432524025E-01  0.19514541562E-01  0.51100000000E-03 0.  1.
</event>
<event>
 8    1  0.1993226E+004  0.1043930E+01  0.7957747E-01            NaN
         13   -1    0    0    0    0  0.00000000000E+00  0.00000000000E+00  0.74505805969E-08  0.10566000000E+00  0.10566000000E+00 0. -1.
     999900   -1    0    0    0    0 -0.00000000000E+00 -0.00000000000E+00 -0.74505805969E-08  0.93827000000E+00  0.93827000000E+00 0.  1.
     999902    2    1    2    0    0 -0.40745964130E-02 -0.19537332352E-01 -0.55740104894E-02  0.10232085308E+01  0.10229986893E+01 0.  0.
     999903    2    3    3    0    0 -0.75098787390E-01 -0.10335719321E+00 -0.15121864854E-01  0.13632558123E+00  0.45093858172E-01 0.  0.
         14    1    1    2    0    0  0.40745964130E-02  0.19537332352E-01  0.55740104894E-02  0.20721469163E-01  0.00000000000E+00 0.  1.
     999901    1    3    3    0    0  0.71024190977E-01  0.83819860862E-01  0.95478543651E-02  0.88688294961E+00  0.88000000000E+00 0. -1.
        -11    1    4    4    0    0 -0.29626995769E-01 -0.48188094548E-01  0.15338223763E-01  0.58612059882E-01  0.51100000000E-03 0. -1.
         11    1    4    4    0    0 -0.45471791621E-01 -0.55169098666E-01 -0.30460088617E-01  0.77713521349E-01  0.51100000000E-03 0.  1.
</event>
<event>
 8    1  0.1993226E+004  0.1043930E+01  0.7957747E-01            NaN
         13   -1    0    0    0    0  0.00000000000E+00  0.00000000000E+00  0.74505805969E-08  0.10566000000E+00  0.10566000000E+00 0. -1.
     999900   -1    0    0    0    0 -0.00000000000E+00 -0.00000000000E+00 -0.74505805969E-08  0.93827000000E+00  0.93827000000E+00 0.  1.
     999902    2    1    2    0    0  0.26781215740E-03 -0.22694788592E-02  0.13134607909E-01  0.10305980766E+01  0.10305118414E+01 0.  0.
     999903    2    3    3    0    0  0.66090200676E-01 -0.11553575813E+00  0.51850303465E-02  0.14086495217E+00  0.45821656221E-01 0.  0.
         14    1    1    2    0    0 -0.26781215740E-03  0.22694788592E-02 -0.13134607909E-01  0.13331923438E-01  0.00000000000E+00 0.  1.
     999901    1    3    3    0    0 -0.65822388519E-01  0.11326627927E+00  0.79495775624E-02  0.88973312439E+00  0.88000000000E+00 0.  1.
        -11    1    4    4    0    0  0.70037571303E-01 -0.10721609753E+00  0.13070186356E-01  0.12873089705E+00  0.51100000000E-03 0. -1.
         11    1    4    4    0    0 -0.39473706269E-02 -0.83196606003E-02 -0.78851560094E-02  0.12134055120E-01  0.51100000000E-03 0.  1.
</event>
<event>
 8    1  0.1993226E+004  0.1043930E+01  0.7957747E-01            NaN
         13   -1    0    0    0    0  0.00000000000E+00  0.00000000000E+00  0.74505805969E-08  0.10566000000E+00  0.10566000000E+00 0. -1.
     999900   -1    0    0    0    0 -0.00000000000E+00 -0.00000000000E+00 -0.74505805969E-08  0.93827000000E+00  0.93827000000E+00 0.  1.
     999902    2    1    2    0    0  0.99744623922E-02  0.89031767905E-02 -0.19352147870E-02  0.10304206879E+01  0.10303321273E+01 0.  0.
     999903    2    3    3    0    0  0.10611221213E+00  0.45135427184E-01 -0.69306854459E-01  0.14188583731E+00  0.45068197254E-01 0.  0.
         14    1    1    2    0    0 -0.99744623922E-02 -0.89031767905E-02  0.19352147870E-02  0.13509312094E-01  0.00000000000E+00 0.  1.
     999901    1    3    3    0    0 -0.96137749738E-01 -0.36232250393E-01  0.67371639673E-01  0.88853485060E+00  0.88000000000E+00 0. -1.
        -11    1    4    4    0    0  0.78294517966E-01  0.11042135689E-01 -0.51792762069E-01  0.94523603549E-01  0.51100000000E-03 0.  1.
         11    1    4    4    0    0  0.27817694164E-01  0.34093291494E-01 -0.17514092390E-01  0.47362233761E-01  0.51100000000E-03 0. -1.
</event>
<event>
 7    1  0.1993226E+004  0.1043930E+01  0.7957747E-01            NaN
         13   -1    0    0    0    0  0.00000000000E+00  0.00000000000E+00  0.74505805969E-08  0.10566000000E+00  0.10566000000E+00 0. -1.
     999900   -1    0    0    0    0 -0.00000000000E+00 -0.00000000000E+00 -0.74505805969E-08  0.93827000000E+00  0.93827000000E+00 0.  1.
     999903    2    1    2    0    0  0.95958225787E-01  0.30183243905E-01  0.86756549186E-03  0.11018114106E+00  0.44945765827E-01 0.  0.
         14    1    1    2    0    0 -0.21463693442E-02  0.33860333847E-01 -0.30970236243E-01  0.45937834543E-01  0.00000000000E+00 0.  1.
     999901    1    1    2    0    0 -0.93811856443E-01 -0.64043577751E-01  0.30102670751E-01  0.88781102440E+00  0.88000000000E+00 0. -1.
        -11    1    3    3    0    0  0.40567896161E-01  0.32949515698E-01  0.11970880196E-01  0.53618913430E-01  0.51100000000E-03 0.  1.
         11    1    3    3    0    0  0.55390329626E-01 -0.27662717933E-02 -0.11103314704E-01  0.56562227627E-01  0.51100000000E-03 0. -1.
</event>
<event>
 8    1  0.1993226E+004  0.1043930E+01  0.7957747E-01            NaN
         13   -1    0    0    0    0  0.00000000000E+00  0.00000000000E+00  0.74505805969E-08  0.10566000000E+00  0.10566000000E+00 0.  1.
     999900   -1    0    0    0    0 -0.00000000000E+00 -0.00000000000E+00 -0.74505805969E-08  0.93827000000E+00  0.93827000000E+00 0.  1.
     999902    2    1    2    0    0  0.68702502358E-02 -0.11412844721E-01  0.36263097099E-02  0.10301240779E+01  0.10300315589E+01 0.  0.
     999903    2    3    3    0    0  0.10527071914E+00  0.69505510619E-01  0.39489397393E-01  0.14022712119E+00  0.46811245397E-01 0.  0.
         14    1    1    2    0    0 -0.68702502358E-02  0.11412844721E-01 -0.36263097099E-02  0.13805922101E-01  0.00000000000E+00 0. -1.
     999901    1    3    3    0    0 -0.98400468900E-01 -0.80918355340E-01 -0.35863087683E-01  0.88989695671E+00  0.88000000000E+00 0.  1.
        -11    1    4    4    0    0  0.34206201681E-01  0.26228597093E-01  0.37279257930E-01  0.56991295227E-01  0.51100000000E-03 0.  1.
         11    1    4    4    0    0  0.71064517455E-01  0.43276913526E-01  0.22101394636E-02  0.83235825958E-01  0.51100000000E-03 0. -1.
</event>
<event>
 8    1  0.1993226E+004  0.1043930E+01  0.7957747E-01            NaN
         13   -1    0    0    0    0  0.00000000000E+00  0.00000000000E+00  0.74505805969E-08  0.10566000000E+00  0.10566000000E+00 0.  1.
     999900   -1    0    0    0    0 -0.00000000000E+00 -0.00000000000E+00 -0.74505805969E-08  0.93827000000E+00  0.93827000000E+00 0.  1.
     999902    2    1    2    0    0  0.71210544549E-02  0.10249976938E-02  0.11122498263E-01  0.10306834909E+01  0.10305983642E+01 0.  0.
     999903    2    3    3    0    0  0.22357900541E-01 -0.19757025522E-01  0.13150526017E+00  0.14211381811E+00  0.44860763160E-01 0.  0.
         14    1    1    2    0    0 -0.71210544549E-02 -0.10249976938E-02 -0.11122498263E-01  0.13246509141E-01  0.00000000000E+00 0. -1.
     999901    1    3    3    0    0 -0.15236846086E-01  0.20782023216E-01 -0.12038276191E+00  0.88856967275E+00  0.88000000000E+00 0.  1.
        -11    1    4    4    0    0  0.75443397371E-02 -0.76563083240E-02  0.11847783002E+00  0.11896551368E+00  0.51100000000E-03 0. -1.
         11    1    4    4    0    0  0.14813560804E-01 -0.12100717198E-01  0.13027430150E-01  0.23148304424E-01  0.51100000000E-03 0.  1.
</event>
<event>
 8    1  0.1993226E+004  0.1043930E+01  0.7957747E-01            NaN
         13   -1    0    0    0    0  0.00000000000E+00  0.00000000000E+00  0.74505805969E-08  0.10566000000E+00  0.10566000000E+00 0. -1.
     999900   -1    0    0    0    0 -0.00000000000E+00 -0.00000000000E+00 -0.74505805969E-08  0.93827000000E+00  0.93827000000E+00 0.  1.
     999902    2    1    2    0    0  0.49962937340E-02  0.43061730784E-02 -0.14211287829E-01  0.10282626205E+01  0.10281432536E+01 0.  0.
     999903    2    3    3    0    0 -0.12350489072E+00  0.35567549107E-01  0.21053539724E-01  0.13768222770E+00  0.44661344672E-01 0.  0.
         14    1    1    2    0    0 -0.49962937340E-02 -0.43061730784E-02  0.14211287829E-01  0.15667379469E-01  0.00000000000E+00 0. -1.
     999901    1    3    3    0    0  0.12850118445E+00 -0.31261376029E-01 -0.35264827553E-01  0.89058039283E+00  0.88000000000E+00 0.  1.
        -11    1    4    4    0    0 -0.32608573093E-01  0.16235750182E-01 -0.13041412959E-01  0.38694420736E-01  0.51100000000E-03 0. -1.
         11    1    4    4    0    0 -0.90896317626E-01  0.19331798926E-01  0.34094952683E-01  0.98987806962E-01  0.51100000000E-03 0.  1.
</event>
<event>
 8    1  0.1993226E+004  0.1043930E+01  0.7957747E-01            NaN
         13   -1    0    0    0    0  0.00000000000E+00  0.00000000000E+00  0.74505805969E-08  0.10566000000E+00  0.10566000000E+00 0.  1.
     999900   -1    0    0    0    0 -0.00000000000E+00 -0.00000000000E+00 -0.74505805969E-08  0.93827000000E+00  0.93827000000E+00 0.  1.
     999902    2    1    2    0    0  0.33326389296E-02 -0.65677770502E-02 -0.12132765580E-01  0.10297368264E+01  0.10296390073E+01 0.  0.
     999903    2    3    3    0    0 -0.33737810632E-01 -0.10454675278E+00  0.73271911684E-01  0.13941775051E+00  0.44724408676E-01 0.  0.
         14    1    1    2    0    0 -0.33326389296E-02  0.65677770502E-02  0.12132765580E-01  0.14193173649E-01  0.00000000000E+00 0.  1.
     999901    1    3    3    0    0  0.37070449562E-01  0.97978975728E-01 -0.85404677264E-01  0.89031907585E+00  0.88000000000E+00 0.  1.
        -11    1    4    4    0    0 -0.14183579189E-01 -0.83964350814E-01  0.71108212209E-01  0.11094063769E+00  0.51100000000E-03 0.  1.
         11    1    4    4    0    0 -0.19554231443E-01 -0.20582401964E-01  0.21636994748E-02  0.28477112816E-01  0.51100000000E-03 0. -1.
</event>
<event>
 8    1  0.1993226E+004  0.1043930E+01  0.7957747E-01            NaN
         13   -1    0    0    0    0  0.00000000000E+00  0.00000000000E+00  0.74505805969E-08  0.10566000000E+00  0.10566000000E+00 0. -1.
     999900   -1    0    0    0    0 -0.00000000000E+00 -0.00000000000E+00 -0.74505805969E-08  0.93827000000E+00  0.93827000000E+00 0.  1.
     999902    2    1    2    0    0  0.15297158652E-01 -0.61230525073E-02  0.15878358563E-01  0.10210473187E+01  0.10207908747E+01 0.  0.
     999903    2    3    3    0    0  0.10207615385E+00  0.63127412573E-01 -0.34276541244E-01  0.13265453678E+00  0.44919187926E-01 0.  0.
         14    1    1    2    0    0 -0.15297158652E-01  0.61230525073E-02 -0.15878358563E-01  0.22882681344E-01  0.00000000000E+00 0.  1.
     999901    1    3    3    0    0 -0.86778995202E-01 -0.69250465080E-01  0.50154899807E-01  0.88839278188E+00  0.88000000000E+00 0.  1.
        -11    1    4    4    0    0  0.63428956914E-01  0.17873363497E-01 -0.43596769474E-02  0.66045117927E-01  0.51100000000E-03 0.  1.
         11    1    4    4    0    0  0.38647196940E-01  0.45254049076E-01 -0.29916864297E-01  0.66609418849E-01  0.51100000000E-03 0. -1.
</event>
<event>
 8    1  0.1993226E+004  0.1043930E+01  0.7957747E-01            NaN
         13   -1    0    0    0    0  0.00000000000E+00  0.00000000000E+00  0.74505805969E-08  0.10566000000E+00  0.10566000000E+00 0.  1.
     999900   -1    0    0    0    0 -0.00000000000E+00 -0.00000000000E+00 -0.74505805969E-08  0.93827000000E+00  0.93827000000E+00 0. -1.
     999902    2    1    2    0    0  0.28518357553E-02  0.26378564207E-02 -0.13421748822E-01  0.10299573626E+01  0.10298625803E+01 0.  0.
     999903    2    3    3    0    0  0.33978652529E-01  0.74793506137E-02 -0.12976423394E+00  0.14174123317E+00  0.45181094036E-01 0.  0.
         14    1    1    2    0    0 -0.28518357553E-02 -0.26378564207E-02  0.13421748822E-01  0.13972637371E-01  0.00000000000E+00 0.  1.
     999901    1    3    3    0    0 -0.31126816774E-01 -0.48414941930E-02  0.11634248511E+00  0.88821612946E+00  0.88000000000E+00 0. -1.
        -11    1    4    4    0    0  0.91192173166E-02  0.23712006718E-01 -0.78356561052E-01  0.82373728627E-01  0.51100000000E-03 0. -1.
         11    1    4    4    0    0  0.24859435212E-01 -0.16232656104E-01 -0.51407672884E-01  0.59367504543E-01  0.51100000000E-03 0.  1.
</event>
<event>
 7    1  0.1993226E+004  0.1043930E+01  0.7957747E-01            NaN
         13   -1    0    0    0    0  0.00000000000E+00  0.00000000000E+00  0.74505805969E-08  0.10566000000E+00  0.10566000000E+00 0.  1.
     999900   -1    0    0    0    0 -0.00000000000E+00 -0.00000000000E+00 -0.74505805969E-08  0.93827000000E+00  0.93827000000E+00 0. -1.
     999903    2    1    2    0    0 -0.32859788094E-02  0.74154846192E-01 -0.92397337275E-01  0.12682126528E+00  0.45128998659E-01 0.  0.
         14    1    1    2    0    0 -0.10900293899E-01  0.11661253311E-01  0.25770979854E-01  0.30314099665E-01  0.00000000000E+00 0.  1.
     999901    1    1    2    0    0  0.14186272708E-01 -0.85816099503E-01  0.66626357421E-01  0.88679463506E+00  0.88000000000E+00 0. -1.
        -11    1    3    3    0    0  0.13426232386E-01  0.34932410254E-01 -0.68203194738E-01  0.77797647109E-01  0.51100000000E-03 0. -1.
         11    1    3    3    0    0 -0.16712211196E-01  0.39222435939E-01 -0.24194142537E-01  0.49023618167E-01  0.51100000000E-03 0.  1.
</event>
<event>
 8    1  0.1993226E+004  0.1043930E+01  0.7957747E-01            NaN
         13   -1    0    0    0    0  0.00000000000E+00  0.00000000000E+00  0.74505805969E-08  0.10566000000E+00  0.10566000000E+00 0. -1.
     999900   -1    0    0    0    0 -0.00000000000E+00 -0.00000000000E+00 -0.74505805969E-08  0.93827000000E+00  0.93827000000E+00 0.  1.
     999902    2    1    2    0    0  0.51803657920E-02  0.11012114499E-01 -0.40457589161E-02  0.10311053744E+01  0.10310256166E+01 0.  0.
     999903    2    3    3    0    0  0.71221581758E-03 -0.12862399313E+00  0.29576743158E-01  0.13945035171E+00  0.45021972364E-01 0.  0.
         14    1    1    2    0    0 -0.51803657920E-02 -0.11012114499E-01  0.40457589161E-02  0.12824625557E-01  0.00000000000E+00 0.  1.
     999901    1    3    3    0    0  0.44681499744E-02  0.13963610763E+00 -0.33622502074E-01  0.89165502273E+00  0.88000000000E+00 0.  1.
        -11    1    4    4    0    0  0.20924817031E-02 -0.10581085019E+00  0.50960027003E-02  0.10595539091E+00  0.51100000000E-03 0. -1.
         11    1    4    4    0    0 -0.13802658855E-02 -0.22813142940E-01  0.24480740458E-01  0.33494960801E-01  0.51100000000E-03 0.  1.
</event>
<event>
 8    1  0.1993226E+004  0.1043930E+01  0.7957747E-01            NaN
         13   -1    0    0    0    0  0.00000000000E+00  0.00000000000E+00  0.74505805969E-08  0.10566000000E+00  0.10566000000E+00 0. -1.
     999900   -1    0    0    0    0 -0.00000000000E+00 -0.00000000000E+00 -0.74505805969E-08  0.93827000000E+00  0.93827000000E+00 0.  1.
     999902    2    1    2    0    0 -0.15419792449E-02  0.52159100562E-02 -0.12830569677E-01  0.10299941851E+01  0.10298999051E+01 0.  0.
     999903    2    3    3    0    0  0.20228370675E-01  0.10016510972E+00 -0.86300371389E-01  0.14157586564E+00  0.46408355317E-01 0.  0.
         14    1    1    2    0    0  0.15419792449E-02 -0.52159100562E-02  0.12830569677E-01  0.13935814865E-01  0.00000000000E+00 0. -1.
     999901    1    3    3    0    0 -0.21770349920E-01 -0.94949199668E-01  0.73469801711E-01  0.88841831950E+00  0.88000000000E+00 0. -1.
        -11    1    4    4    0    0  0.84387995207E-02  0.35208580070E-01 -0.45467708151E-02  0.36493721292E-01  0.51100000000E-03 0.  1.
         11    1    4    4    0    0  0.11789571154E-01  0.64956529654E-01 -0.81753600573E-01  0.10508214435E+00  0.51100000000E-03 0. -1.
</event>
<event>
 8    1  0.1993226E+004  0.1043930E+01  0.7957747E-01            NaN
         13   -1    0    0    0    0  0.00000000000E+00  0.00000000000E+00  0.74505805969E-08  0.10566000000E+00  0.10566000000E+00 0. -1.
     999900   -1    0    0    0    0 -0.00000000000E+00 -0.00000000000E+00 -0.74505805969E-08  0.93827000000E+00  0.93827000000E+00 0.  1.
     999902    2    1    2    0    0 -0.12458747041E-01 -0.68248409850E-02  0.22311757587E-02  0.10295502581E+01  0.10294498322E+01 0.  0.
     999903    2    3    3    0    0  0.12784908371E+00  0.23289406117E-01 -0.93123881827E-02  0.13785164918E+00  0.45039671013E-01 0.  0.
         14    1    1    2    0    0  0.12458747041E-01  0.68248409850E-02 -0.22311757587E-02  0.14379741916E-01  0.00000000000E+00 0.  1.
     999901    1    3    3    0    0 -0.14030783075E+00 -0.30114247102E-01  0.11543563941E-01  0.89169860890E+00  0.88000000000E+00 0.  1.
        -11    1    4    4    0    0  0.73552204093E-01  0.14336335012E-01 -0.27601662622E-01  0.79859690263E-01  0.51100000000E-03 0. -1.
         11    1    4    4    0    0  0.54296879621E-01  0.89530711058E-02  0.18289274439E-01  0.57991958919E-01  0.51100000000E-03 0.  1.
</event>
<event>
 8    1  0.1993226E+004  0.1043930E+01  0.7957747E-01            NaN
         13   -1    0    0    0    0  0.00000000000E+00  0.00000000000E+00  0.74505805969E-08  0.10566000000E+00  0.10566000000E+00 0.  1.
     999900   -1    0    0    0    0 -0.00000000000E+00 -0.00000000000E+00 -0.74505805969E-08  0.93827000000E+00  0.93827000000E+00 0.  1.
     999902    2    1    2    0    0  0.12842519012E-01 -0.40115345236E-02 -0.11564452492E-02  0.10304259240E+01  0.10303374325E+01 0.  0.
     999903    2    3    3    0    0  0.48683855803E-01  0.12833945609E-01 -0.12399965761E+00  0.14101104527E+00  0.44422649926E-01 0.  0.
         14    1    1    2    0    0 -0.12842519012E-01  0.40115345236E-02  0.11564452492E-02  0.13504076030E-01  0.00000000000E+00 0. -1.
     999901    1    3    3    0    0 -0.35841336791E-01 -0.16845480133E-01  0.12284321236E+00  0.88941487870E+00  0.88000000000E+00 0. -1.
        -11    1    4    4    0    0  0.45978592113E-01 -0.53937322672E-02 -0.10384295966E+00  0.11369584281E+00  0.51100000000E-03 0.  1.
         11    1    4    4    0    0  0.27052636899E-02  0.18227677877E-01 -0.20156697947E-01  0.27315202462E-01  0.51100000000E-03 0. -1.
</event>
<event>
 8    1  0.1993226E+004  0.1043930E+01  0.7957747E-01            NaN
         13   -1    0    0    0    0  0.00000000000E+00  0.00000000000E+00  0.74505805969E-08  0.10566000000E+00  0.10566000000E+00 0.  1.
     999900   -1    0    0    0    0 -0.00000000000E+00 -0.00000000000E+00 -0.74505805969E-08  0.93827000000E+00  0.93827000000E+00 0. -1.
     999902    2    1    2    0    0 -0.74409213055E-02  0.99449964568E-02  0.41992643211E-03  0.10315023452E+01  0.10314274777E+01 0.  0.
     999903    2    3    3    0    0  0.16139655413E-01 -0.81646982283E-01  0.10338433548E+00  0.14046541913E+00  0.45994510070E-01 0.  0.
         14    1    1    2    0    0  0.74409213055E-02 -0.99449964568E-02 -0.41992643211E-03  0.12427654751E-01  0.00000000000E+00 0. -1.
     999901    1    3    3    0    0 -0.23580576718E-01  0.91591978740E-01 -0.10296440905E+00  0.89103692611E+00  0.88000000000E+00 0. -1.
        -11    1    4    4    0    0 -0.13189423124E-01 -0.30319495781E-01  0.54529734776E-01  0.63772923741E-01  0.51100000000E-03 0.  1.
         11    1    4    4    0    0  0.29329078536E-01 -0.51327486503E-01  0.48854600707E-01  0.76692495394E-01  0.51100000000E-03 0. -1.
</event>
<event>
 8    1  0.1993226E+004  0.1043930E+01  0.7957747E-01            NaN
         13   -1    0    0    0    0  0.00000000000E+00  0.00000000000E+00  0.74505805969E-08  0.10566000000E+00  0.10566000000E+00 0.  1.
     999900   -1    0    0    0    0 -0.00000000000E+00 -0.00000000000E+00 -0.74505805969E-08  0.93827000000E+00  0.93827000000E+00 0. -1.
     999902    2    1    2    0    0 -0.56250270251E-02 -0.90121529255E-02 -0.12509478867E-01  0.10275182088E+01  0.10273871337E+01 0.  0.
     999903    2    3    3    0    0 -0.12431667714E+00 -0.26841266799E-01 -0.32703544254E-01  0.13914138255E+00  0.45996877217E-01 0.  0.
         14    1    1    2    0    0  0.56250270251E-02  0.90121529255E-02  0.12509478867E-01  0.16411791215E-01  0.00000000000E+00 0.  1.
     999901    1    3    3    0    0  0.11869165011E+00  0.17829113874E-01  0.20194065388E-01  0.88837682623E+00  0.88000000000E+00 0. -1.
        -11    1    4    4    0    0 -0.98469176114E-01 -0.38815562791E-01 -0.19040365016E-01  0.10754358735E+00  0.51100000000E-03 0. -1.
         11    1    4    4    0    0 -0.25847501025E-01  0.11974295992E-01 -0.13663179238E-01  0.31597795202E-01  0.51100000000E-03 0.  1.
</event>
<event>
 8    1  0.1993226E+004  0.1043930E+01  0.7957747E-01            NaN
         13   -1    0    0    0    0  0.00000000000E+00  0.00000000000E+00  0.74505805969E-08  0.10566000000E+00  0.10566000000E+00 0. -1.
     999900   -1    0    0    0    0 -0.00000000000E+00 -0.00000000000E+00 -0.74505805969E-08  0.93827000000E+00  0.93827000000E+00 0. -1.
     999902    2    1    2    0    0 -0.23811318628E-02  0.11013337761E-01  0.69975822365E-02  0.10306661561E+01  0.10305808051E+01 0.  0.
     999903    2    3    3    0    0  0.56375176225E-01 -0.94041199524E-01  0.74726674616E-01  0.13989346372E+00  0.44319268848E-01 0.  0.
         14    1    1    2    0    0  0.23811318628E-02 -0.11013337761E-01 -0.69975822365E-02  0.13263843890E-01  0.00000000000E+00 0.  1.
     999901    1    3    3    0    0 -0.58756308088E-01  0.10505453729E+00 -0.67729092380E-01  0.89077269239E+00  0.88000000000E+00 0. -1.
        -11    1    4    4    0    0  0.16936522636E-01 -0.70108265316E-01  0.45840003452E-01  0.85460995208E-01  0.51100000000E-03 0.  1.
         11    1    4    4    0    0  0.39438653589E-01 -0.23932934209E-01  0.28886671164E-01  0.54432468516E-01  0.51100000000E-03 0. -1.
</event>
<event>
 8    1  0.1993226E+004  0.1043930E+01  0.7957747E-01            NaN
         13   -1    0    0    0    0  0.00000000000E+00  0.00000000000E+00  0.74505805969E-08  0.10566000000E+00  0.10566000000E+00 0.  1.
     999900   -1    0    0    0    0 -0.00000000000E+00 -0.00000000000E+00 -0.74505805969E-08  0.93827000000E+00  0.93827000000E+00 0.  1.
     999902    2    1    2    0    0 -0.18746035090E-01  0.12158835376E-02 -0.36015089148E-02  0.10248024526E+01  0.10246239328E+01 0.  0.
     999903    2    3    3    0    0 -0.60754191927E-01  0.10901674659E+00 -0.33329550049E-01  0.13673180912E+00  0.44821934881E-01 0.  0.
         14    1    1    2    0    0  0.18746035090E-01 -0.12158835376E-02  0.36015089148E-02  0.19127547434E-01  0.00000000000E+00 0. -1.
     999901    1    3    3    0    0  0.42008156837E-01 -0.10780086305E+00  0.29728041134E-01  0.88807064344E+00  0.88000000000E+00 0.  1.
        -11    1    4    4    0    0 -0.60564671261E-01  0.76160654937E-01 -0.36021899097E-01  0.10376108664E+00  0.51100000000E-03 0. -1.
         11    1    4    4    0    0 -0.18952066629E-03  0.32856091649E-01  0.26923490483E-02  0.32970722482E-01  0.51100000000E-03 0.  1.
</event>
<event>
 8    1  0.1993226E+004  0.1043930E+01  0.7957747E-01            NaN
         13   -1    0    0    0    0  0.00000000000E+00  0.00000000000E+00  0.74505805969E-08  0.10566000000E+00  0.10566000000E+00 0.  1.
     999900   -1    0    0    0    0 -0.00000000000E+00 -0.00000000000E+00 -0.74505805969E-08  0.93827000000E+00  0.93827000000E+00 0.  1.
     999902    2    1    2    0    0 -0.27288419340E-03 -0.57725024525E-02  0.14163264309E-01  0.10286331276E+01  0.10285193809E+01 0.  0.
     999903    2    3    3    0    0 -0.10200281800E+00 -0.78130889556E-01  0.30981662301E-01  0.13966317637E+00  0.45132345976E-01 0.  0.
         14    1    1    2    0    0  0.27288419340E-03  0.57725024525E-02 -0.14163264309E-01  0.15296872433E-01  0.00000000000E+00 0. -1.
     999901    1    3    3    0    0  0.10172993380E+00  0.72358387104E-01 -0.16818397992E-01  0.88896995119E+00  0.88000000000E+00 0.  1.
        -11    1    4    4    0    0 -0.97462056774E-01 -0.53965879002E-01  0.22559311018E-01  0.11366772735E+00  0.51100000000E-03 0.  1.
         11    1    4    4    0    0 -0.45407612230E-02 -0.24165010554E-01  0.84223512827E-02  0.25995449019E-01  0.51100000000E-03 0. -1.
</event>
<event>
 8    1  0.1993226E+004  0.1043930E+01  0.7957747E-01            NaN
         13   -1    0    0    0    0  0.00000000000E+00  0.00000000000E+00  0.74505805969E-08  0.10566000000E+00  0.10566000000E+00 0. -1.
     999900   -1    0    0    0    0 -0.00000000000E+00 -0.00000000000E+00 -0.74505805969E-08  0.93827000000E+00  0.93827000000E+00 0. -1.
     999902    2    1    2    0    0 -0.80254162482E-03 -0.73413819648E-03 -0.13020079525E-01  0.10308645684E+01  0.10307817678E+01 0.  0.
     999903    2    3    3    0    0  0.78512912653E-01  0.65552666010E-01 -0.87230882524E-01  0.14171209274E+00  0.44851542766E-01 0.  0.
         14    1    1    2    0    0  0.80254162482E-03  0.73413819648E-03  0.13020079525E-01  0.13065431596E-01  0.00000000000E+00 0. -1.
     999901    1    3    3    0    0 -0.79315454278E-01 -0.66286804207E-01  0.74210802999E-01  0.88915247566E+00  0.88000000000E+00 0.  1.
        -11    1    4    4    0    0 -0.48823640645E-02 -0.88208678748E-03 -0.50010534443E-02  0.70630880295E-02  0.51100000000E-03 0.  1.
         11    1    4    4    0    0  0.83395276717E-01  0.66434752798E-01 -0.82229829079E-01  0.13464900471E+00  0.51100000000E-03 0. -1.
</event>
<event>
 8    1  0.1993226E+004  0.1043930E+01  0.7957747E-01            NaN
         13   -1    0    0    0    0  0.00000000000E+00  0.00000000000E+00  0.74505805969E-08  0.10566000000E+00  0.10566000000E+00 0. -1.
     999900   -1    0    0    0    0 -0.00000000000E+00 -0.00000000000E+00 -0.74505805969E-08  0.93827000000E+00  0.93827000000E+00 0. -1.
     999902    2    1    2    0    0 -0.49235085528E-02 -0.12328112778E-01  0.47366856619E-02  0.10298353382E+01  0.10297388816E+01 0.  0.
     999903    2    3    3    0    0 -0.30474158786E-01  0.20959377393E-01 -0.12605830713E+00  0.13917927499E+00  0.45958719924E-01 0.  0.
         14    1    1    2    0    0  0.49235085528E-02  0.12328112778E-01 -0.47366856619E-02  0.14094661833E-01  0.00000000000E+00 0.  1.
     999901    1    3    3    0    0  0.25550650233E-01 -0.33287490171E-01  0.13079499279E+00  0.89065606317E+00  0.88000000000E+00 0.  1.
        -11    1    4    4    0    0 -0.21029782526E-01 -0.26360211735E-02 -0.10199757943E+00  0.10417757768E+00  0.51100000000E-03 0. -1.
         11    1    4    4    0    0 -0.94443762598E-02  0.23595398566E-01 -0.24060727700E-01  0.35001697315E-01  0.51100000000E-03 0.  1.
</event>
<event>
 8    1  0.1993226E+004  0.1043930E+01  0.7957747E-01            NaN
         13   -1    0    0    0    0  0.00000000000E+00  0.00000000000E+00  0.74505805969E-08  0.10566000000E+00  0.10566000000E+00 0. -1.
     999900   -1    0    0    0    0 -0.00000000000E+00 -0.00000000000E+00 -0.74505805969E-08  0.93827000000E+00  0.93827000000E+00 0.  1.
     999902    2    1    2    0    0  0.17222392702E-02 -0.13265208617E-01  0.14330039212E-02  0.10304769198E+01  0.10303890997E+01 0.  0.
     999903    2    3    3    0    0  0.33979253593E-01 -0.21823212320E-01 -0.12696418580E+00  0.14053333013E+00  0.44708725442E-01 0.  0.
         14    1    1    2    0    0 -0.17222392702E-02  0.13265208617E-01 -0.14330039212E-02  0.13453080242E-01  0.00000000000E+00 0.  1.
     999901    1    3    3    0    0 -0.32257014323E-01  0.85580037033E-02  0.12839718972E+00  0.88994358963E+00  0.88000000000E+00 0. -1.
        -11    1    4    4    0    0  0.10441468591E-01 -0.25766799714E-01 -0.10308150076E+00  0.10676614235E+00  0.51100000000E-03 0.  1.
         11    1    4    4    0    0  0.23537785003E-01  0.39435873931E-02 -0.23882685039E-01  0.33767187772E-01  0.51100000000E-03 0. -1.
</event>
<event>
 8    1  0.1993226E+004  0.1043930E+01  0.7957747E-01            NaN
         13   -1    0    0    0    0  0.00000000000E+00  0.00000000000E+00  0.74505805969E-08  0.10566000000E+00  0.10566000000E+00 0. -1.
     999900   -1    0    0    0    0 -0.00000000000E+00 -0.00000000000E+00 -0.74505805969E-08  0.93827000000E+00  0.93827000000E+00 0.  1.
     999902    2    1    2    0    0  0.84790588801E-03  0.93143891205E-02  0.11890898694E-01  0.10288015414E+01  0.10286903039E+01 0.  0.
     999903    2    3    3    0    0 -0.54550589394E-01  0.11420770915E+00  0.41017146667E-01  0.14036474553E+00  0.44729049109E-01 0.  0.
         14    1    1    2    0    0 -0.84790588801E-03 -0.93143891205E-02 -0.11890898694E-01  0.15128458640E-01  0.00000000000E+00 0.  1.
     999901    1    3    3    0    0  0.55398495282E-01 -0.10489332003E+00 -0.29126247973E-01  0.88843679583E+00  0.88000000000E+00 0.  1.
        -11    1    4    4    0    0 -0.16216161210E-01  0.56345165155E-01  0.39940847120E-01  0.70945570055E-01  0.51100000000E-03 0.  1.
         11    1    4    4    0    0 -0.38334428185E-01  0.57862543994E-01  0.10762995469E-02  0.69419175474E-01  0.51100000000E-03 0. -1.
</event>
<event>
 7    1  0.4025335E+004  0.1043930E+01  0.7957747E-01            NaN
         13   -1    0    0    0    0  0.00000000000E+00  0.00000000000E+00  0.74505805969E-08  0.10566000000E+00  0.10566000000E+00 0.  1.
     999900   -1    0    0    0    0 -0.00000000000E+00 -0.00000000000E+00 -0.74505805969E-08  0.93827000000E+00  0.93827000000E+00 0.  1.
     999903    2    1    2    0    0  0.18193273107E-01  0.75918159615E-01 -0.74346635766E-01  0.11673977978E+00  0.44790532333E-01 0.  0.
         14    1    1    2    0    0  0.91682709490E-02 -0.37056103515E-01 -0.15789777362E-01  0.41310156972E-01  0.00000000000E+00 0.  1.
     999901    1    1    2    0    0 -0.27361544056E-01 -0.38862056101E-01  0.90136413128E-01  0.88588006325E+00  0.88000000000E+00 0. -1.
        -11    1    3    3    0    0  0.16301315808E-01  0.63332149838E-01 -0.32561266647E-01  0.73056083298E-01  0.51100000000E-03 0. -1.
         11    1    3    3    0    0  0.18919572991E-02  0.12586009777E-01 -0.41785369119E-01  0.43683696478E-01  0.51100000000E-03 0.  1.
</event>
<event>
 8    1  0.1993226E+004  0.1043930E+01  0.7957747E-01            NaN
         13   -1    0    0    0    0  0.00000000000E+00  0.00000000000E+00  0.74505805969E-08  0.10566000000E+00  0.10566000000E+00 0.  1.
     999900   -1    0    0    0    0 -0.00000000000E+00 -0.00000000000E+00 -0.74505805969E-08  0.93827000000E+00  0.93827000000E+00 0.  1.
     999902    2    1    2    0    0  0.12412227170E-01 -0.27271821729E-02 -0.45892266448E-02  0.10304184528E+01  0.10303298627E+01 0.  0.
     999903    2    3    3    0    0 -0.11073229733E+00  0.41687416852E-01  0.56814548619E-01  0.13861822063E+00  0.44582908833E-01 0.  0.
         14    1    1    2    0    0 -0.12412227170E-01  0.27271821729E-02  0.45892266448E-02  0.13511547177E-01  0.00000000000E+00 0. -1.
     999901    1    3    3    0    0  0.12314452450E+00 -0.44414599024E-01 -0.61403775264E-01  0.89180023219E+00  0.88000000000E+00 0. -1.
        -11    1    4    4    0    0 -0.56353972560E-01  0.36545329553E-01  0.12593589475E-01  0.68338795367E-01  0.51100000000E-03 0. -1.
         11    1    4    4    0    0 -0.54378324772E-01  0.51420872991E-02  0.44220959144E-01  0.70279425264E-01  0.51100000000E-03 0.  1.
</event>
<event>
 8    1  0.1993226E+004  0.1043930E+01  0.7957747E-01            NaN
         13   -1    0    0    0    0  0.00000000000E+00  0.00000000000E+00  0.74505805969E-08  0.10566000000E+00  0.10566000000E+00 0. -1.
     999900   -1    0    0    0    0 -0.00000000000E+00 -0.00000000000E+00 -0.74505805969E-08  0.93827000000E+00  0.93827000000E+00 0. -1.
     999902    2    1    2    0    0  0.10441026814E-01  0.84892143535E-02  0.39295526653E-02  0.10299113273E+01  0.10298159150E+01 0.  0.
     999903    2    3    3    0    0 -0.12469027050E+00  0.24279516771E-01 -0.33377768138E-01  0.13867531062E+00  0.44492784573E-01 0.  0.
         14    1    1    2    0    0 -0.10441026814E-01 -0.84892143535E-02 -0.39295526653E-02  0.14018672741E-01  0.00000000000E+00 0.  1.
     999901    1    3    3    0    0  0.13513129731E+00 -0.15790302417E-01  0.37307320803E-01  0.89123601664E+00  0.88000000000E+00 0.  1.
        -11    1    4    4    0    0 -0.50478700565E-01 -0.50744204836E-03 -0.33217346105E-01  0.60431861724E-01  0.51100000000E-03 0. -1.
         11    1    4    4    0    0 -0.74211569933E-01  0.24786958819E-01 -0.16042203280E-03  0.78243448899E-01  0.51100000000E-03 0.  1.
</event>
<event>
 8    1  0.1993226E+004  0.1043930E+01  0.7957747E-01            NaN
         13   -1    0    0    0    0  0.00000000000E+00  0.00000000000E+00  0.74505805969E-08  0.10566000000E+00  0.10566000000E+00 0. -1.
     999900   -1    0    0    0    0 -0.00000000000E+00 -0.00000000000E+00 -0.74505805969E-08  0.93827000000E+00  0.93827000000E+00 0.  1.
     999902    2    1    2    0    0  0.91598020922E-02 -0.53423792754E-02  0.88681873809E-02  0.10301065511E+01  0.10300137955E+01 0.  0.
     999903    2    3    3    0    0 -0.60309575342E-01  0.91826632356E-01  0.73244972225E-01  0.13970653899E+00  0.45647735906E-01 0.  0.
         14    1    1    2    0    0 -0.91598020922E-02  0.53423792754E-02 -0.88681873809E-02  0.13823448850E-01  0.00000000000E+00 0. -1.
     999901    1    3    3    0    0  0.69469377434E-01 -0.97169011631E-01 -0.64376784845E-01  0.89040001216E+00  0.88000000000E+00 0.  1.
        -11    1    4    4    0    0 -0.48628175009E-01  0.36087190532E-01  0.26827174283E-01  0.66234002794E-01  0.51100000000E-03 0. -1.
         11    1    4    4    0    0 -0.11681400333E-01  0.55739441824E-01  0.46417797943E-01  0.73472536198E-01  0.51100000000E-03 0.  1.
</event>
<event>
 8    1  0.1993226E+004  0.1043930E+01  0.7957747E-01            NaN
         13   -1    0    0    0    0  0.00000000000E+00  0.00000000000E+00  0.74505805969E-08  0.10566000000E+00  0.10566000000E+00 0.  1.
     999900   -1    0    0    0    0 -0.00000000000E+00 -0.00000000000E+00 -0.74505805969E-08  0.93827000000E+00  0.93827000000E+00 0.  1.
     999902    2    1    2    0    0 -0.75902904528E-02  0.63825711849E-02 -0.11775619033E-01  0.10285347109E+01  0.10284194847E+01 0.  0.
     999903    2    3    3    0    0 -0.39967331668E-01 -0.10987208861E+00  0.56139389097E-01  0.13770595793E+00  0.46282138949E-01 0.  0.
         14    1    1    2    0    0  0.75902904528E-02 -0.63825711849E-02  0.11775619033E-01  0.15395289140E-01  0.00000000000E+00 0.  1.
     999901    1    3    3    0    0  0.32377041216E-01  0.11625465979E+00 -0.67915008130E-01  0.89082875293E+00  0.88000000000E+00 0. -1.
        -11    1    4    4    0    0 -0.19654770806E-01 -0.47371936638E-01  0.50117134785E-01  0.71710520262E-01  0.51100000000E-03 0.  1.
         11    1    4    4    0    0 -0.20312560863E-01 -0.62500151968E-01  0.60222543119E-02  0.65995437666E-01  0.51100000000E-03 0. -1.
</event>
<event>
 8    1  0.1993226E+004  0.1043930E+01  0.7957747E-01            NaN
         13   -1    0    0    0    0  0.00000000000E+00  0.00000000000E+00  0.74505805969E-08  0.10566000000E+00  0.10566000000E+00 0. -1.
     999900   -1    0    0    0    0 -0.00000000000E+00 -0.00000000000E+00 -0.74505805969E-08  0.93827000000E+00  0.93827000000E+00 0. -1.
     999902    2    1    2    0    0  0.11967176444E-01  0.28729564134E-02 -0.80356250907E-02  0.10292317531E+01  0.10291267965E+01 0.  0.
     999903    2    3    3    0    0  0.33507192775E-01 -0.56959069068E-01 -0.11538399958E+00  0.14043058465E+00  0.45168730669E-01 0.  0.
         14    1    1    2    0    0 -0.11967176444E-01 -0.28729564134E-02  0.80356250907E-02  0.14698246875E-01  0.00000000000E+00 0.  1.
     999901    1    3    3    0    0 -0.21540016331E-01  0.59832025481E-01  0.10734837449E+00  0.88880116847E+00  0.88000000000E+00 0.  1.
        -11    1    4    4    0    0  0.49869791342E-03 -0.41917486677E-01 -0.76615607648E-01  0.87335770708E-01  0.51100000000E-03 0.  1.
         11    1    4    4    0    0  0.33008494861E-01 -0.15041582390E-01 -0.38768391929E-01  0.53094813942E-01  0.51100000000E-03 0. -1.
</event>
<event>
 8    1  0.1993226E+004  0.1043930E+01  0.7957747E-01            NaN
         13   -1    0    0    0    0  0.00000000000E+00  0.00000000000E+00  0.74505805969E-08  0.10566000000E+00  0.10566000000E+00 0.  1.
     999900   -1    0    0    0    0 -0.00000000000E+00 -0.00000000000E+00 -0.74505805969E-08  0.93827000000E+00  0.93827000000E+00 0. -1.
     999902    2    1    2    0    0 -0.60021145297E-02 -0.56465705216E-02  0.10408782184E-01  0.10306540110E+01  0.10305685026E+01 0.  0.
     999903    2    3    3    0    0 -0.10356042416E+00  0.52700235318E-01 -0.64411651150E-01  0.14019341626E+00  0.44757758041E-01 0.  0.
         14    1    1    2    0    0  0.60021145297E-02  0.56465705216E-02 -0.10408782184E-01  0.13275989004E-01  0.00000000000E+00 0. -1.
     999901    1    3    3    0    0  0.97558309629E-01 -0.58346805839E-01  0.74820433334E-01  0.89046059473E+00  0.88000000000E+00 0.  1.
        -11    1    4    4    0    0 -0.46452379464E-01  0.10007742894E-01 -0.57643222315E-02  0.47869269970E-01  0.51100000000E-03 0. -1.
         11    1    4    4    0    0 -0.57108044695E-01  0.42692492424E-01 -0.58647328918E-01  0.92324146292E-01  0.51100000000E-03 0.  1.
</event>
<event>
 8    1  0.1993226E+004  0.1043930E+01  0.7957747E-01            NaN
         13   -1    0    0    0    0  0.00000000000E+00  0.00000000000E+00  0.74505805969E-08  0.10566000000E+00  0.10566000000E+00 0. -1.
     999900   -1    0    0    0    0 -0.00000000000E+00 -0.00000000000E+00 -0.74505805969E-08  0.93827000000E+00  0.93827000000E+00 0. -1.
     999902    2    1    2    0    0  0.81073151979E-03  0.13673031115E-01 -0.24404568588E-02  0.10300172398E+01  0.10299232736E+01 0.  0.
     999903    2    3    3    0    0  0.42316135124E-01 -0.52424597209E-01 -0.11348137110E+00  0.13961189415E+00  0.45546303011E-01 0.  0.
         14    1    1    2    0    0 -0.81073151979E-03 -0.13673031115E-01  0.24404568588E-02  0.13912760156E-01  0.00000000000E+00 0. -1.
     999901    1    3    3    0    0 -0.41505403604E-01  0.66097628324E-01  0.11104091424E+00  0.89040534569E+00  0.88000000000E+00 0.  1.
        -11    1    4    4    0    0  0.32259817491E-02 -0.13308885115E-02 -0.46880770630E-01  0.47013253433E-01  0.51100000000E-03 0.  1.
         11    1    4    4    0    0  0.39090153375E-01 -0.51093708697E-01 -0.66600600471E-01  0.92598640721E-01  0.51100000000E-03 0. -1.
</event>
<event>
 8    1  0.1993226E+004  0.1043930E+01  0.7957747E-01            NaN
         13   -1    0    0    0    0  0.00000000000E+00  0.00000000000E+00  0.74505805969E-08  0.10566000000E+00  0.10566000000E+00 0.  1.
     999900   -1    0    0    0    0 -0.00000000000E+00 -0.00000000000E+00 -0.74505805969E-08  0.93827000000E+00  0.93827000000E+00 0. -1.
     999902    2    1    2    0    0 -0.61401988596E-02 -0.12240755717E-02  0.10923600248E-01  0.10313393112E+01  0.10312624541E+01 0.  0.
     999903    2    3    3    0    0  0.11311267292E+00  0.16771713100E-01  0.70098442930E-01  0.14114452470E+00  0.43957001891E-01 0.  0.
         14    1    1    2    0    0  0.61401988596E-02  0.12240755717E-02 -0.10923600248E-01  0.12590688838E-01  0.00000000000E+00 0. -1.
     999901    1    3    3    0    0 -0.11925287178E+00 -0.17995788672E-01 -0.59174842683E-01  0.89019478646E+00  0.88000000000E+00 0. -1.
        -11    1    4    4    0    0  0.97575283037E-01  0.21612571885E-01  0.41457556893E-01  0.10819902619E+00  0.51100000000E-03 0.  1.
         11    1    4    4    0    0  0.15537389886E-01 -0.48408587845E-02  0.28640886037E-01  0.32945498513E-01  0.51100000000E-03 0. -1.
</event>
<event>
 8    1  0.1993226E+004  0.1043930E+01  0.7957747E-01            NaN
         13   -1    0    0    0    0  0.00000000000E+00  0.00000000000E+00  0.74505805969E-08  0.10566000000E+00  0.10566000000E+00 0.  1.
     999900   -1    0    0    0    0 -0.00000000000E+00 -0.00000000000E+00 -0.74505805969E-08  0.93827000000E+00  0.93827000000E+00 0. -1.
     999902    2    1    2    0    0 -0.45441100358E-02  0.10231455917E-01 -0.65403121695E-02  0.10309643797E+01  0.10308828473E+01 0.  0.
     999903    2    3    3    0    0 -0.94164792070E-01 -0.51635175482E-01  0.78029978444E-01  0.14022789748E+00  0.45188342327E-01 0.  0.
         14    1    1    2    0    0  0.45441100358E-02 -0.10231455917E-01  0.65403121695E-02  0.12965620289E-01  0.00000000000E+00 0.  1.
     999901    1    3    3    0    0  0.89620682034E-01  0.61866631398E-01 -0.84570290614E-01  0.89073648223E+00  0.88000000000E+00 0. -1.
        -11    1    4    4    0    0 -0.73716410670E-01 -0.17485193628E-01  0.42494985566E-01  0.86867290262E-01  0.51100000000E-03 0.  1.
         11    1    4    4    0    0 -0.20448381400E-01 -0.34149981854E-01  0.35534992878E-01  0.53360607215E-01  0.51100000000E-03 0. -1.
</event>
<event>
 8    1  0.1993226E+004  0.1043930E+01  0.7957747E-01            NaN
         13   -1    0    0    0    0  0.00000000000E+00  0.00000000000E+00  0.74505805969E-08  0.10566000000E+00  0.10566000000E+00 0. -1.
     999900   -1    0    0    0    0 -0.00000000000E+00 -0.00000000000E+00 -0.74505805969E-08  0.93827000000E+00  0.93827000000E+00 0. -1.
     999902    2    1    2    0    0  0.30456431679E-02 -0.12450402163E-02  0.13785970667E-01  0.10297568192E+01  0.10296592774E+01 0.  0.
     999903    2    3    3    0    0  0.12767691883E+00  0.13886071568E-01 -0.32046427932E-01  0.13966552376E+00  0.44556328363E-01 0.  0.
         14    1    1    2    0    0 -0.30456431679E-02  0.12450402163E-02 -0.13785970667E-01  0.14173180825E-01  0.00000000000E+00 0.  1.
     999901    1    3    3    0    0 -0.12463127566E+00 -0.15131111784E-01  0.45832398599E-01  0.89009129542E+00  0.88000000000E+00 0. -1.
        -11    1    4    4    0    0  0.11041769847E+00  0.10974230625E-01 -0.43008956055E-01  0.11900644225E+00  0.51100000000E-03 0.  1.
         11    1    4    4    0    0  0.17259220357E-01  0.29118409428E-02  0.10962528123E-01  0.20659081511E-01  0.51100000000E-03 0. -1.
</event>
<event>
 8    1  0.1993226E+004  0.1043930E+01  0.7957747E-01            NaN
         13   -1    0    0    0    0  0.00000000000E+00  0.00000000000E+00  0.74505805969E-08  0.10566000000E+00  0.10566000000E+00 0.  1.
     999900   -1    0    0    0    0 -0.00000000000E+00 -0.00000000000E+00 -0.74505805969E-08  0.93827000000E+00  0.93827000000E+00 0.  1.
     999902    2    1    2    0    0 -0.62310417344E-02  0.11845055925E-01 -0.32790262922E-02  0.10301501871E+01  0.10300580201E+01 0.  0.
     999903    2    3    3    0    0 -0.61741454239E-03  0.10362214619E+00 -0.85239402579E-01  0.14157151842E+00  0.45153169248E-01 0.  0.
         14    1    1    2    0    0  0.62310417344E-02 -0.11845055925E-01  0.32790262922E-02  0.13779812930E-01  0.00000000000E+00 0.  1.
     999901    1    3    3    0    0 -0.56136271920E-02 -0.91777090262E-01  0.81960376287E-01  0.88857866865E+00  0.88000000000E+00 0. -1.
        -11    1    4    4    0    0  0.51739716781E-02  0.12424372837E-02 -0.18414608724E-01  0.19174789928E-01  0.51100000000E-03 0.  1.
         11    1    4    4    0    0 -0.57913862205E-02  0.10237970890E+00 -0.66824793856E-01  0.12239672849E+00  0.51100000000E-03 0. -1.
</event>
<event>
 8    1  0.1993226E+004  0.1043930E+01  0.7957747E-01            NaN
         13   -1    0    0    0    0  0.00000000000E+00  0.00000000000E+00  0.74505805969E-08  0.10566000000E+00  0.10566000000E+00 0. -1.
     999900   -1    0    0    0    0 -0.00000000000E+00 -0.00000000000E+00 -0.74505805969E-08  0.93827000000E+00  0.93827000000E+00 0. -1.
     999902    2    1    2    0    0 -0.13566636399E-02  0.11192130784E-02  0.15312873112E-01  0.10285164586E+01  0.10284009570E+01 0.  0.
     999903    2    3    3    0    0  0.11529675157E+00  0.51725925497E-01 -0.33265051417E-01  0.13805092120E+00  0.44526182279E-01 0.  0.
         14    1    1    2    0    0  0.13566636399E-02 -0.11192130784E-02 -0.15312873112E-01  0.15413541354E-01  0.00000000000E+00 0.  1.
     999901    1    3    3    0    0 -0.11665341521E+00 -0.50606712419E-01  0.48577924528E-01  0.89046553744E+00  0.88000000000E+00 0.  1.
        -11    1    4    4    0    0  0.45620183004E-01  0.18962702792E-01  0.89950490660E-02  0.50219092218E-01  0.51100000000E-03 0.  1.
         11    1    4    4    0    0  0.69676568565E-01  0.32763222705E-01 -0.42260100483E-01  0.87831828985E-01  0.51100000000E-03 0. -1.
</event>
<event>
 8    1  0.1993226E+004  0.1043930E+01  0.7957747E-01            NaN
         13   -1    0    0    0    0  0.00000000000E+00  0.00000000000E+00  0.74505805969E-08  0.10566000000E+00  0.10566000000E+00 0. -1.
     999900   -1    0    0    0    0 -0.00000000000E+00 -0.00000000000E+00 -0.74505805969E-08  0.93827000000E+00  0.93827000000E+00 0. -1.
     999902    2    1    2    0    0  0.95309098653E-02 -0.86663330594E-02  0.26330343419E-02  0.10307817514E+01  0.10306978910E+01 0.  0.
     999903    2    3    3    0    0 -0.13108457548E+00 -0.15709497600E-01  0.12152912773E-01  0.13953938875E+00  0.43515439570E-01 0.  0.
         14    1    1    2    0    0 -0.95309098653E-02  0.86663330594E-02 -0.26330343419E-02  0.13148248606E-01  0.00000000000E+00 0.  1.
     999901    1    3    3    0    0  0.14061548534E+00  0.70431645408E-02 -0.95198784313E-02  0.89124236264E+00  0.88000000000E+00 0. -1.
        -11    1    4    4    0    0 -0.35272094016E-01  0.12083910756E-01  0.13806679682E-01  0.39762130731E-01  0.51100000000E-03 0.  1.
         11    1    4    4    0    0 -0.95812481462E-01 -0.27793408356E-01 -0.16537669086E-02  0.99777258020E-01  0.51100000000E-03 0. -1.
</event>
<event>
 8    1  0.1993226E+004  0.1043930E+01  0.7957747E-01            NaN
         13   -1    0    0    0    0  0.00000000000E+00  0.00000000000E+00  0.74505805969E-08  0.10566000000E+00  0.10566000000E+00 0.  1.
     999900   -1    0    0    0    0 -0.00000000000E+00 -0.00000000000E+00 -0.74505805969E-08  0.93827000000E+00  0.93827000000E+00 0.  1.
     999902    2    1    2    0    0 -0.54422807901E-02  0.39109507958E-02 -0.11416047706E-01  0.10306921716E+01  0.10306071572E+01 0.  0.
     999903    2    3    3    0    0 -0.12567628486E+00 -0.45603279833E-01 -0.78381334461E-02  0.14113010165E+00  0.44520574447E-01 0.  0.
         14    1    1    2    0    0  0.54422807901E-02 -0.39109507958E-02  0.11416047706E-01  0.13237828430E-01  0.00000000000E+00 0.  1.
     999901    1    3    3    0    0  0.12023400407E+00  0.49514230629E-01 -0.35779142600E-02  0.88956206992E+00  0.88000000000E+00 0.  1.
        -11    1    4    4    0    0 -0.37027048591E-01 -0.36006403253E-01 -0.53550815851E-02  0.51926885352E-01  0.51100000000E-03 0.  1.
         11    1    4    4    0    0 -0.88649236265E-01 -0.95968765809E-02 -0.24830518609E-02  0.89203216298E-01  0.51100000000E-03 0. -1.
</event>
<event>
 8    1  0.1993226E+004  0.1043930E+01  0.7957747E-01            NaN
         13   -1    0    0    0    0  0.00000000000E+00  0.00000000000E+00  0.74505805969E-08  0.10566000000E+00  0.10566000000E+00 0. -1.
     999900   -1    0    0    0    0 -0.00000000000E+00 -0.00000000000E+00 -0.74505805969E-08  0.93827000000E+00  0.93827000000E+00 0.  1.
     999902    2    1    2    0    0 -0.25252781545E-02 -0.19055345975E-02 -0.14620612539E-01  0.10289710427E+01  0.10288623019E+01 0.  0.
     999903    2    3    3    0    0  0.68766979275E-01 -0.29458273041E-01 -0.11006002469E+00  0.14051709301E+00  0.45112715561E-01 0.  0.
         14    1    1    2    0    0  0.25252781545E-02  0.19055345975E-02  0.14620612539E-01  0.14958957279E-01  0.00000000000E+00 0. -1.
     999901    1    3    3    0    0 -0.71292257430E-01  0.27552738444E-01  0.95439412146E-01  0.88845394971E+00  0.88000000000E+00 0. -1.
        -11    1    4    4    0    0  0.14341758537E-01 -0.26160776922E-01 -0.57505249516E-01  0.64785701586E-01  0.51100000000E-03 0.  1.
         11    1    4    4    0    0  0.54425220738E-01 -0.32974961198E-02 -0.52554775169E-01  0.75731391424E-01  0.51100000000E-03 0. -1.
</event>
<event>
 8    1  0.1993226E+004  0.1043930E+01  0.7957747E-01            NaN
         13   -1    0    0    0    0  0.00000000000E+00  0.00000000000E+00  0.74505805969E-08  0.10566000000E+00  0.10566000000E+00 0.  1.
     999900   -1    0    0    0    0 -0.00000000000E+00 -0.00000000000E+00 -0.74505805969E-08  0.93827000000E+00  0.93827000000E+00 0. -1.
     999902    2    1    2    0    0 -0.52862302961E-02 -0.12158006355E-01 -0.32134743031E-02  0.10302886010E+01  0.10301982885E+01 0.  0.
     999903    2    3    3    0    0  0.96462248651E-01  0.37006414479E-01  0.81966108015E-01  0.13898312336E+00  0.43856876189E-01 0.  0.
         14    1    1    2    0    0  0.52862302961E-02  0.12158006355E-01  0.32134743031E-02  0.13641398988E-01  0.00000000000E+00 0. -1.
     999901    1    3    3    0    0 -0.10174847895E+00 -0.49164420834E-01 -0.85179582318E-01  0.89130547765E+00  0.88000000000E+00 0.  1.
        -11    1    4    4    0    0  0.25161782702E-01 -0.93466424706E-02  0.24479945454E-01  0.36331857709E-01  0.51100000000E-03 0. -1.
         11    1    4    4    0    0  0.71300465949E-01  0.46353056950E-01  0.57486162562E-01  0.10265126565E+00  0.51100000000E-03 0.  1.
</event>
<event>
 8    1  0.1993226E+004  0.1043930E+01  0.7957747E-01            NaN
         13   -1    0    0    0    0  0.00000000000E+00  0.00000000000E+00  0.74505805969E-08  0.10566000000E+00  0.10566000000E+00 0. -1.
     999900   -1    0    0    0    0 -0.00000000000E+00 -0.00000000000E+00 -0.74505805969E-08  0.93827000000E+00  0.93827000000E+00 0.  1.
     999902    2    1    2    0    0 -0.38903168805E-02 -0.44045831733E-02  0.10832210647E-01  0.10316063761E+01  0.10315327642E+01 0.  0.
     999903    2    3    3    0    0  0.19933591063E-02 -0.98372456896E-01  0.93572970970E-01  0.14272471224E+00  0.43969635344E-01 0.  0.
         14    1    1    2    0    0  0.38903168805E-02  0.44045831733E-02 -0.10832210647E-01  0.12323623893E-01  0.00000000000E+00 0.  1.
     999901    1    3    3    0    0 -0.58836759868E-02  0.93967873723E-01 -0.82740760322E-01  0.88888166386E+00  0.88000000000E+00 0.  1.
        -11    1    4    4    0    0 -0.19489999804E-01 -0.32861222929E-01  0.26223177403E-01  0.46342596160E-01  0.51100000000E-03 0.  1.
         11    1    4    4    0    0  0.21483358911E-01 -0.65511233967E-01  0.67349793567E-01  0.96382116082E-01  0.51100000000E-03 0. -1.
</event>
<event>
 8    1  0.1993226E+004  0.1043930E+01  0.7957747E-01            NaN
         13   -1    0    0    0    0  0.00000000000E+00  0.00000000000E+00  0.74505805969E-08  0.10566000000E+00  0.10566000000E+00 0. -1.
     999900   -1    0    0    0    0 -0.00000000000E+00 -0.00000000000E+00 -0.74505805969E-08  0.93827000000E+00  0.93827000000E+00 0. -1.
     999902    2    1    2    0    0  0.12901040384E-01 -0.63314073763E-02  0.21022611763E-03  0.10295575347E+01  0.10294572112E+01 0.  0.
     999903    2    3    3    0    0 -0.75950120382E-02 -0.10646036828E+00 -0.78952238225E-01  0.14011243091E+00  0.44794454498E-01 0.  0.
         14    1    1    2    0    0 -0.12901040384E-01  0.63314073763E-02 -0.21022611763E-03  0.14372465250E-01  0.00000000000E+00 0. -1.
     999901    1    3    3    0    0  0.20496052422E-01  0.10012896090E+00  0.79162464342E-01  0.88944510384E+00  0.88000000000E+00 0.  1.
        -11    1    4    4    0    0 -0.22977551430E-01 -0.65262972867E-01 -0.33528443970E-01  0.76887197720E-01  0.51100000000E-03 0.  1.
         11    1    4    4    0    0  0.15382539392E-01 -0.41197395413E-01 -0.45423794255E-01  0.63225233194E-01  0.51100000000E-03 0. -1.
</event>
<event>
 8    1  0.1993226E+004  0.1043930E+01  0.7957747E-01            NaN
         13   -1    0    0    0    0  0.00000000000E+00  0.00000000000E+00  0.74505805969E-08  0.10566000000E+00  0.10566000000E+00 0. -1.
     999900   -1    0    0    0    0 -0.00000000000E+00 -0.00000000000E+00 -0.74505805969E-08  0.93827000000E+00  0.93827000000E+00 0.  1.
     999902    2    1    2    0    0  0.26644387828E-03  0.66022657344E-02 -0.11980488122E-01  0.10302481507E+01  0.10301572982E+01 0.  0.
     999903    2    3    3    0    0 -0.16430073225E-02  0.11396725393E+00 -0.71102879033E-01  0.14175147438E+00  0.45239657812E-01 0.  0.
         14    1    1    2    0    0 -0.26644387828E-03 -0.66022657344E-02  0.11980488122E-01  0.13681849320E-01  0.00000000000E+00 0. -1.
     999901    1    3    3    0    0  0.19094512008E-02 -0.10736498820E+00  0.59122390911E-01  0.88849667630E+00  0.88000000000E+00 0. -1.
        -11    1    4    4    0    0  0.87878703596E-02  0.15102839773E-01 -0.28844791920E-01  0.33728409043E-01  0.51100000000E-03 0.  1.
         11    1    4    4    0    0 -0.10430877682E-01  0.98864414161E-01 -0.42258087112E-01  0.10802306533E+00  0.51100000000E-03 0. -1.
</event>
<event>
 8    1  0.1993226E+004  0.1043930E+01  0.7957747E-01            NaN
         13   -1    0    0    0    0  0.00000000000E+00  0.00000000000E+00  0.74505805969E-08  0.10566000000E+00  0.10566000000E+00 0.  1.
     999900   -1    0    0    0    0 -0.00000000000E+00 -0.00000000000E+00 -0.74505805969E-08  0.93827000000E+00  0.93827000000E+00 0.  1.
     999902    2    1    2    0    0 -0.14569256000E-01  0.30665904314E-02  0.74403612451E-02  0.10272858968E+01  0.10271510539E+01 0.  0.
     999903    2    3    3    0    0 -0.24106228157E-01 -0.10164927354E+00  0.78410412288E-01  0.13818909992E+00  0.45103764086E-01 0.  0.
         14    1    1    2    0    0  0.14569256000E-01 -0.30665904314E-02 -0.74403612451E-02  0.16644103242E-01  0.00000000000E+00 0.  1.
     999901    1    3    3    0    0  0.95369721566E-02  0.10471586397E+00 -0.70970051043E-01  0.88909679684E+00  0.88000000000E+00 0.  1.
        -11    1    4    4    0    0  0.28236288272E-02 -0.24746591238E-01 -0.27732320114E-03  0.24913945630E-01  0.51100000000E-03 0. -1.
         11    1    4    4    0    0 -0.26929856984E-01 -0.76902682298E-01  0.78687735489E-01  0.11327515429E+00  0.51100000000E-03 0.  1.
</event>
<event>
 8    1  0.1993226E+004  0.1043930E+01  0.7957747E-01            NaN
         13   -1    0    0    0    0  0.00000000000E+00  0.00000000000E+00  0.74505805969E-08  0.10566000000E+00  0.10566000000E+00 0. -1.
     999900   -1    0    0    0    0 -0.00000000000E+00 -0.00000000000E+00 -0.74505805969E-08  0.93827000000E+00  0.93827000000E+00 0. -1.
     999902    2    1    2    0    0 -0.11782350148E-01  0.14381359229E-02  0.40564806447E-02  0.10313861949E+01  0.10313099127E+01 0.  0.
     999903    2    3    3    0    0  0.11566063643E+00 -0.18368156297E-01 -0.62234569001E-01  0.13951820735E+00  0.43329165914E-01 0.  0.
         14    1    1    2    0    0  0.11782350148E-01 -0.14381359229E-02 -0.40564806447E-02  0.12543805051E-01  0.00000000000E+00 0.  1.
     999901    1    3    3    0    0 -0.12744298658E+00  0.19806292220E-01  0.66291049645E-01  0.89186798760E+00  0.88000000000E+00 0.  1.
        -11    1    4    4    0    0  0.77798276314E-01  0.15620343689E-02 -0.22202021924E-01  0.80920965437E-01  0.51100000000E-03 0. -1.
         11    1    4    4    0    0  0.37862360115E-01 -0.19930190666E-01 -0.40032547076E-01  0.58597241913E-01  0.51100000000E-03 0.  1.
</event>
<event>
 8    1  0.1993226E+004  0.1043930E+01  0.7957747E-01            NaN
         13   -1    0    0    0    0  0.00000000000E+00  0.00000000000E+00  0.74505805969E-08  0.10566000000E+00  0.10566000000E+00 0.  1.
     999900   -1    0    0    0    0 -0.00000000000E+00 -0.00000000000E+00 -0.74505805969E-08  0.93827000000E+00  0.93827000000E+00 0. -1.
     999902    2    1    2    0    0 -0.25540316463E-03 -0.89997081263E-02 -0.12973055687E-01  0.10281388585E+01  0.10280175836E+01 0.  0.
     999903    2    3    3    0    0  0.43044310153E-01 -0.85675180977E-01 -0.91745920185E-01  0.14024294255E+00  0.45362096440E-01 0.  0.
         14    1    1    2    0    0  0.25540316463E-03  0.89997081263E-02  0.12973055687E-01  0.15791141535E-01  0.00000000000E+00 0.  1.
     999901    1    3    3    0    0 -0.43299713317E-01  0.76675472851E-01  0.78772864499E-01  0.88789591591E+00  0.88000000000E+00 0.  1.
        -11    1    4    4    0    0  0.14797521106E-01 -0.98572971413E-02  0.17061182505E-03  0.17788287360E-01  0.51100000000E-03 0. -1.
         11    1    4    4    0    0  0.28246789047E-01 -0.75817883836E-01 -0.91916532010E-01  0.12245465519E+00  0.51100000000E-03 0.  1.
</event>
<event>
 8    1  0.1993226E+004  0.1043930E+01  0.7957747E-01            NaN
         13   -1    0    0    0    0  0.00000000000E+00  0.00000000000E+00  0.74505805969E-08  0.10566000000E+00  0.10566000000E+00 0. -1.
     999900   -1    0    0    0    0 -0.00000000000E+00 -0.00000000000E+00 -0.74505805969E-08  0.93827000000E+00  0.93827000000E+00 0. -1.
     999902    2    1    2    0    0  0.44620471427E-02  0.12104624689E-01  0.57683602787E-02  0.10297982703E+01  0.10297013022E+01 0.  0.
     999903    2    3    3    0    0 -0.36022515333E-01 -0.10340450444E+00  0.73094423399E-01  0.13877966362E+00  0.43896322764E-01 0.  0.
         14    1    1    2    0    0 -0.44620471427E-02 -0.12104624689E-01 -0.57683602787E-02  0.14131729685E-01  0.00000000000E+00 0.  1.
     999901    1    3    3    0    0  0.40484562475E-01  0.11550912913E+00 -0.67326063120E-01  0.89101860670E+00  0.88000000000E+00 0. -1.
        -11    1    4    4    0    0 -0.29303341391E-01 -0.46515562324E-01  0.14553097234E-01  0.56872111927E-01  0.51100000000E-03 0. -1.
         11    1    4    4    0    0 -0.67191739414E-02 -0.56888942114E-01  0.58541326165E-01  0.81907551688E-01  0.51100000000E-03 0.  1.
</event>
<event>
 8    1  0.1993226E+004  0.1043930E+01  0.7957747E-01            NaN
         13   -1    0    0    0    0  0.00000000000E+00  0.00000000000E+00  0.74505805969E-08  0.10566000000E+00  0.10566000000E+00 0. -1.
     999900   -1    0    0    0    0 -0.00000000000E+00 -0.00000000000E+00 -0.74505805969E-08  0.93827000000E+00  0.93827000000E+00 0.  1.
     999902    2    1    2    0    0  0.12284755131E-01  0.25932465800E-02 -0.55445705831E-02  0.10302047532E+01  0.10301133196E+01 0.  0.
     999903    2    3    3    0    0  0.41223879512E-01 -0.11454771519E+00  0.52469179647E-01  0.14007831665E+00  0.45258509559E-01 0.  0.
         14    1    1    2    0    0 -0.12284755131E-01 -0.25932465800E-02  0.55445705831E-02  0.13725246788E-01  0.00000000000E+00 0. -1.
     999901    1    3    3    0    0 -0.28939124382E-01  0.11714096177E+00 -0.58013750230E-01  0.89012643656E+00  0.88000000000E+00 0.  1.
        -11    1    4    4    0    0  0.38981915287E-01 -0.68109240903E-01  0.50934359489E-01  0.93557621353E-01  0.51100000000E-03 0. -1.
         11    1    4    4    0    0  0.22419642256E-02 -0.46438474283E-01  0.15348201577E-02  0.46520695301E-01  0.51100000000E-03 0.  1.
</event>
<event>
 8    1  0.1993226E+004  0.1043930E+01  0.7957747E-01            NaN
         13   -1    0    0    0    0  0.00000000000E+00  0.00000000000E+00  0.74505805969E-08  0.10566000000E+00  0.10566000000E+00 0.  1.
     999900   -1    0    0    0    0 -0.00000000000E+00 -0.00000000000E+00 -0.74505805969E-08  0.93827000000E+00  0.93827000000E+00 0. -1.
     999902    2    1    2    0    0 -0.37018308642E-02  0.13762772789E-01  0.10555582290E-02  0.10296390354E+01  0.10295398543E+01 0.  0.
     999903    2    3    3    0    0 -0.77323258825E-01 -0.75248329240E-01  0.75596456128E-01  0.13896544960E+00  0.44219617772E-01 0.  0.
         14    1    1    2    0    0  0.37018308642E-02 -0.13762772789E-01 -0.10555582290E-02  0.14290964619E-01  0.00000000000E+00 0. -1.
     999901    1    3    3    0    0  0.73621427960E-01  0.89011102029E-01 -0.74540897899E-01  0.89067358578E+00  0.88000000000E+00 0. -1.
        -11    1    4    4    0    0 -0.52063442741E-01 -0.63800577198E-01  0.34274126231E-01  0.89196931398E-01  0.51100000000E-03 0. -1.
         11    1    4    4    0    0 -0.25259816084E-01 -0.11447752042E-01  0.41322329897E-01  0.49768518207E-01  0.51100000000E-03 0.  1.
</event>
<event>
 8    1  0.1993226E+004  0.1043930E+01  0.7957747E-01            NaN
         13   -1    0    0    0    0  0.00000000000E+00  0.00000000000E+00  0.74505805969E-08  0.10566000000E+00  0.10566000000E+00 0. -1.
     999900   -1    0    0    0    0 -0.00000000000E+00 -0.00000000000E+00 -0.74505805969E-08  0.93827000000E+00  0.93827000000E+00 0.  1.
     999902    2    1    2    0    0 -0.27755959583E-02 -0.14707562384E-01 -0.49196449427E-02  0.10281750252E+01  0.10280543095E+01 0.  0.
     999903    2    3    3    0    0  0.90388051132E-01  0.23181541479E-01  0.89758674326E-01  0.13740062422E+00  0.45988349234E-01 0.  0.
         14    1    1    2    0    0  0.27755959583E-02  0.14707562384E-01  0.49196449427E-02  0.15754974788E-01  0.00000000000E+00 0.  1.
     999901    1    3    3    0    0 -0.93163647091E-01 -0.37889103863E-01 -0.94678319268E-01  0.89077440100E+00  0.88000000000E+00 0.  1.
        -11    1    4    4    0    0  0.47440792431E-01  0.13390849380E-01  0.16626246517E-01  0.52025347936E-01  0.51100000000E-03 0. -1.
         11    1    4    4    0    0  0.42947258702E-01  0.97906920991E-02  0.73132427808E-01  0.85375276280E-01  0.51100000000E-03 0.  1.
</event>
<event>
 8    1  0.1993226E+004  0.1043930E+01  0.7957747E-01            NaN
         13   -1    0    0    0    0  0.00000000000E+00  0.00000000000E+00  0.74505805969E-08  0.10566000000E+00  0.10566000000E+00 0.  1.
     999900   -1    0    0    0    0 -0.00000000000E+00 -0.00000000000E+00 -0.74505805969E-08  0.93827000000E+00  0.93827000000E+00 0. -1.
     999902    2    1    2    0    0 -0.12386859825E-01  0.14356679272E-02 -0.64429005407E-02  0.10298941029E+01  0.10297984545E+01 0.  0.
     999903    2    3    3    0    0 -0.10343859972E+00  0.81353086716E-01  0.23591213959E-01  0.14108632778E+00  0.45065928141E-01 0.  0.
         14    1    1    2    0    0  0.12386859825E-01 -0.14356679272E-02  0.64429005407E-02  0.14035897054E-01  0.00000000000E+00 0.  1.
     999901    1    3    3    0    0  0.91051739898E-01 -0.79917418789E-01 -0.30034114500E-01  0.88880777517E+00  0.88000000000E+00 0.  1.
        -11    1    4    4    0    0 -0.65346591409E-01  0.42840579807E-01 -0.77161103914E-02  0.78519371925E-01  0.51100000000E-03 0. -1.
         11    1    4    4    0    0 -0.38092008314E-01  0.38512506909E-01  0.31307324350E-01  0.62566955854E-01  0.51100000000E-03 0.  1.
</event>
<event>
 8    1  0.1993226E+004  0.1043930E+01  0.7957747E-01            NaN
         13   -1    0    0    0    0  0.00000000000E+00  0.00000000000E+00  0.74505805969E-08  0.10566000000E+00  0.10566000000E+00 0. -1.
     999900   -1    0    0    0    0 -0.00000000000E+00 -0.00000000000E+00 -0.74505805969E-08  0.93827000000E+00  0.93827000000E+00 0. -1.
     999902    2    1    2    0    0  0.72256672863E-02  0.73691447558E-02 -0.89795315645E-02  0.10302498483E+01  0.10301590185E+01 0.  0.
     999903    2    3    3    0    0 -0.27952200140E-01  0.22493602599E-01 -0.12895984769E+00  0.14128330913E+00  0.45200038411E-01 0.  0.
         14    1    1    2    0    0 -0.72256672863E-02 -0.73691447558E-02  0.89795315645E-02  0.13680151654E-01  0.00000000000E+00 0. -1.
     999901    1    3    3    0    0  0.35177867426E-01 -0.15124457843E-01  0.11998031613E+00  0.88896653921E+00  0.88000000000E+00 0.  1.
        -11    1    4    4    0    0 -0.84192190915E-02  0.27649092586E-01 -0.36087006732E-01  0.46237309035E-01  0.51100000000E-03 0. -1.
         11    1    4    4    0    0 -0.19532981048E-01 -0.51554899869E-02 -0.92872840960E-01  0.95046000098E-01  0.51100000000E-03 0.  1.
</event>
<event>
 8    1  0.1993226E+004  0.1043930E+01  0.7957747E-01            NaN
         13   -1    0    0    0    0  0.00000000000E+00  0.00000000000E+00  0.74505805969E-08  0.10566000000E+00  0.10566000000E+00 0. -1.
     999900   -1    0    0    0    0 -0.00000000000E+00 -0.00000000000E+00 -0.74505805969E-08  0.93827000000E+00  0.93827000000E+00 0. -1.
     999902    2    1    2    0    0  0.27005032894E-02 -0.84827071779E-02 -0.10681781561E-01  0.10300249830E+01  0.10299311221E+01 0.  0.
     999903    2    3    3    0    0 -0.53245373721E-01  0.13344180838E-02 -0.12293942577E+00  0.14107723667E+00  0.44179563183E-01 0.  0.
         14    1    1    2    0    0 -0.27005032894E-02  0.84827071779E-02  0.10681781561E-01  0.13905016951E-01  0.00000000000E+00 0. -1.
     999901    1    3    3    0    0  0.55945877011E-01 -0.98171252617E-02  0.11225764421E+00  0.88894774638E+00  0.88000000000E+00 0.  1.
        -11    1    4    4    0    0 -0.35351484446E-01  0.22666000578E-02 -0.29995234628E-01  0.46420255813E-01  0.51100000000E-03 0.  1.
         11    1    4    4    0    0 -0.17893889276E-01 -0.93218197399E-03 -0.92944191147E-01  0.94656980860E-01  0.51100000000E-03 0. -1.
</event>
<event>
 8    1  0.1993226E+004  0.1043930E+01  0.7957747E-01            NaN
         13   -1    0    0    0    0  0.00000000000E+00  0.00000000000E+00  0.74505805969E-08  0.10566000000E+00  0.10566000000E+00 0. -1.
     999900   -1    0    0    0    0 -0.00000000000E+00 -0.00000000000E+00 -0.74505805969E-08  0.93827000000E+00  0.93827000000E+00 0.  1.
     999902    2    1    2    0    0 -0.81792705740E-02  0.94021558236E-02 -0.90488383876E-02  0.10285292702E+01  0.10284139620E+01 0.  0.
     999903    2    3    3    0    0 -0.14542752737E-01 -0.10952302846E+00  0.67847245633E-01  0.13718382592E+00  0.44825973857E-01 0.  0.
         14    1    1    2    0    0  0.81792705740E-02 -0.94021558236E-02  0.90488383876E-02  0.15400729769E-01  0.00000000000E+00 0. -1.
     999901    1    3    3    0    0  0.63634821625E-02  0.11892518429E+00 -0.76896084020E-01  0.89134544431E+00  0.88000000000E+00 0.  1.
        -11    1    4    4    0    0 -0.64431415774E-02 -0.13920399510E-01  0.30652413924E-01  0.34280069957E-01  0.51100000000E-03 0. -1.
         11    1    4    4    0    0 -0.80996111591E-02 -0.95602628953E-01  0.37194831709E-01  0.10290375596E+00  0.51100000000E-03 0.  1.
</event>
<event>
 8    1  0.1993226E+004  0.1043930E+01  0.7957747E-01            NaN
         13   -1    0    0    0    0  0.00000000000E+00  0.00000000000E+00  0.74505805969E-08  0.10566000000E+00  0.10566000000E+00 0. -1.
     999900   -1    0    0    0    0 -0.00000000000E+00 -0.00000000000E+00 -0.74505805969E-08  0.93827000000E+00  0.93827000000E+00 0.  1.
     999902    2    1    2    0    0 -0.75535342310E-02 -0.49297366626E-02  0.10295969394E-01  0.10302418603E+01  0.10301509237E+01 0.  0.
     999903    2    3    3    0    0 -0.11377400969E+00  0.95693661392E-02  0.70720917543E-01  0.14167886998E+00  0.45114919625E-01 0.  0.
         14    1    1    2    0    0  0.75535342310E-02  0.49297366626E-02 -0.10295969394E-01  0.13688139709E-01  0.00000000000E+00 0.  1.
     999901    1    3    3    0    0  0.10622047546E+00 -0.14499102802E-01 -0.60424948149E-01  0.88856299031E+00  0.88000000000E+00 0.  1.
        -11    1    4    4    0    0 -0.77001602914E-01 -0.14885831925E-01  0.48816916590E-01  0.92380665237E-01  0.51100000000E-03 0.  1.
         11    1    4    4    0    0 -0.36772406773E-01  0.24455198065E-01  0.21904000953E-01  0.49298204744E-01  0.51100000000E-03 0. -1.
</event>
<event>
 8    1  0.1993226E+004  0.1043930E+01  0.7957747E-01            NaN
         13   -1    0    0    0    0  0.00000000000E+00  0.00000000000E+00  0.74505805969E-08  0.10566000000E+00  0.10566000000E+00 0.  1.
     999900   -1    0    0    0    0 -0.00000000000E+00 -0.00000000000E+00 -0.74505805969E-08  0.93827000000E+00  0.93827000000E+00 0.  1.
     999902    2    1    2    0    0  0.88771515808E-02 -0.67723186618E-02 -0.77208203753E-02  0.10303550529E+01  0.10302656240E+01 0.  0.
     999903    2    3    3    0    0  0.27508958273E-01  0.12222318479E+00  0.40876963530E-01  0.13942928234E+00  0.45545021029E-01 0.  0.
         14    1    1    2    0    0 -0.88771515808E-02  0.67723186618E-02  0.77208203753E-02  0.13574947054E-01  0.00000000000E+00 0.  1.
     999901    1    3    3    0    0 -0.18631806692E-01 -0.12899550345E+00 -0.48597783905E-01  0.89092577061E+00  0.88000000000E+00 0.  1.
        -11    1    4    4    0    0  0.36904099889E-01  0.11641755528E+00  0.39080115982E-01  0.12822821979E+00  0.51100000000E-03 0.  1.
         11    1    4    4    0    0 -0.93951416158E-02  0.58056295128E-02  0.17968475479E-02  0.11201062545E-01  0.51100000000E-03 0. -1.
</event>
<event>
 8    1  0.1993226E+004  0.1043930E+01  0.7957747E-01            NaN
         13   -1    0    0    0    0  0.00000000000E+00  0.00000000000E+00  0.74505805969E-08  0.10566000000E+00  0.10566000000E+00 0. -1.
     999900   -1    0    0    0    0 -0.00000000000E+00 -0.00000000000E+00 -0.74505805969E-08  0.93827000000E+00  0.93827000000E+00 0. -1.
     999902    2    1    2    0    0 -0.10534202179E-01  0.65155604177E-02 -0.60109848701E-02  0.10301621432E+01  0.10300701371E+01 0.  0.
     999903    2    3    3    0    0 -0.40570261995E-01 -0.45780802851E-01  0.11687266076E+00  0.13957948844E+00  0.45622217086E-01 0.  0.
         14    1    1    2    0    0  0.10534202179E-01 -0.65155604177E-02  0.60109848701E-02  0.13767856849E-01  0.00000000000E+00 0. -1.
     999901    1    3    3    0    0  0.30036059816E-01  0.52296363269E-01 -0.12288364564E+00  0.89058265471E+00  0.88000000000E+00 0. -1.
        -11    1    4    4    0    0  0.89316430149E-02 -0.57741872464E-02  0.30375830305E-01  0.32188005111E-01  0.51100000000E-03 0. -1.
         11    1    4    4    0    0 -0.49501905010E-01 -0.40006615605E-01  0.86496830460E-01  0.10739148333E+00  0.51100000000E-03 0.  1.
</event>
<event>
 8    1  0.1993226E+004  0.1043930E+01  0.7957747E-01            NaN
         13   -1    0    0    0    0  0.00000000000E+00  0.00000000000E+00  0.74505805969E-08  0.10566000000E+00  0.10566000000E+00 0. -1.
     999900   -1    0    0    0    0 -0.00000000000E+00 -0.00000000000E+00 -0.74505805969E-08  0.93827000000E+00  0.93827000000E+00 0.  1.
     999902    2    1    2    0    0 -0.10436952435E-03 -0.14686368632E-01 -0.57192585940E-04  0.10292431492E+01  0.10291383563E+01 0.  0.
     999903    2    3    3    0    0 -0.71133970645E-01 -0.11317590496E+00 -0.14209693098E-02  0.14090354468E+00  0.44530467159E-01 0.  0.
         14    1    1    2    0    0  0.10436952435E-03  0.14686368632E-01  0.57192585940E-04  0.14686850839E-01  0.00000000000E+00 0. -1.
     999901    1    3    3    0    0  0.71029601121E-01  0.98489536332E-01  0.13637767238E-02  0.88833960448E+00  0.88000000000E+00 0.  1.
        -11    1    4    4    0    0 -0.11869899072E-01 -0.45061531218E-01 -0.16354937112E-01  0.49388067269E-01  0.51100000000E-03 0.  1.
         11    1    4    4    0    0 -0.59264071573E-01 -0.68114373747E-01  0.14933967803E-01  0.91515477410E-01  0.51100000000E-03 0. -1.
</event>
<event>
 8    1  0.1993226E+004  0.1043930E+01  0.7957747E-01            NaN
         13   -1    0    0    0    0  0.00000000000E+00  0.00000000000E+00  0.74505805969E-08  0.10566000000E+00  0.10566000000E+00 0.  1.
     999900   -1    0    0    0    0 -0.00000000000E+00 -0.00000000000E+00 -0.74505805969E-08  0.93827000000E+00  0.93827000000E+00 0. -1.
     999902    2    1    2    0    0  0.89565840000E-02 -0.57701331798E-02  0.89710835680E-02  0.10300017850E+01  0.10299076084E+01 0.  0.
     999903    2    3    3    0    0  0.63192973417E-01 -0.41595983857E-01 -0.10862888137E+00  0.13980246499E+00  0.44954616972E-01 0.  0.
         14    1    1    2    0    0 -0.89565840000E-02  0.57701331798E-02 -0.89710835680E-02  0.13928215042E-01  0.00000000000E+00 0.  1.
     999901    1    3    3    0    0 -0.54236389417E-01  0.35825850678E-01  0.11759996494E+00  0.89019931997E+00  0.88000000000E+00 0.  1.
        -11    1    4    4    0    0  0.91883886700E-02 -0.12003793338E-01 -0.58418081058E-01  0.60344435173E-01  0.51100000000E-03 0.  1.
         11    1    4    4    0    0  0.54004584747E-01 -0.29592190519E-01 -0.50210800316E-01  0.79458029820E-01  0.51100000000E-03 0. -1.
</event>
<event>
 8    1  0.1993226E+004  0.1043930E+01  0.7957747E-01            NaN
         13   -1    0    0    0    0  0.00000000000E+00  0.00000000000E+00  0.74505805969E-08  0.10566000000E+00  0.10566000000E+00 0.  1.
     999900   -1    0    0    0    0 -0.00000000000E+00 -0.00000000000E+00 -0.74505805969E-08  0.93827000000E+00  0.93827000000E+00 0. -1.
     999902    2    1    2    0    0 -0.10616199178E-01 -0.47897648073E-02  0.72430198279E-02  0.10302147943E+01  0.10301234953E+01 0.  0.
     999903    2    3    3    0    0 -0.13082934755E+00  0.18844953930E-01  0.23198279168E-01  0.14158417851E+00  0.45127253159E-01 0.  0.
         14    1    1    2    0    0  0.10616199178E-01  0.47897648073E-02 -0.72430198279E-02  0.13715205727E-01  0.00000000000E+00 0. -1.
     999901    1    3    3    0    0  0.12021314838E+00 -0.23634718737E-01 -0.15955259340E-01  0.88863061576E+00  0.88000000000E+00 0. -1.
        -11    1    4    4    0    0 -0.35084334209E-01  0.13057645256E-01 -0.12143984456E-01  0.39359243971E-01  0.51100000000E-03 0.  1.
         11    1    4    4    0    0 -0.95745013346E-01  0.57873086736E-02  0.35342263624E-01  0.10222493454E+00  0.51100000000E-03 0. -1.
</event>
<event>
 8    1  0.1993226E+004  0.1043930E+01  0.7957747E-01            NaN
         13   -1    0    0    0    0  0.00000000000E+00  0.00000000000E+00  0.74505805969E-08  0.10566000000E+00  0.10566000000E+00 0.  1.
     999900   -1    0    0    0    0 -0.00000000000E+00 -0.00000000000E+00 -0.74505805969E-08  0.93827000000E+00  0.93827000000E+00 0.  1.
     999902    2    1    2    0    0  0.12517929486E-02 -0.38187503307E-02  0.13215394116E-01  0.10301170900E+01  0.10300244768E+01 0.  0.
     999903    2    3    3    0    0  0.90812910874E-01 -0.39387143619E-01  0.90528844385E-01  0.14148686659E+00  0.44996998666E-01 0.  0.
         14    1    1    2    0    0 -0.12517929486E-02  0.38187503307E-02 -0.13215394116E-01  0.13812909951E-01  0.00000000000E+00 0. -1.
     999901    1    3    3    0    0 -0.89561117926E-01  0.35568393288E-01 -0.77313450269E-01  0.88863022346E+00  0.88000000000E+00 0.  1.
        -11    1    4    4    0    0  0.17694442652E-01 -0.27788284047E-01  0.40146008584E-01  0.51935008975E-01  0.51100000000E-03 0.  1.
         11    1    4    4    0    0  0.73118468223E-01 -0.11598859572E-01  0.50382835801E-01  0.89551857619E-01  0.51100000000E-03 0. -1.
</event>
<event>
 8    1  0.1993226E+004  0.1043930E+01  0.7957747E-01            NaN
         13   -1    0    0    0    0  0.00000000000E+00  0.00000000000E+00  0.74505805969E-08  0.10566000000E+00  0.10566000000E+00 0. -1.
     999900   -1    0    0    0    0 -0.00000000000E+00 -0.00000000000E+00 -0.74505805969E-08  0.93827000000E+00  0.93827000000E+00 0.  1.
     999902    2    1    2    0    0 -0.67873382249E-02 -0.11371275234E-02 -0.11023593822E-01  0.10309345916E+01  0.10308526818E+01 0.  0.
     999903    2    3    3    0    0  0.86776095335E-01  0.30078930259E-01  0.94300102440E-01  0.13918258606E+00  0.45215596584E-01 0.  0.
         14    1    1    2    0    0  0.67873382249E-02  0.11371275234E-02  0.11023593822E-01  0.12995408418E-01  0.00000000000E+00 0. -1.
     999901    1    3    3    0    0 -0.93563433560E-01 -0.31216057782E-01 -0.10532369626E+00  0.89175200552E+00  0.88000000000E+00 0.  1.
        -11    1    4    4    0    0  0.37860559403E-01  0.27557169615E-01  0.21725303045E-01  0.51624310832E-01  0.51100000000E-03 0. -1.
         11    1    4    4    0    0  0.48915535932E-01  0.25217606438E-02  0.72574799395E-01  0.87558275226E-01  0.51100000000E-03 0.  1.
</event>
<event>
 8    1  0.1993226E+004  0.1043930E+01  0.7957747E-01            NaN
         13   -1    0    0    0    0  0.00000000000E+00  0.00000000000E+00  0.74505805969E-08  0.10566000000E+00  0.10566000000E+00 0.  1.
     999900   -1    0    0    0    0 -0.00000000000E+00 -0.00000000000E+00 -0.74505805969E-08  0.93827000000E+00  0.93827000000E+00 0. -1.
     999902    2    1    2    0    0  0.14189326277E-02  0.39449587213E-02 -0.13082874649E-01  0.10301918168E+01  0.10301002095E+01 0.  0.
     999903    2    3    3    0    0 -0.10689016944E+00 -0.42231387106E-01 -0.68277832066E-01  0.14063597265E+00  0.43676264381E-01 0.  0.
         14    1    1    2    0    0 -0.14189326277E-02 -0.39449587213E-02  0.13082874649E-01  0.13738183221E-01  0.00000000000E+00 0.  1.
     999901    1    3    3    0    0  0.10830910207E+00  0.46176345827E-01  0.55194957416E-01  0.88955584413E+00  0.88000000000E+00 0.  1.
        -11    1    4    4    0    0 -0.32349556012E-03  0.25938278044E-02 -0.11556993678E-01  0.11859924786E-01  0.51100000000E-03 0. -1.
         11    1    4    4    0    0 -0.10656667388E+00 -0.44825214911E-01 -0.56720838388E-01  0.12877604786E+00  0.51100000000E-03 0.  1.
</event>
<event>
 8    1  0.1993226E+004  0.1043930E+01  0.7957747E-01            NaN
         13   -1    0    0    0    0  0.00000000000E+00  0.00000000000E+00  0.74505805969E-08  0.10566000000E+00  0.10566000000E+00 0. -1.
     999900   -1    0    0    0    0 -0.00000000000E+00 -0.00000000000E+00 -0.74505805969E-08  0.93827000000E+00  0.93827000000E+00 0.  1.
     999902    2    1    2    0    0  0.27038184117E-02 -0.51950229004E-02  0.12626993706E-01  0.10300109531E+01  0.10299169013E+01 0.  0.
     999903    2    3    3    0    0 -0.11330279152E+00  0.54819228751E-01 -0.38964049744E-01  0.13887635062E+00  0.43883632284E-01 0.  0.
         14    1    1    2    0    0 -0.27038184117E-02  0.51950229004E-02 -0.12626993706E-01  0.13919046913E-01  0.00000000000E+00 0.  1.
     999901    1    3    3    0    0  0.11600660993E+00 -0.60014251651E-01  0.51591043450E-01  0.89113460247E+00  0.88000000000E+00 0. -1.
        -11    1    4    4    0    0 -0.91277492056E-01  0.60475965888E-01 -0.25432893066E-01  0.11241003593E+00  0.51100000000E-03 0. -1.
         11    1    4    4    0    0 -0.22025299462E-01 -0.56567371371E-02 -0.13531156679E-01  0.26466314694E-01  0.51100000000E-03 0.  1.
</event>
<event>
 8    1  0.1993226E+004  0.1043930E+01  0.7957747E-01            NaN
         13   -1    0    0    0    0  0.00000000000E+00  0.00000000000E+00  0.74505805969E-08  0.10566000000E+00  0.10566000000E+00 0. -1.
     999900   -1    0    0    0    0 -0.00000000000E+00 -0.00000000000E+00 -0.74505805969E-08  0.93827000000E+00  0.93827000000E+00 0.  1.
     999902    2    1    2    0    0 -0.31026684146E-02 -0.11691777090E-01 -0.87593804145E-02  0.10289951097E+01  0.10288867211E+01 0.  0.
     999903    2    3    3    0    0 -0.12754667775E+00  0.32707565854E-01  0.87155391038E-02  0.13895972506E+00  0.43541987770E-01 0.  0.
         14    1    1    2    0    0  0.31026684146E-02  0.11691777090E-01  0.87593804145E-02  0.14934890293E-01  0.00000000000E+00 0. -1.
     999901    1    3    3    0    0  0.12444400933E+00 -0.44399342943E-01 -0.17474919518E-01  0.89003538465E+00  0.88000000000E+00 0. -1.
        -11    1    4    4    0    0 -0.99612020934E-01  0.34060506646E-01  0.22687311827E-01  0.10769237701E+00  0.51100000000E-03 0. -1.
         11    1    4    4    0    0 -0.27934656811E-01 -0.13529407919E-02 -0.13971772723E-01  0.31267348048E-01  0.51100000000E-03 0.  1.
</event>
<event>
 8    1  0.1993226E+004  0.1043930E+01  0.7957747E-01            NaN
         13   -1    0    0    0    0  0.00000000000E+00  0.00000000000E+00  0.74505805969E-08  0.10566000000E+00  0.10566000000E+00 0. -1.
     999900   -1    0    0    0    0 -0.00000000000E+00 -0.00000000000E+00 -0.74505805969E-08  0.93827000000E+00  0.93827000000E+00 0. -1.
     999902    2    1    2    0    0 -0.11899197466E-02 -0.12638182071E-01  0.38559519673E-02  0.10306632023E+01  0.10305778130E+01 0.  0.
     999903    2    3    3    0    0  0.71040606194E-01  0.85978379829E-01 -0.70104288210E-01  0.13914057654E+00  0.44793295116E-01 0.  0.
         14    1    1    2    0    0  0.11899197466E-02  0.12638182071E-01 -0.38559519673E-02  0.13266797678E-01  0.00000000000E+00 0. -1.
     999901    1    3    3    0    0 -0.72230525941E-01 -0.98616561900E-01  0.73960240177E-01  0.89152262578E+00  0.88000000000E+00 0.  1.
        -11    1    4    4    0    0  0.39471743521E-01  0.78295095171E-01 -0.51998713709E-01  0.10194247306E+00  0.51100000000E-03 0. -1.
         11    1    4    4    0    0  0.31568862673E-01  0.76832846581E-02 -0.18105574500E-01  0.37198103481E-01  0.51100000000E-03 0.  1.
</event>
<event>
 7    1  0.1993226E+004  0.1043930E+01  0.7957747E-01            NaN
         13   -1    0    0    0    0  0.00000000000E+00  0.00000000000E+00  0.74505805969E-08  0.10566000000E+00  0.10566000000E+00 0.  1.
     999900   -1    0    0    0    0 -0.00000000000E+00 -0.00000000000E+00 -0.74505805969E-08  0.93827000000E+00  0.93827000000E+00 0. -1.
     999902    2    1    2    0    0 -0.12850989574E-01  0.55148653135E-02 -0.47000279117E-02  0.10291769686E+01  0.10290712224E+01 0.  0.
         14    1    1    2    0    0  0.12850989574E-01 -0.55148653135E-02  0.47000279117E-02  0.14753031377E-01  0.00000000000E+00 0.  1.
     999901    1    3    3    0    0 -0.70617025053E-01  0.49423093962E-01  0.93933172804E-01  0.88918662124E+00  0.88000000000E+00 0.  1.
        -11    1    3    3    0    0  0.29360234443E-03  0.93680190077E-02 -0.42671745218E-01  0.43691932247E-01  0.51100000000E-03 0. -1.
         11    1    3    3    0    0  0.57472433135E-01 -0.53276247656E-01 -0.55961455497E-01  0.96298415133E-01  0.51100000000E-03 0.  1.
</event>
<event>
 8    1  0.1993226E+004  0.1043930E+01  0.7957747E-01            NaN
         13   -1    0    0    0    0  0.00000000000E+00  0.00000000000E+00  0.74505805969E-08  0.10566000000E+00  0.10566000000E+00 0.  1.
     999900   -1    0    0    0    0 -0.00000000000E+00 -0.00000000000E+00 -0.74505805969E-08  0.93827000000E+00  0.93827000000E+00 0.  1.
     999902    2    1    2    0    0 -0.22465434661E-02  0.13594545937E-01  0.25607019440E-02  0.10299151568E+01  0.10298197970E+01 0.  0.
     999903    2    3    3    0    0 -0.11880695692E+00  0.60534648994E-01 -0.97236737820E-02  0.14090412806E+00  0.44495918137E-01 0.  0.
         14    1    1    2    0    0  0.22465434661E-02 -0.13594545937E-01 -0.25607019440E-02  0.14014843247E-01  0.00000000000E+00 0. -1.
     999901    1    3    3    0    0  0.11656041345E+00 -0.46940103057E-01  0.12284375726E-01  0.88901102870E+00  0.88000000000E+00 0. -1.
        -11    1    4    4    0    0 -0.75003186921E-01  0.18566662978E-01 -0.18904028902E-01  0.79547611229E-01  0.51100000000E-03 0. -1.
         11    1    4    4    0    0 -0.43803769995E-01  0.41967986016E-01  0.91803551205E-02  0.61356516827E-01  0.51100000000E-03 0.  1.
</event>
<event>
 8    1  0.1993226E+004  0.1043930E+01  0.7957747E-01            NaN
         13   -1    0    0    0    0  0.00000000000E+00  0.00000000000E+00  0.74505805969E-08  0.10566000000E+00  0.10566000000E+00 0.  1.
     999900   -1    0    0    0    0 -0.00000000000E+00 -0.00000000000E+00 -0.74505805969E-08  0.93827000000E+00  0.93827000000E+00 0.  1.
     999902    2    1    2    0    0  0.10077577907E-03  0.50682712726E-02  0.13348305493E-01  0.10296515271E+01  0.10295525205E+01 0.  0.
     999903    2    3    3    0    0  0.17453672404E-01  0.13156203474E+00 -0.74071191229E-02  0.14019518590E+00  0.44571572446E-01 0.  0.
         14    1    1    2    0    0 -0.10077577907E-03 -0.50682712726E-02 -0.13348305493E-01  0.14278472922E-01  0.00000000000E+00 0. -1.
     999901    1    3    3    0    0 -0.17352896625E-01 -0.12649376347E+00  0.20755424615E-01  0.88945634118E+00  0.88000000000E+00 0.  1.
        -11    1    4    4    0    0  0.24931250370E-01  0.96894806386E-01 -0.20963178312E-01  0.10222468741E+00  0.51100000000E-03 0. -1.
         11    1    4    4    0    0 -0.74775779661E-02  0.34667228351E-01  0.13556059189E-01  0.37970498489E-01  0.51100000000E-03 0.  1.
</event>
<event>
 8    1  0.1993226E+004  0.1043930E+01  0.7957747E-01            NaN
         13   -1    0    0    0    0  0.00000000000E+00  0.00000000000E+00  0.74505805969E-08  0.10566000000E+00  0.10566000000E+00 0.  1.
     999900   -1    0    0    0    0 -0.00000000000E+00 -0.00000000000E+00 -0.74505805969E-08  0.93827000000E+00  0.93827000000E+00 0.  1.
     999902    2    1    2    0    0  0.92299177757E-02  0.84996473573E-02 -0.10185859575E-01  0.10277687153E+01  0.10276416423E+01 0.  0.
     999903    2    3    3    0    0 -0.11722271277E+00 -0.50617037055E-01 -0.19629987961E-01  0.13671639266E+00  0.44752505702E-01 0.  0.
         14    1    1    2    0    0 -0.92299177757E-02 -0.84996473573E-02  0.10185859575E-01  0.16161284684E-01  0.00000000000E+00 0.  1.
     999901    1    3    3    0    0  0.12645263054E+00  0.59116684412E-01  0.94441283860E-02  0.89105232265E+00  0.88000000000E+00 0.  1.
        -11    1    4    4    0    0 -0.69347152559E-01 -0.66288189971E-02 -0.36334398063E-02  0.69759815189E-01  0.51100000000E-03 0. -1.
         11    1    4    4    0    0 -0.47875560207E-01 -0.43988218058E-01 -0.15996548154E-01  0.66956577473E-01  0.51100000000E-03 0.  1.
</event>
<event>
 8    1  0.1993226E+004  0.1043930E+01  0.7957747E-01            NaN
         13   -1    0    0    0    0  0.00000000000E+00  0.00000000000E+00  0.74505805969E-08  0.10566000000E+00  0.10566000000E+00 0.  1.
     999900   -1    0    0    0    0 -0.00000000000E+00 -0.00000000000E+00 -0.74505805969E-08  0.93827000000E+00  0.93827000000E+00 0. -1.
     999902    2    1    2    0    0  0.20138789375E-02  0.18876373130E-01  0.47954099656E-02  0.10243501857E+01  0.10241630407E+01 0.  0.
     999903    2    3    3    0    0  0.60021560186E-01 -0.83552023496E-01 -0.71525534265E-01  0.13323776068E+00  0.45308613981E-01 0.  0.
         14    1    1    2    0    0 -0.20138789375E-02 -0.18876373130E-01 -0.47954099656E-02  0.19579814291E-01  0.00000000000E+00 0.  1.
     999901    1    3    3    0    0 -0.58007681249E-01  0.10242839663E+00  0.76320944231E-01  0.89111242503E+00  0.88000000000E+00 0.  1.
        -11    1    4    4    0    0  0.35332906637E-01 -0.31148422378E-01 -0.56168899978E-01  0.73306513720E-01  0.51100000000E-03 0.  1.
         11    1    4    4    0    0  0.24688653549E-01 -0.52403601118E-01 -0.15356634287E-01  0.59931246957E-01  0.51100000000E-03 0. -1.
</event>
<event>
 8    1  0.1993226E+004  0.1043930E+01  0.7957747E-01            NaN
         13   -1    0    0    0    0  0.00000000000E+00  0.00000000000E+00  0.74505805969E-08  0.10566000000E+00  0.10566000000E+00 0.  1.
     999900   -1    0    0    0    0 -0.00000000000E+00 -0.00000000000E+00 -0.74505805969E-08  0.93827000000E+00  0.93827000000E+00 0. -1.
     999902    2    1    2    0    0  0.26485338677E-03  0.10883786257E-01  0.84080683922E-02  0.10301741807E+01  0.10300823365E+01 0.  0.
     999903    2    3    3    0    0 -0.28198276625E-01  0.65495005286E-01  0.11398250663E+00  0.14172694140E+00  0.44830520594E-01 0.  0.
         14    1    1    2    0    0 -0.26485338677E-03 -0.10883786257E-01 -0.84080683922E-02  0.13755819302E-01  0.00000000000E+00 0. -1.
     999901    1    3    3    0    0  0.28463130012E-01 -0.54611219029E-01 -0.10557443824E+00  0.88844723930E+00  0.88000000000E+00 0. -1.
        -11    1    4    4    0    0 -0.13629409592E-01  0.94582131766E-02  0.61085983099E-01  0.63300687630E-01  0.51100000000E-03 0. -1.
         11    1    4    4    0    0 -0.14568867033E-01  0.56036792109E-01  0.52896523535E-01  0.78426253765E-01  0.51100000000E-03 0.  1.
</event>
<event>
 8    1  0.1993226E+004  0.1043930E+01  0.7957747E-01            NaN
         13   -1    0    0    0    0  0.00000000000E+00  0.00000000000E+00  0.74505805969E-08  0.10566000000E+00  0.10566000000E+00 0.  1.
     999900   -1    0    0    0    0 -0.00000000000E+00 -0.00000000000E+00 -0.74505805969E-08  0.93827000000E+00  0.93827000000E+00 0.  1.
     999902    2    1    2    0    0  0.86561697273E-02  0.99153097342E-02  0.41100263717E-02  0.10301410567E+01  0.10300487666E+01 0.  0.
     999903    2    3    3    0    0 -0.10889004282E+00 -0.65832937419E-01 -0.31858232016E-01  0.13837392078E+00  0.44061070466E-01 0.  0.
         14    1    1    2    0    0 -0.86561697273E-02 -0.99153097342E-02 -0.41100263717E-02  0.13788943333E-01  0.00000000000E+00 0. -1.
     999901    1    3    3    0    0  0.11754621255E+00  0.75748247153E-01  0.35968258388E-01  0.89176713588E+00  0.88000000000E+00 0. -1.
        -11    1    4    4    0    0 -0.94318770313E-01 -0.35147243721E-01 -0.22607883932E-01  0.10316364045E+00  0.51100000000E-03 0. -1.
         11    1    4    4    0    0 -0.14571272509E-01 -0.30685693697E-01 -0.92503480841E-02  0.35210280330E-01  0.51100000000E-03 0.  1.
</event>
<event>
 8    1  0.1993226E+004  0.1043930E+01  0.7957747E-01            NaN
         13   -1    0    0    0    0  0.00000000000E+00  0.00000000000E+00  0.74505805969E-08  0.10566000000E+00  0.10566000000E+00 0.  1.
     999900   -1    0    0    0    0 -0.00000000000E+00 -0.00000000000E+00 -0.74505805969E-08  0.93827000000E+00  0.93827000000E+00 0. -1.
     999902    2    1    2    0    0  0.18968214745E-02 -0.23581365181E-01  0.12787927058E-01  0.10170374398E+01  0.10166818304E+01 0.  0.
     999903    2    3    3    0    0 -0.85817526795E-02  0.67631689637E-01 -0.95363217072E-01  0.12567539671E+00  0.45304196787E-01 0.  0.
         14    1    1    2    0    0 -0.18968214745E-02  0.23581365181E-01 -0.12787927058E-01  0.26892560197E-01  0.00000000000E+00 0. -1.
     999901    1    3    3    0    0  0.10478574154E-01 -0.91213054817E-01  0.10815114413E+00  0.89136204309E+00  0.88000000000E+00 0.  1.
        -11    1    4    4    0    0 -0.12759149736E-01  0.65163568594E-01 -0.58516939465E-01  0.88507513236E-01  0.51100000000E-03 0.  1.
         11    1    4    4    0    0  0.41773970567E-02  0.24681210423E-02 -0.36846277607E-01  0.37167883477E-01  0.51100000000E-03 0. -1.
</event>
<event>
 8    1  0.1993226E+004  0.1043930E+01  0.7957747E-01            NaN
         13   -1    0    0    0    0  0.00000000000E+00  0.00000000000E+00  0.74505805969E-08  0.10566000000E+00  0.10566000000E+00 0. -1.
     999900   -1    0    0    0    0 -0.00000000000E+00 -0.00000000000E+00 -0.74505805969E-08  0.93827000000E+00  0.93827000000E+00 0.  1.
     999902    2    1    2    0    0  0.36714461591E-02 -0.81922031626E-02 -0.10789473875E-01  0.10298941724E+01  0.10297985249E+01 0.  0.
     999903    2    3    3    0    0 -0.37482584121E-01 -0.12196117382E+00  0.36274073884E-01  0.14037069862E+00  0.45920067121E-01 0.  0.
         14    1    1    2    0    0 -0.36714461591E-02  0.81922031626E-02  0.10789473875E-01  0.14035827587E-01  0.00000000000E+00 0. -1.
     999901    1    3    3    0    0  0.41154030280E-01  0.11376897066E+00 -0.47063547759E-01  0.88952347379E+00  0.88000000000E+00 0.  1.
        -11    1    4    4    0    0  0.68458128130E-02 -0.54152497969E-01  0.14157573190E-01  0.56391986921E-01  0.51100000000E-03 0. -1.
         11    1    4    4    0    0 -0.44328396934E-01 -0.67808675851E-01  0.22116500694E-01  0.83978711704E-01  0.51100000000E-03 0.  1.
</event>
<event>
 8    1  0.1993226E+004  0.1043930E+01  0.7957747E-01            NaN
         13   -1    0    0    0    0  0.00000000000E+00  0.00000000000E+00  0.74505805969E-08  0.10566000000E+00  0.10566000000E+00 0.  1.
     999900   -1    0    0    0    0 -0.00000000000E+00 -0.00000000000E+00 -0.74505805969E-08  0.93827000000E+00  0.93827000000E+00 0.  1.
     999902    2    1    2    0    0 -0.82589174702E-02 -0.91951019369E-02  0.39164818169E-02  0.10309647215E+01  0.10308831934E+01 0.  0.
     999903    2    3    3    0    0  0.66036362608E-01  0.72094063150E-01  0.89661283961E-01  0.13996534544E+00  0.44640754411E-01 0.  0.
         14    1    1    2    0    0  0.82589174702E-02  0.91951019369E-02 -0.39164818169E-02  0.12965278525E-01  0.00000000000E+00 0. -1.
     999901    1    3    3    0    0 -0.74295280078E-01 -0.81289165086E-01 -0.85744802144E-01  0.89099937604E+00  0.88000000000E+00 0.  1.
        -11    1    4    4    0    0  0.71099986575E-01  0.60183525467E-01  0.70440709176E-01  0.11678792514E+00  0.51100000000E-03 0.  1.
         11    1    4    4    0    0 -0.50636239673E-02  0.11910537682E-01  0.19220574785E-01  0.23177420297E-01  0.51100000000E-03 0. -1.
</event>
<event>
 8    1  0.1993226E+004  0.1043930E+01  0.7957747E-01            NaN
         13   -1    0    0    0    0  0.00000000000E+00  0.00000000000E+00  0.74505805969E-08  0.10566000000E+00  0.10566000000E+00 0. -1.
     999900   -1    0    0    0    0 -0.00000000000E+00 -0.00000000000E+00 -0.74505805969E-08  0.93827000000E+00  0.93827000000E+00 0.  1.
     999902    2    1    2    0    0 -0.14606388387E-02  0.67468620612E-02 -0.15743255154E-01  0.10267397790E+01  0.10265958651E+01 0.  0.
     999903    2    3    3    0    0  0.72753541701E-01  0.10644822785E+00  0.15853271792E-01  0.13744430090E+00  0.44892166163E-01 0.  0.
         14    1    1    2    0    0  0.14606388387E-02 -0.67468620612E-02  0.15743255154E-01  0.17190220951E-01  0.00000000000E+00 0. -1.
     999901    1    3    3    0    0 -0.74214180539E-01 -0.99701365787E-01 -0.31596526946E-01  0.88929547814E+00  0.88000000000E+00 0.  1.
        -11    1    4    4    0    0  0.60933204791E-01  0.65252266795E-01 -0.57134175536E-02  0.89462942212E-01  0.51100000000E-03 0.  1.
         11    1    4    4    0    0  0.11820336909E-01  0.41195961053E-01  0.21566689346E-01  0.47981358693E-01  0.51100000000E-03 0. -1.
</event>
<event>
 8    1  0.1993226E+004  0.1043930E+01  0.7957747E-01            NaN
         13   -1    0    0    0    0  0.00000000000E+00  0.00000000000E+00  0.74505805969E-08  0.10566000000E+00  0.10566000000E+00 0. -1.
     999900   -1    0    0    0    0 -0.00000000000E+00 -0.00000000000E+00 -0.74505805969E-08  0.93827000000E+00  0.93827000000E+00 0.  1.
     999902    2    1    2    0    0 -0.56618106767E-02 -0.10042353815E-01  0.80381120578E-02  0.10298759538E+01  0.10297800561E+01 0.  0.
     999903    2    3    3    0    0  0.12227409747E+00 -0.40510826824E-01  0.31018231070E-01  0.13980628777E+00  0.44627182736E-01 0.  0.
         14    1    1    2    0    0  0.56618106767E-02  0.10042353815E-01 -0.80381120578E-02  0.14054046241E-01  0.00000000000E+00 0.  1.
     999901    1    3    3    0    0 -0.12793590815E+00  0.30468473009E-01 -0.22980119012E-01  0.89006966599E+00  0.88000000000E+00 0.  1.
        -11    1    4    4    0    0  0.66489692298E-01 -0.24702098022E-01  0.39527277019E-01  0.81201844672E-01  0.51100000000E-03 0. -1.
         11    1    4    4    0    0  0.55784405175E-01 -0.15808728802E-01 -0.85090459492E-02  0.58604443100E-01  0.51100000000E-03 0.  1.
</event>
<event>
 8    1  0.1993226E+004  0.1043930E+01  0.7957747E-01            NaN
         13   -1    0    0    0    0  0.00000000000E+00  0.00000000000E+00  0.74505805969E-08  0.10566000000E+00  0.10566000000E+00 0.  1.
     999900   -1    0    0    0    0 -0.00000000000E+00 -0.00000000000E+00 -0.74505805969E-08  0.93827000000E+00  0.93827000000E+00 0. -1.
     999902    2    1    2    0    0  0.53049834274E-02 -0.11968572784E-01  0.42612193807E-02  0.10301623722E+01  0.10300703692E+01 0.  0.
     999903    2    3    3    0    0 -0.10939551312E+00  0.48508529101E-01 -0.54052163634E-01  0.13875105618E+00  0.44830386006E-01 0.  0.
         14    1    1    2    0    0 -0.53049834274E-02  0.11968572784E-01 -0.42612193807E-02  0.13767627765E-01  0.00000000000E+00 0. -1.
     999901    1    3    3    0    0  0.11470049655E+00 -0.60477101886E-01  0.58313383014E-01  0.89141131606E+00  0.88000000000E+00 0.  1.
        -11    1    4    4    0    0 -0.67198276075E-01  0.53286945074E-02 -0.28873111668E-01  0.73334309780E-01  0.51100000000E-03 0.  1.
         11    1    4    4    0    0 -0.42197237048E-01  0.43179834594E-01 -0.25179051966E-01  0.65416746395E-01  0.51100000000E-03 0. -1.
</event>
<event>
 8    1  0.1993226E+004  0.1043930E+01  0.7957747E-01            NaN
         13   -1    0    0    0    0  0.00000000000E+00  0.00000000000E+00  0.74505805969E-08  0.10566000000E+00  0.10566000000E+00 0. -1.
     999900   -1    0    0    0    0 -0.00000000000E+00 -0.00000000000E+00 -0.74505805969E-08  0.93827000000E+00  0.93827000000E+00 0.  1.
     999902    2    1    2    0    0 -0.96108299442E-03  0.12788118464E-01 -0.60728168872E-02  0.10297406110E+01  0.10296428445E+01 0.  0.
     999903    2    3    3    0    0 -0.76630708322E-01 -0.33750011957E-01 -0.10272030365E+00  0.14000333156E+00  0.45145800485E-01 0.  0.
         14    1    1    2    0    0  0.96108299442E-03 -0.12788118464E-01  0.60728168872E-02  0.14189388969E-01  0.00000000000E+00 0.  1.
     999901    1    3    3    0    0  0.75669625327E-01  0.46538130422E-01  0.96647486762E-01  0.88973727947E+00  0.88000000000E+00 0. -1.
        -11    1    4    4    0    0 -0.19476268951E-01  0.10528261800E-01 -0.31584441541E-01  0.38574699186E-01  0.51100000000E-03 0. -1.
         11    1    4    4    0    0 -0.57154439371E-01 -0.44278273758E-01 -0.71135862107E-01  0.10142863238E+00  0.51100000000E-03 0.  1.
</event>
<event>
 8    1  0.1993226E+004  0.1043930E+01  0.7957747E-01            NaN
         13   -1    0    0    0    0  0.00000000000E+00  0.00000000000E+00  0.74505805969E-08  0.10566000000E+00  0.10566000000E+00 0. -1.
     999900   -1    0    0    0    0 -0.00000000000E+00 -0.00000000000E+00 -0.74505805969E-08  0.93827000000E+00  0.93827000000E+00 0. -1.
     999902    2    1    2    0    0  0.92568310351E-02  0.30065448461E-03 -0.10618514350E-01  0.10298398559E+01  0.10297434616E+01 0.  0.
     999903    2    3    3    0    0 -0.96579854272E-01 -0.20994166802E-01 -0.87283179275E-01  0.13993404952E+00  0.46848282143E-01 0.  0.
         14    1    1    2    0    0 -0.92568310351E-02 -0.30065448461E-03  0.10618514350E-01  0.14090144106E-01  0.00000000000E+00 0. -1.
     999901    1    3    3    0    0  0.10583668531E+00  0.21294821287E-01  0.76664664925E-01  0.88990580637E+00  0.88000000000E+00 0.  1.
        -11    1    4    4    0    0 -0.71464119204E-01 -0.15042690189E-01 -0.33650843319E-01  0.80411710831E-01  0.51100000000E-03 0. -1.
         11    1    4    4    0    0 -0.25115735069E-01 -0.59514766131E-02 -0.53632335956E-01  0.59522338689E-01  0.51100000000E-03 0.  1.
</event>
<event>
 8    1  0.1993226E+004  0.1043930E+01  0.7957747E-01            NaN
         13   -1    0    0    0    0  0.00000000000E+00  0.00000000000E+00  0.74505805969E-08  0.10566000000E+00  0.10566000000E+00 0. -1.
     999900   -1    0    0    0    0 -0.00000000000E+00 -0.00000000000E+00 -0.74505805969E-08  0.93827000000E+00  0.93827000000E+00 0. -1.
     999902    2    1    2    0    0  0.39741263681E-02 -0.13686839898E-02  0.12991171437E-01  0.10302757878E+01  0.10301853044E+01 0.  0.
     999903    2    3    3    0    0  0.89767410515E-01  0.97848493094E-01 -0.15802574235E-01  0.14008838300E+00  0.41743479809E-01 0.  0.
         14    1    1    2    0    0 -0.39741263681E-02  0.13686839898E-02 -0.12991171437E-01  0.13654212228E-01  0.00000000000E+00 0.  1.
     999901    1    3    3    0    0 -0.85793284147E-01 -0.99217177083E-01  0.28793745672E-01  0.89018740478E+00  0.88000000000E+00 0.  1.
        -11    1    4    4    0    0  0.45579727718E-01  0.58970347389E-01 -0.28638789261E-01  0.79846445265E-01  0.51100000000E-03 0.  1.
         11    1    4    4    0    0  0.44187682797E-01  0.38878145704E-01  0.12836215026E-01  0.60241937731E-01  0.51100000000E-03 0. -1.
</event>
<event>
 8    1  0.1993226E+004  0.1043930E+01  0.7957747E-01            NaN
         13   -1    0    0    0    0  0.00000000000E+00  0.00000000000E+00  0.74505805969E-08  0.10566000000E+00  0.10566000000E+00 0.  1.
     999900   -1    0    0    0    0 -0.00000000000E+00 -0.00000000000E+00 -0.74505805969E-08  0.93827000000E+00  0.93827000000E+00 0. -1.
     999902    2    1    2    0    0  0.95364045104E-02  0.16936604967E-02  0.10092487239E-01  0.10299417980E+01  0.10298468029E+01 0.  0.
     999903    2    3    3    0    0 -0.97596738210E-01  0.19423849758E-01 -0.84580921384E-01  0.13822720005E+00  0.45281534007E-01 0.  0.
         14    1    1    2    0    0 -0.95364045104E-02 -0.16936604967E-02 -0.10092487239E-01  0.13988202012E-01  0.00000000000E+00 0. -1.
     999901    1    3    3    0    0  0.10713314272E+00 -0.17730189261E-01  0.94673408623E-01  0.89171459794E+00  0.88000000000E+00 0.  1.
        -11    1    4    4    0    0 -0.10102371509E+00  0.13362649644E-01 -0.75778166302E-01  0.12699190141E+00  0.51100000000E-03 0. -1.
         11    1    4    4    0    0  0.34269768774E-02  0.60612001144E-02 -0.88027550824E-02  0.11235298634E-01  0.51100000000E-03 0.  1.
</event>
<event>
 8    1  0.1993226E+004  0.1043930E+01  0.7957747E-01            NaN
         13   -1    0    0    0    0  0.00000000000E+00  0.00000000000E+00  0.74505805969E-08  0.10566000000E+00  0.10566000000E+00 0. -1.
     999900   -1    0    0    0    0 -0.00000000000E+00 -0.00000000000E+00 -0.74505805969E-08  0.93827000000E+00  0.93827000000E+00 0. -1.
     999902    2    1    2    0    0 -0.14157715830E-01 -0.10963509711E-02 -0.54359922364E-02  0.10287249707E+01  0.10286125959E+01 0.  0.
     999903    2    3    3    0    0 -0.87319271538E-01  0.33995966930E-01  0.94631440644E-01  0.13934452621E+00  0.41004956725E-01 0.  0.
         14    1    1    2    0    0  0.14157715830E-01  0.10963509711E-02  0.54359922364E-02  0.15205029252E-01  0.00000000000E+00 0. -1.
     999901    1    3    3    0    0  0.73161555708E-01 -0.35092317901E-01 -0.10006743288E+00  0.88938044454E+00  0.88000000000E+00 0. -1.
        -11    1    4    4    0    0 -0.34984880174E-01  0.84021481387E-02  0.64247197185E-01  0.73637635766E-01  0.51100000000E-03 0. -1.
         11    1    4    4    0    0 -0.52334391364E-01  0.25593818791E-01  0.30384243459E-01  0.65706890440E-01  0.51100000000E-03 0.  1.
</event>
<event>
 8    1  0.1993226E+004  0.1043930E+01  0.7957747E-01            NaN
         13   -1    0    0    0    0  0.00000000000E+00  0.00000000000E+00  0.74505805969E-08  0.10566000000E+00  0.10566000000E+00 0.  1.
     999900   -1    0    0    0    0 -0.00000000000E+00 -0.00000000000E+00 -0.74505805969E-08  0.93827000000E+00  0.93827000000E+00 0.  1.
     999902    2    1    2    0    0  0.13966362516E-02 -0.44585861972E-02 -0.12325856952E-01  0.10307483334E+01  0.10306640435E+01 0.  0.
     999903    2    3    3    0    0  0.41943964587E-01 -0.12712183228E+00 -0.61053985915E-02  0.14129397718E+00  0.44804639129E-01 0.  0.
         14    1    1    2    0    0 -0.13966362516E-02  0.44585861972E-02  0.12325856952E-01  0.13181666560E-01  0.00000000000E+00 0.  1.
     999901    1    3    3    0    0 -0.40547328335E-01  0.12266324608E+00 -0.62204583602E-02  0.88945435626E+00  0.88000000000E+00 0.  1.
        -11    1    4    4    0    0  0.19219524360E-01 -0.91177552045E-01 -0.22253779106E-01  0.95803068422E-01  0.51100000000E-03 0.  1.
         11    1    4    4    0    0  0.22724440227E-01 -0.35944280233E-01  0.16148380515E-01  0.45490908755E-01  0.51100000000E-03 0. -1.
</event>
<event>
 7    1  0.1993226E+004  0.1043930E+01  0.7957747E-01            NaN
         13   -1    0    0    0    0  0.00000000000E+00  0.00000000000E+00  0.74505805969E-08  0.10566000000E+00  0.10566000000E+00 0.  1.
     999900   -1    0    0    0    0 -0.00000000000E+00 -0.00000000000E+00 -0.74505805969E-08  0.93827000000E+00  0.93827000000E+00 0. -1.
     999903    2    1    2    0    0  0.88031569982E-01 -0.15921948329E-01  0.39814194702E-01  0.10800502757E+00  0.45572471177E-01 0.  0.
         14    1    1    2    0    0 -0.52521214033E-02 -0.25387063161E-01 -0.43995381751E-01  0.51065461622E-01  0.00000000000E+00 0.  1.
     999901    1    1    2    0    0 -0.82779448579E-01  0.41309011490E-01  0.41811870497E-02  0.88485951081E+00  0.88000000000E+00 0. -1.
        -11    1    3    3    0    0  0.15083832738E-01 -0.20219949806E-01  0.20257605476E-01  0.32357380624E-01  0.51100000000E-03 0. -1.
         11    1    3    3    0    0  0.72947737244E-01  0.42980014773E-02  0.19556589226E-01  0.75647646949E-01  0.51100000000E-03 0.  1.
</event>
<event>
 8    1  0.1993226E+004  0.1043930E+01  0.7957747E-01            NaN
         13   -1    0    0    0    0  0.00000000000E+00  0.00000000000E+00  0.74505805969E-08  0.10566000000E+00  0.10566000000E+00 0. -1.
     999900   -1    0    0    0    0 -0.00000000000E+00 -0.00000000000E+00 -0.74505805969E-08  0.93827000000E+00  0.93827000000E+00 0. -1.
     999902    2    1    2    0    0 -0.12597562094E-01 -0.26538454370E-02  0.58559972634E-02  0.10297866563E+01  0.10296895277E+01 0.  0.
     999903    2    3    3    0    0  0.11944350599E+00 -0.31042981521E-01 -0.44005373831E-01  0.13808774804E+00  0.43604304939E-01 0.  0.
         14    1    1    2    0    0  0.12597562094E-01  0.26538454370E-02 -0.58559972634E-02  0.14143343673E-01  0.00000000000E+00 0.  1.
     999901    1    3    3    0    0 -0.13204106808E+00  0.28389136084E-01  0.49861371095E-01  0.89169890828E+00  0.88000000000E+00 0.  1.
        -11    1    4    4    0    0  0.25223683415E-01  0.64012487377E-02 -0.22584839032E-01  0.34460793165E-01  0.51100000000E-03 0.  1.
         11    1    4    4    0    0  0.94219822572E-01 -0.37444230259E-01 -0.21420534799E-01  0.10362695488E+00  0.51100000000E-03 0. -1.
</event>
<event>
 8    1  0.1993226E+004  0.1043930E+01  0.7957747E-01            NaN
         13   -1    0    0    0    0  0.00000000000E+00  0.00000000000E+00  0.74505805969E-08  0.10566000000E+00  0.10566000000E+00 0. -1.
     999900   -1    0    0    0    0 -0.00000000000E+00 -0.00000000000E+00 -0.74505805969E-08  0.93827000000E+00  0.93827000000E+00 0. -1.
     999902    2    1    2    0    0  0.13238697135E-01 -0.29506321053E-02  0.13783818437E-02  0.10302966120E+01  0.10302064062E+01 0.  0.
     999903    2    3    3    0    0 -0.30713882039E-01  0.95090478130E-01 -0.86145883731E-01  0.13945185248E+00  0.45168177909E-01 0.  0.
         14    1    1    2    0    0 -0.13238697135E-01  0.29506321053E-02 -0.13783818437E-02  0.13633387993E-01  0.00000000000E+00 0. -1.
     999901    1    3    3    0    0  0.43952579175E-01 -0.98041110235E-01  0.87524265574E-01  0.89084475953E+00  0.88000000000E+00 0. -1.
        -11    1    4    4    0    0 -0.16883109492E-01  0.67360564092E-01 -0.83119519895E-01  0.10831251400E+00  0.51100000000E-03 0. -1.
         11    1    4    4    0    0 -0.13830772547E-01  0.27729914038E-01 -0.30263638357E-02  0.31139338478E-01  0.51100000000E-03 0.  1.
</event>
<event>
 8    1  0.1993226E+004  0.1043930E+01  0.7957747E-01            NaN
         13   -1    0    0    0    0  0.00000000000E+00  0.00000000000E+00  0.74505805969E-08  0.10566000000E+00  0.10566000000E+00 0. -1.
     999900   -1    0    0    0    0 -0.00000000000E+00 -0.00000000000E+00 -0.74505805969E-08  0.93827000000E+00  0.93827000000E+00 0. -1.
     999902    2    1    2    0    0 -0.16582141550E-02  0.43269216158E-02  0.12795842179E-01  0.10303209772E+01  0.10302310957E+01 0.  0.
     999903    2    3    3    0    0  0.46061868078E-01  0.79354473850E-01  0.97749768907E-01  0.14176962273E+00  0.46095340290E-01 0.  0.
         14    1    1    2    0    0  0.16582141550E-02 -0.43269216158E-02 -0.12795842179E-01  0.13609022813E-01  0.00000000000E+00 0.  1.
     999901    1    3    3    0    0 -0.47720082233E-01 -0.75027552234E-01 -0.84953926728E-01  0.88855135446E+00  0.88000000000E+00 0. -1.
        -11    1    4    4    0    0 -0.53356024495E-02  0.28144652159E-01  0.39100021792E-01  0.48473321773E-01  0.51100000000E-03 0. -1.
         11    1    4    4    0    0  0.51397470528E-01  0.51209821691E-01  0.58649747115E-01  0.93296300956E-01  0.51100000000E-03 0.  1.
</event>
<event>
 8    1  0.1993226E+004  0.1043930E+01  0.7957747E-01            NaN
         13   -1    0    0    0    0  0.00000000000E+00  0.00000000000E+00  0.74505805969E-08  0.10566000000E+00  0.10566000000E+00 0.  1.
     999900   -1    0    0    0    0 -0.00000000000E+00 -0.00000000000E+00 -0.74505805969E-08  0.93827000000E+00  0.93827000000E+00 0. -1.
     999902    2    1    2    0    0 -0.12514589976E-01 -0.12019391643E-02  0.55902751506E-02  0.10301709740E+01  0.10300790867E+01 0.  0.
     999903    2    3    3    0    0 -0.66164236585E-01  0.13913316767E-01 -0.11441496827E+00  0.14027883785E+00  0.44900788384E-01 0.  0.
         14    1    1    2    0    0  0.12514589976E-01  0.12019391643E-02 -0.55902751506E-02  0.13759025993E-01  0.00000000000E+00 0. -1.
     999901    1    3    3    0    0  0.53649646609E-01 -0.15115255932E-01  0.12000524342E+00  0.88989213616E+00  0.88000000000E+00 0.  1.
        -11    1    4    4    0    0 -0.56052786903E-01 -0.43148700191E-02 -0.61092929309E-01  0.83024936949E-01  0.51100000000E-03 0. -1.
         11    1    4    4    0    0 -0.10111449683E-01  0.18228186786E-01 -0.53322038964E-01  0.57253900902E-01  0.51100000000E-03 0.  1.
</event>
<event>
 8    1  0.1993226E+004  0.1043930E+01  0.7957747E-01            NaN
         13   -1    0    0    0    0  0.00000000000E+00  0.00000000000E+00  0.74505805969E-08  0.10566000000E+00  0.10566000000E+00 0.  1.
     999900   -1    0    0    0    0 -0.00000000000E+00 -0.00000000000E+00 -0.74505805969E-08  0.93827000000E+00  0.93827000000E+00 0.  1.
     999902    2    1    2    0    0  0.35387547344E-02 -0.68040669839E-02  0.11917466445E-01  0.10297580517E+01  0.10296605270E+01 0.  0.
     999903    2    3    3    0    0  0.43761783192E-01  0.96704335374E-01  0.79970576056E-01  0.14017213278E+00  0.44565812304E-01 0.  0.
         14    1    1    2    0    0 -0.35387547344E-02  0.68040669839E-02 -0.11917466445E-01  0.14171948316E-01  0.00000000000E+00 0.  1.
     999901    1    3    3    0    0 -0.40223028458E-01 -0.10350840236E+00 -0.68053109611E-01  0.88958591890E+00  0.88000000000E+00 0.  1.
        -11    1    4    4    0    0  0.19749204233E-01  0.51064430338E-01  0.14148123409E-01  0.56551194775E-01  0.51100000000E-03 0. -1.
         11    1    4    4    0    0  0.24012578959E-01  0.45639905036E-01  0.65822452647E-01  0.83620938009E-01  0.51100000000E-03 0.  1.
</event>
<event>
 8    1  0.2791674E+004  0.1043930E+01  0.7957747E-01            NaN
         13   -1    0    0    0    0  0.00000000000E+00  0.00000000000E+00  0.74505805969E-08  0.10566000000E+00  0.10566000000E+00 0.  1.
     999900   -1    0    0    0    0 -0.00000000000E+00 -0.00000000000E+00 -0.74505805969E-08  0.93827000000E+00  0.93827000000E+00 0.  1.
     999902    2    1    2    0    0 -0.18157253980E-02  0.22734277016E-02 -0.19632253550E-01  0.10240833199E+01  0.10238909880E+01 0.  0.
     999903    2    3    3    0    0 -0.32874116597E-01 -0.12251550576E+00 -0.77942447132E-02  0.13465820216E+00  0.44512071010E-01 0.  0.
         14    1    1    2    0    0  0.18157253980E-02 -0.22734277016E-02  0.19632253550E-01  0.19846680118E-01  0.00000000000E+00 0.  1.
     999901    1    3    3    0    0  0.31058391199E-01  0.12478893346E+00 -0.11838008837E-01  0.88942511772E+00  0.88000000000E+00 0.  1.
        -11    1    4    4    0    0 -0.31778559624E-01 -0.67469695182E-01  0.13185620496E-01  0.75737430169E-01  0.51100000000E-03 0. -1.
         11    1    4    4    0    0 -0.10955569733E-02 -0.55045810577E-01 -0.20979865209E-01  0.58920771994E-01  0.51100000000E-03 0.  1.
</event>
<event>
 8    1  0.1993226E+004  0.1043930E+01  0.7957747E-01            NaN
         13   -1    0    0    0    0  0.00000000000E+00  0.00000000000E+00  0.74505805969E-08  0.10566000000E+00  0.10566000000E+00 0. -1.
     999900   -1    0    0    0    0 -0.00000000000E+00 -0.00000000000E+00 -0.74505805969E-08  0.93827000000E+00  0.93827000000E+00 0.  1.
     999902    2    1    2    0    0  0.73189517435E-02  0.10943256615E-01 -0.37711278480E-02  0.10302353541E+01  0.10301443305E+01 0.  0.
     999903    2    3    3    0    0  0.79009358888E-01  0.10341569120E+00 -0.35023414013E-01  0.14194071213E+00  0.44533608111E-01 0.  0.
         14    1    1    2    0    0 -0.73189517435E-02 -0.10943256615E-01  0.37711278480E-02  0.13694645859E-01  0.00000000000E+00 0. -1.
     999901    1    3    3    0    0 -0.71690407145E-01 -0.92472434590E-01  0.31252286165E-01  0.88829464201E+00  0.88000000000E+00 0. -1.
        -11    1    4    4    0    0  0.61992492869E-01  0.44970329360E-01 -0.16962442824E-01  0.78443516510E-01  0.51100000000E-03 0. -1.
         11    1    4    4    0    0  0.17016866019E-01  0.58445361844E-01 -0.18060971189E-01  0.63497195619E-01  0.51100000000E-03 0.  1.
</event>
<event>
 8    1  0.1993226E+004  0.1043930E+01  0.7957747E-01            NaN
         13   -1    0    0    0    0  0.00000000000E+00  0.00000000000E+00  0.74505805969E-08  0.10566000000E+00  0.10566000000E+00 0. -1.
     999900   -1    0    0    0    0 -0.00000000000E+00 -0.00000000000E+00 -0.74505805969E-08  0.93827000000E+00  0.93827000000E+00 0. -1.
     999902    2    1    2    0    0 -0.17658001197E-02  0.29954373669E-02 -0.13187395526E-01  0.10302918881E+01  0.10302016194E+01 0.  0.
     999903    2    3    3    0    0 -0.90982694640E-01  0.27692121779E-02  0.92643628910E-01  0.13947209086E+00  0.50834072148E-01 0.  0.
         14    1    1    2    0    0  0.17658001197E-02 -0.29954373669E-02  0.13187395526E-01  0.13638111887E-01  0.00000000000E+00 0. -1.
     999901    1    3    3    0    0  0.89216894520E-01  0.22622518897E-03 -0.10583102444E+00  0.89081979725E+00  0.88000000000E+00 0. -1.
        -11    1    4    4    0    0 -0.65105117064E-01 -0.14040289434E-01  0.37909903667E-01  0.76636987887E-01  0.51100000000E-03 0.  1.
         11    1    4    4    0    0 -0.25877577576E-01  0.16809501612E-01  0.54733725243E-01  0.62835102973E-01  0.51100000000E-03 0. -1.
</event>
<event>
 8    1  0.1993226E+004  0.1043930E+01  0.7957747E-01            NaN
         13   -1    0    0    0    0  0.00000000000E+00  0.00000000000E+00  0.74505805969E-08  0.10566000000E+00  0.10566000000E+00 0.  1.
     999900   -1    0    0    0    0 -0.00000000000E+00 -0.00000000000E+00 -0.74505805969E-08  0.93827000000E+00  0.93827000000E+00 0. -1.
     999902    2    1    2    0    0  0.54481704349E-02  0.11630093990E-01 -0.61728350577E-02  0.10296805951E+01  0.10295819940E+01 0.  0.
     999903    2    3    3    0    0 -0.38602685341E-01 -0.11359060857E+00  0.51303683551E-01  0.13787105690E+00  0.44535005468E-01 0.  0.
         14    1    1    2    0    0 -0.54481704349E-02 -0.11630093990E-01  0.61728350577E-02  0.14249404898E-01  0.00000000000E+00 0. -1.
     999901    1    3    3    0    0  0.44050855776E-01  0.12522070256E+00 -0.57476518608E-01  0.89180953821E+00  0.88000000000E+00 0. -1.
        -11    1    4    4    0    0  0.11774580351E-02 -0.55386912398E-01  0.10419239976E-01  0.56373026840E-01  0.51100000000E-03 0.  1.
         11    1    4    4    0    0 -0.39780143376E-01 -0.58203696175E-01  0.40884443575E-01  0.81498030055E-01  0.51100000000E-03 0. -1.
</event>
<event>
 8    1  0.1993226E+004  0.1043930E+01  0.7957747E-01            NaN
         13   -1    0    0    0    0  0.00000000000E+00  0.00000000000E+00  0.74505805969E-08  0.10566000000E+00  0.10566000000E+00 0.  1.
     999900   -1    0    0    0    0 -0.00000000000E+00 -0.00000000000E+00 -0.74505805969E-08  0.93827000000E+00  0.93827000000E+00 0.  1.
     999902    2    1    2    0    0  0.83893425178E-02 -0.78632091539E-02  0.63205194430E-02  0.10308090209E+01  0.10307255103E+01 0.  0.
     999903    2    3    3    0    0 -0.13008152934E+00  0.61225697379E-02  0.23244140631E-01  0.13971071359E+00  0.44945559087E-01 0.  0.
         14    1    1    2    0    0 -0.83893425178E-02  0.78632091539E-02 -0.63205194430E-02  0.13120979083E-01  0.00000000000E+00 0. -1.
     999901    1    3    3    0    0  0.13847087186E+00 -0.13985778892E-01 -0.16923621188E-01  0.89109830733E+00  0.88000000000E+00 0.  1.
        -11    1    4    4    0    0 -0.54031031048E-01  0.21110835778E-01  0.22415742369E-01  0.62191207822E-01  0.51100000000E-03 0.  1.
         11    1    4    4    0    0 -0.76050498296E-01 -0.14988266040E-01  0.82839826152E-03  0.77519505768E-01  0.51100000000E-03 0. -1.
</event>
<event>
 8    1  0.1993226E+004  0.1043930E+01  0.7957747E-01            NaN
         13   -1    0    0    0    0  0.00000000000E+00  0.00000000000E+00  0.74505805969E-08  0.10566000000E+00  0.10566000000E+00 0.  1.
     999900   -1    0    0    0    0 -0.00000000000E+00 -0.00000000000E+00 -0.74505805969E-08  0.93827000000E+00  0.93827000000E+00 0. -1.
     999902    2    1    2    0    0 -0.56110118036E-02 -0.15079536213E-02  0.12929500871E-01  0.10297550443E+01  0.10296574779E+01 0.  0.
     999903    2    3    3    0    0  0.41131031857E-01 -0.12543656020E+00  0.11920176937E-01  0.13984261210E+00  0.44584449333E-01 0.  0.
         14    1    1    2    0    0  0.56110118036E-02  0.15079536213E-02 -0.12929500871E-01  0.14174955744E-01  0.00000000000E+00 0. -1.
     999901    1    3    3    0    0 -0.46742043661E-01  0.12392860658E+00  0.10093239337E-02  0.88991243216E+00  0.88000000000E+00 0.  1.
        -11    1    4    4    0    0  0.42396335473E-01 -0.58381312826E-01  0.89696167727E-02  0.72708610872E-01  0.51100000000E-03 0. -1.
         11    1    4    4    0    0 -0.12653036158E-02 -0.67055247379E-01  0.29505601645E-02  0.67134001225E-01  0.51100000000E-03 0.  1.
</event>
<event>
 8    1  0.1993226E+004  0.1043930E+01  0.7957747E-01            NaN
         13   -1    0    0    0    0  0.00000000000E+00  0.00000000000E+00  0.74505805969E-08  0.10566000000E+00  0.10566000000E+00 0.  1.
     999900   -1    0    0    0    0 -0.00000000000E+00 -0.00000000000E+00 -0.74505805969E-08  0.93827000000E+00  0.93827000000E+00 0.  1.
     999902    2    1    2    0    0  0.84862034711E-02 -0.73028081790E-02 -0.83131972620E-02  0.10299852553E+01  0.10298908535E+01 0.  0.
     999903    2    3    3    0    0 -0.46490483259E-01  0.46868222303E-01  0.11350262941E+00  0.13824760762E+00  0.43261516783E-01 0.  0.
         14    1    1    2    0    0 -0.84862034711E-02  0.73028081790E-02  0.83131972620E-02  0.13944744722E-01  0.00000000000E+00 0.  1.
     999901    1    3    3    0    0  0.54976686730E-01 -0.54171030482E-01 -0.12181582667E+00  0.89173764766E+00  0.88000000000E+00 0.  1.
        -11    1    4    4    0    0 -0.16966891433E-01 -0.10709214338E-02  0.52715796823E-01  0.55391683792E-01  0.51100000000E-03 0. -1.
         11    1    4    4    0    0 -0.29523591825E-01  0.47939143737E-01  0.60786832584E-01  0.82855923826E-01  0.51100000000E-03 0.  1.
</event>
<event>
 8    1  0.1993226E+004  0.1043930E+01  0.7957747E-01            NaN
         13   -1    0    0    0    0  0.00000000000E+00  0.00000000000E+00  0.74505805969E-08  0.10566000000E+00  0.10566000000E+00 0.  1.
     999900   -1    0    0    0    0 -0.00000000000E+00 -0.00000000000E+00 -0.74505805969E-08  0.93827000000E+00  0.93827000000E+00 0.  1.
     999902    2    1    2    0    0  0.94710226182E-02  0.64041442245E-02 -0.70592137684E-02  0.10304932656E+01  0.10304056602E+01 0.  0.
     999903    2    3    3    0    0  0.88529999103E-01 -0.43343110971E-02 -0.10117605411E+00  0.14188558172E+00  0.45150607777E-01 0.  0.
         14    1    1    2    0    0 -0.94710226182E-02 -0.64041442245E-02  0.70592137684E-02  0.13436734414E-01  0.00000000000E+00 0. -1.
     999901    1    3    3    0    0 -0.79058976484E-01  0.10738455322E-01  0.94116840337E-01  0.88860768386E+00  0.88000000000E+00 0. -1.
        -11    1    4    4    0    0  0.28408294037E-01 -0.19212754282E-01 -0.54232797787E-01  0.64168672840E-01  0.51100000000E-03 0. -1.
         11    1    4    4    0    0  0.60121705065E-01  0.14878443185E-01 -0.46943256319E-01  0.77716908883E-01  0.51100000000E-03 0.  1.
</event>
<event>
 8    1  0.1993226E+004  0.1043930E+01  0.7957747E-01            NaN
         13   -1    0    0    0    0  0.00000000000E+00  0.00000000000E+00  0.74505805969E-08  0.10566000000E+00  0.10566000000E+00 0. -1.
     999900   -1    0    0    0    0 -0.00000000000E+00 -0.00000000000E+00 -0.74505805969E-08  0.93827000000E+00  0.93827000000E+00 0.  1.
     999902    2    1    2    0    0  0.72841757957E-02  0.42640270149E-02 -0.10225627275E-01  0.10306708674E+01  0.10305855774E+01 0.  0.
     999903    2    3    3    0    0 -0.13533626978E-01 -0.51720449754E-02 -0.13438629504E+00  0.14166114207E+00  0.42406293983E-01 0.  0.
         14    1    1    2    0    0 -0.72841757957E-02 -0.42640270149E-02  0.10225627275E-01  0.13259132572E-01  0.00000000000E+00 0. -1.
     999901    1    3    3    0    0  0.20817802774E-01  0.94360719902E-02  0.12416066776E+00  0.88900972536E+00  0.88000000000E+00 0. -1.
        -11    1    4    4    0    0  0.13497692702E-01 -0.19725060163E-02 -0.76297134136E-01  0.77508659430E-01  0.51100000000E-03 0.  1.
         11    1    4    4    0    0 -0.27031319681E-01 -0.31995389591E-02 -0.58089160902E-01  0.64152482637E-01  0.51100000000E-03 0. -1.
</event>
<event>
 8    1  0.1993226E+004  0.1043930E+01  0.7957747E-01            NaN
         13   -1    0    0    0    0  0.00000000000E+00  0.00000000000E+00  0.74505805969E-08  0.10566000000E+00  0.10566000000E+00 0. -1.
     999900   -1    0    0    0    0 -0.00000000000E+00 -0.00000000000E+00 -0.74505805969E-08  0.93827000000E+00  0.93827000000E+00 0.  1.
     999902    2    1    2    0    0 -0.13394155170E-02 -0.14024204408E-01  0.58633909893E-02  0.10286705211E+01  0.10285573340E+01 0.  0.
     999903    2    3    3    0    0  0.25617610378E-01 -0.96208591034E-01 -0.86161987396E-01  0.13965442172E+00  0.46552276880E-01 0.  0.
         14    1    1    2    0    0  0.13394155170E-02  0.14024204408E-01 -0.58633909893E-02  0.15259478926E-01  0.00000000000E+00 0.  1.
     999901    1    3    3    0    0 -0.26957025895E-01  0.82184386625E-01  0.92025378385E-01  0.88901609936E+00  0.88000000000E+00 0. -1.
        -11    1    4    4    0    0 -0.13505769391E-01 -0.28695712159E-01 -0.28326853525E-01  0.42526714601E-01  0.51100000000E-03 0.  1.
         11    1    4    4    0    0  0.39123379769E-01 -0.67512878875E-01 -0.57835133871E-01  0.97127707115E-01  0.51100000000E-03 0. -1.
</event>
<event>
 8    1  0.1993226E+004  0.1043930E+01  0.7957747E-01            NaN
         13   -1    0    0    0    0  0.00000000000E+00  0.00000000000E+00  0.74505805969E-08  0.10566000000E+00  0.10566000000E+00 0.  1.
     999900   -1    0    0    0    0 -0.00000000000E+00 -0.00000000000E+00 -0.74505805969E-08  0.93827000000E+00  0.93827000000E+00 0.  1.
     999902    2    1    2    0    0 -0.35792277014E-02  0.13284467629E-01  0.12389127145E-01  0.10254157238E+01  0.10252485690E+01 0.  0.
     999903    2    3    3    0    0  0.79568545179E-01  0.96318472715E-01  0.20701288047E-01  0.13756591098E+00  0.53734858045E-01 0.  0.
         14    1    1    2    0    0  0.35792277014E-02 -0.13284467629E-01 -0.12389127145E-01  0.18514276182E-01  0.00000000000E+00 0. -1.
     999901    1    3    3    0    0 -0.83147772881E-01 -0.83034005086E-01 -0.83121609018E-02  0.88784981284E+00  0.88000000000E+00 0. -1.
        -11    1    4    4    0    0  0.69540636594E-01  0.47332548531E-01  0.18995286960E-02  0.84143565521E-01  0.51100000000E-03 0. -1.
         11    1    4    4    0    0  0.10027908586E-01  0.48985924184E-01  0.18801759351E-01  0.53422345460E-01  0.51100000000E-03 0.  1.
</event>
<event>
 8    1  0.1993226E+004  0.1043930E+01  0.7957747E-01            NaN
         13   -1    0    0    0    0  0.00000000000E+00  0.00000000000E+00  0.74505805969E-08  0.10566000000E+00  0.10566000000E+00 0.  1.
     999900   -1    0    0    0    0 -0.00000000000E+00 -0.00000000000E+00 -0.74505805969E-08  0.93827000000E+00  0.93827000000E+00 0. -1.
     999902    2    1    2    0    0  0.26403726299E-02 -0.94994031121E-02 -0.87256417684E-02  0.10307638673E+01  0.10306797771E+01 0.  0.
     999903    2    3    3    0    0 -0.92685828591E-01 -0.93197604357E-01  0.24723617394E-01  0.14103844531E+00  0.44767505152E-01 0.  0.
         14    1    1    2    0    0 -0.26403726299E-02  0.94994031121E-02  0.87256417684E-02  0.13166132742E-01  0.00000000000E+00 0.  1.
     999901    1    3    3    0    0  0.95326201221E-01  0.83698201245E-01 -0.33449259163E-01  0.88972542195E+00  0.88000000000E+00 0.  1.
        -11    1    4    4    0    0 -0.40720739763E-01 -0.53694405693E-01 -0.82705360639E-02  0.67896470728E-01  0.51100000000E-03 0.  1.
         11    1    4    4    0    0 -0.51965088828E-01 -0.39503198664E-01  0.32994153458E-01  0.73141974577E-01  0.51100000000E-03 0. -1.
</event>
<event>
 8    1  0.1993226E+004  0.1043930E+01  0.7957747E-01            NaN
         13   -1    0    0    0    0  0.00000000000E+00  0.00000000000E+00  0.74505805969E-08  0.10566000000E+00  0.10566000000E+00 0. -1.
     999900   -1    0    0    0    0 -0.00000000000E+00 -0.00000000000E+00 -0.74505805969E-08  0.93827000000E+00  0.93827000000E+00 0. -1.
     999902    2    1    2    0    0 -0.12736741416E-01 -0.38695354284E-02  0.13447996276E-03  0.10306177511E+01  0.10305317719E+01 0.  0.
     999903    2    3    3    0    0  0.12234537261E+00  0.39513642359E-04 -0.50540173444E-01  0.13886084548E+00  0.41947985836E-01 0.  0.
         14    1    1    2    0    0  0.12736741416E-01  0.38695354284E-02 -0.13447996276E-03  0.13312248916E-01  0.00000000000E+00 0.  1.
     999901    1    3    3    0    0 -0.13508211403E+00 -0.39090490708E-02  0.50674653407E-01  0.89175690560E+00  0.88000000000E+00 0.  1.
        -11    1    4    4    0    0  0.61449338531E-01 -0.32946757077E-02 -0.47600470976E-01  0.77800655859E-01  0.51100000000E-03 0. -1.
         11    1    4    4    0    0  0.60896034077E-01  0.33341893501E-02 -0.29397024680E-02  0.61060189621E-01  0.51100000000E-03 0.  1.
</event>
<event>
 8    1  0.1993226E+004  0.1043930E+01  0.7957747E-01            NaN
         13   -1    0    0    0    0  0.00000000000E+00  0.00000000000E+00  0.74505805969E-08  0.10566000000E+00  0.10566000000E+00 0. -1.
     999900   -1    0    0    0    0 -0.00000000000E+00 -0.00000000000E+00 -0.74505805969E-08  0.93827000000E+00  0.93827000000E+00 0. -1.
     999902    2    1    2    0    0 -0.14231319386E-01 -0.68063654291E-02  0.19302573894E-02  0.10280371414E+01  0.10279142868E+01 0.  0.
     999903    2    3    3    0    0  0.83939181223E-01 -0.95688526183E-01  0.26416119955E-01  0.13779164537E+00  0.45679819964E-01 0.  0.
         14    1    1    2    0    0  0.14231319386E-01  0.68063654291E-02 -0.19302573894E-02  0.15892858629E-01  0.00000000000E+00 0. -1.
     999901    1    3    3    0    0 -0.98170500609E-01  0.88882160754E-01 -0.24485862565E-01  0.89024549600E+00  0.88000000000E+00 0.  1.
        -11    1    4    4    0    0  0.16328390890E-01 -0.31221042912E-01 -0.11358601561E-01  0.37022274646E-01  0.51100000000E-03 0. -1.
         11    1    4    4    0    0  0.67610790334E-01 -0.64467483270E-01  0.37774721516E-01  0.10076937072E+00  0.51100000000E-03 0.  1.
</event>
<event>
 8    1  0.1993226E+004  0.1043930E+01  0.7957747E-01            NaN
         13   -1    0    0    0    0  0.00000000000E+00  0.00000000000E+00  0.74505805969E-08  0.10566000000E+00  0.10566000000E+00 0. -1.
     999900   -1    0    0    0    0 -0.00000000000E+00 -0.00000000000E+00 -0.74505805969E-08  0.93827000000E+00  0.93827000000E+00 0.  1.
     999902    2    1    2    0    0 -0.47540939755E-02 -0.65917593484E-02 -0.10539816723E-01  0.10306205884E+01  0.10305346461E+01 0.  0.
     999903    2    3    3    0    0  0.27127070284E-01  0.11907226978E+00  0.48451278246E-01  0.13916795020E+00  0.45892359136E-01 0.  0.
         14    1    1    2    0    0  0.47540939755E-02  0.65917593484E-02  0.10539816723E-01  0.13309411610E-01  0.00000000000E+00 0. -1.
     999901    1    3    3    0    0 -0.31881164260E-01 -0.12566402913E+00 -0.58991094970E-01  0.89145263819E+00  0.88000000000E+00 0.  1.
        -11    1    4    4    0    0  0.25513607994E-01  0.68237061033E-01  0.49867000727E-01  0.88284877379E-01  0.51100000000E-03 0.  1.
         11    1    4    4    0    0  0.16134622905E-02  0.50835208744E-01 -0.14157224803E-02  0.50883072821E-01  0.51100000000E-03 0. -1.
</event>
<event>
 8    1  0.1993226E+004  0.1043930E+01  0.7957747E-01            NaN
         13   -1    0    0    0    0  0.00000000000E+00  0.00000000000E+00  0.74505805969E-08  0.10566000000E+00  0.10566000000E+00 0.  1.
     999900   -1    0    0    0    0 -0.00000000000E+00 -0.00000000000E+00 -0.74505805969E-08  0.93827000000E+00  0.93827000000E+00 0.  1.
     999902    2    1    2    0    0 -0.81523736864E-02 -0.95861942111E-02 -0.59874356051E-02  0.10299942294E+01  0.10298999500E+01 0.  0.
     999903    2    3    3    0    0  0.67037173713E-01 -0.83772968533E-01 -0.78771519316E-01  0.14069412915E+00  0.45585006365E-01 0.  0.
         14    1    1    2    0    0  0.81523736864E-02  0.95861942111E-02  0.59874356051E-02  0.13935770567E-01  0.00000000000E+00 0. -1.
     999901    1    3    3    0    0 -0.75189547400E-01  0.74186774322E-01  0.72784083711E-01  0.88930010028E+00  0.88000000000E+00 0. -1.
        -11    1    4    4    0    0  0.65927256846E-01 -0.51595318859E-01 -0.63381426850E-01  0.10500450711E+00  0.51100000000E-03 0.  1.
         11    1    4    4    0    0  0.11099168677E-02 -0.32177649674E-01 -0.15390092466E-01  0.35689622037E-01  0.51100000000E-03 0. -1.
</event>
<event>
 8    1  0.1993226E+004  0.1043930E+01  0.7957747E-01            NaN
         13   -1    0    0    0    0  0.00000000000E+00  0.00000000000E+00  0.74505805969E-08  0.10566000000E+00  0.10566000000E+00 0.  1.
     999900   -1    0    0    0    0 -0.00000000000E+00 -0.00000000000E+00 -0.74505805969E-08  0.93827000000E+00  0.93827000000E+00 0.  1.
     999902    2    1    2    0    0  0.73855188014E-03  0.12730425925E-01  0.34445713062E-02  0.10307211289E+01  0.10306364885E+01 0.  0.
     999903    2    3    3    0    0  0.10922705464E+00  0.40673605269E-01  0.65924551750E-01  0.14142122202E+00  0.45486524181E-01 0.  0.
         14    1    1    2    0    0 -0.73855188014E-03 -0.12730425925E-01 -0.34445713062E-02  0.13208871056E-01  0.00000000000E+00 0. -1.
     999901    1    3    3    0    0 -0.10848850276E+00 -0.27943179344E-01 -0.62479980444E-01  0.88929990693E+00  0.88000000000E+00 0.  1.
        -11    1    4    4    0    0  0.24071233087E-01  0.12930037924E-01 -0.42286006039E-02  0.27654155693E-01  0.51100000000E-03 0. -1.
         11    1    4    4    0    0  0.85155821555E-01  0.27743567345E-01  0.70153152354E-01  0.11376706632E+00  0.51100000000E-03 0.  1.
</event>
<event>
 8    1  0.1993226E+004  0.1043930E+01  0.7957747E-01            NaN
         13   -1    0    0    0    0  0.00000000000E+00  0.00000000000E+00  0.74505805969E-08  0.10566000000E+00  0.10566000000E+00 0.  1.
     999900   -1    0    0    0    0 -0.00000000000E+00 -0.00000000000E+00 -0.74505805969E-08  0.93827000000E+00  0.93827000000E+00 0. -1.
     999902    2    1    2    0    0 -0.11552666801E-01  0.43029453268E-02 -0.28348715681E-02  0.10312802591E+01  0.10312026749E+01 0.  0.
     999903    2    3    3    0    0 -0.49882548369E-01  0.10453472280E+00 -0.69363930224E-01  0.14226861422E+00  0.44868996795E-01 0.  0.
         14    1    1    2    0    0  0.11552666801E-01 -0.43029453268E-02  0.28348715681E-02  0.12649740926E-01  0.00000000000E+00 0. -1.
     999901    1    3    3    0    0  0.38329881568E-01 -0.10023177748E+00  0.66529058656E-01  0.88901164485E+00  0.88000000000E+00 0.  1.
        -11    1    4    4    0    0 -0.24997232138E-01  0.19691565477E-01 -0.35063720186E-02  0.32018356160E-01  0.51100000000E-03 0.  1.
         11    1    4    4    0    0 -0.24885316231E-01  0.84843157325E-01 -0.65857558206E-01  0.11025025806E+00  0.51100000000E-03 0. -1.
</event>
<event>
 8    1  0.1993226E+004  0.1043930E+01  0.7957747E-01            NaN
         13   -1    0    0    0    0  0.00000000000E+00  0.00000000000E+00  0.74505805969E-08  0.10566000000E+00  0.10566000000E+00 0.  1.
     999900   -1    0    0    0    0 -0.00000000000E+00 -0.00000000000E+00 -0.74505805969E-08  0.93827000000E+00  0.93827000000E+00 0. -1.
     999902    2    1    2    0    0 -0.30217113072E-02 -0.93050090893E-04  0.13985998517E-01  0.10296209975E+01  0.10295215641E+01 0.  0.
     999903    2    3    3    0    0  0.25225831508E-01 -0.84569145728E-01 -0.96721829418E-01  0.13822301817E+00  0.44296811203E-01 0.  0.
         14    1    1    2    0    0  0.30217113072E-02  0.93050090893E-04 -0.13985998517E-01  0.14309002483E-01  0.00000000000E+00 0. -1.
     999901    1    3    3    0    0 -0.28247542816E-01  0.84476095637E-01  0.11070782794E+00  0.89139797934E+00  0.88000000000E+00 0.  1.
        -11    1    4    4    0    0  0.33426192456E-01 -0.71262848863E-01 -0.93560228933E-01  0.12226807240E+00  0.51100000000E-03 0. -1.
         11    1    4    4    0    0 -0.82003609473E-02 -0.13306296865E-01 -0.31616004845E-02  0.15954945771E-01  0.51100000000E-03 0.  1.
</event>
<event>
 8    1  0.1993226E+004  0.1043930E+01  0.7957747E-01            NaN
         13   -1    0    0    0    0  0.00000000000E+00  0.00000000000E+00  0.74505805969E-08  0.10566000000E+00  0.10566000000E+00 0.  1.
     999900   -1    0    0    0    0 -0.00000000000E+00 -0.00000000000E+00 -0.74505805969E-08  0.93827000000E+00  0.93827000000E+00 0. -1.
     999902    2    1    2    0    0 -0.93562960420E-02 -0.31461935045E-02  0.10225182292E-01  0.10297175702E+01  0.10296194837E+01 0.  0.
     999903    2    3    3    0    0 -0.35769506735E-01  0.12719385804E+00 -0.41105763061E-02  0.13960987964E+00  0.44903079202E-01 0.  0.
         14    1    1    2    0    0  0.93562960420E-02  0.31461935045E-02 -0.10225182292E-01  0.14212429845E-01  0.00000000000E+00 0. -1.
     999901    1    3    3    0    0  0.26413210693E-01 -0.13034005154E+00  0.14335758599E-01  0.89010769051E+00  0.88000000000E+00 0.  1.
        -11    1    4    4    0    0 -0.18841281969E-01  0.11715432395E+00 -0.99414943422E-02  0.11907654663E+00  0.51100000000E-03 0. -1.
         11    1    4    4    0    0 -0.16928224765E-01  0.10039534083E-01  0.58309180361E-02  0.20533333009E-01  0.51100000000E-03 0.  1.
</event>
<event>
 7    1  0.1993226E+004  0.1043930E+01  0.7957747E-01            NaN
         13   -1    0    0    0    0  0.00000000000E+00  0.00000000000E+00  0.74505805969E-08  0.10566000000E+00  0.10566000000E+00 0.  1.
     999900   -1    0    0    0    0 -0.00000000000E+00 -0.00000000000E+00 -0.74505805969E-08  0.93827000000E+00  0.93827000000E+00 0.  1.
     999903    2    1    2    0    0 -0.71212408070E-01  0.31744596793E-02 -0.91167879054E-01  0.12339521129E+00  0.42819525239E-01 0.  0.
         14    1    1    2    0    0 -0.82785855146E-02  0.15849405270E-01 -0.23293972009E-01  0.29365758248E-01  0.00000000000E+00 0. -1.
     999901    1    1    2    0    0  0.79490993584E-01 -0.19023864950E-01  0.11446185106E+00  0.89116903046E+00  0.88000000000E+00 0. -1.
        -11    1    3    3    0    0 -0.38216767639E-01  0.22750095949E-01 -0.54208531082E-01  0.70120711331E-01  0.51100000000E-03 0. -1.
         11    1    3    3    0    0 -0.32995640431E-01 -0.19575636270E-01 -0.36959347971E-01  0.53274499962E-01  0.51100000000E-03 0.  1.
</event>
<event>
 8    1  0.1993226E+004  0.1043930E+01  0.7957747E-01            NaN
         13   -1    0    0    0    0  0.00000000000E+00  0.00000000000E+00  0.74505805969E-08  0.10566000000E+00  0.10566000000E+00 0. -1.
     999900   -1    0    0    0    0 -0.00000000000E+00 -0.00000000000E+00 -0.74505805969E-08  0.93827000000E+00  0.93827000000E+00 0.  1.
     999902    2    1    2    0    0  0.70681114934E-02  0.42078871271E-02 -0.10985751034E-01  0.10302058884E+01  0.10301144699E+01 0.  0.
     999903    2    3    3    0    0  0.80253279947E-01  0.53866582667E-01 -0.93594241680E-01  0.14192315318E+00  0.45167484554E-01 0.  0.
         14    1    1    2    0    0 -0.70681114934E-02 -0.42078871271E-02  0.10985751034E-01  0.13724111627E-01  0.00000000000E+00 0. -1.
     999901    1    3    3    0    0 -0.73185168454E-01 -0.49658695540E-01  0.82608490646E-01  0.88828273520E+00  0.88000000000E+00 0. -1.
        -11    1    4    4    0    0  0.13742280215E-01  0.18027868915E-01 -0.49493861047E-01  0.54440405265E-01  0.51100000000E-03 0.  1.
         11    1    4    4    0    0  0.66510999733E-01  0.35838713753E-01 -0.44100380633E-01  0.87482747910E-01  0.51100000000E-03 0. -1.
</event>
<event>
 8    1  0.1993226E+004  0.1043930E+01  0.7957747E-01            NaN
         13   -1    0    0    0    0  0.00000000000E+00  0.00000000000E+00  0.74505805969E-08  0.10566000000E+00  0.10566000000E+00 0.  1.
     999900   -1    0    0    0    0 -0.00000000000E+00 -0.00000000000E+00 -0.74505805969E-08  0.93827000000E+00  0.93827000000E+00 0.  1.
     999902    2    1    2    0    0  0.11189173522E-01  0.51913506215E-02  0.64413551661E-02  0.10300145847E+01  0.10299205824E+01 0.  0.
     999903    2    3    3    0    0 -0.75108794569E-01 -0.39729517637E-01 -0.99353818573E-01  0.13835442387E+00  0.45287964697E-01 0.  0.
         14    1    1    2    0    0 -0.11189173522E-01 -0.51913506215E-02 -0.64413551661E-02  0.13915415257E-01  0.00000000000E+00 0. -1.
     999901    1    3    3    0    0  0.86297968091E-01  0.44920868259E-01  0.10579517374E+00  0.89166016087E+00  0.88000000000E+00 0.  1.
        -11    1    4    4    0    0 -0.76810858408E-01 -0.46033372402E-01 -0.94590468525E-01  0.13025589123E+00  0.51100000000E-03 0. -1.
         11    1    4    4    0    0  0.17020638391E-02  0.63038547650E-02 -0.47633500480E-02  0.80985326381E-02  0.51100000000E-03 0.  1.
</event>
<event>
 8    1  0.1993226E+004  0.1043930E+01  0.7957747E-01            NaN
         13   -1    0    0    0    0  0.00000000000E+00  0.00000000000E+00  0.74505805969E-08  0.10566000000E+00  0.10566000000E+00 0. -1.
     999900   -1    0    0    0    0 -0.00000000000E+00 -0.00000000000E+00 -0.74505805969E-08  0.93827000000E+00  0.93827000000E+00 0. -1.
     999902    2    1    2    0    0 -0.51055371228E-02 -0.12674320599E-01 -0.35200225303E-04  0.10302659541E+01  0.10301753394E+01 0.  0.
     999903    2    3    3    0    0 -0.12211050140E+00  0.35503303107E-01  0.39916586198E-01  0.14031798350E+00  0.43867340429E-01 0.  0.
         14    1    1    2    0    0  0.51055371228E-02  0.12674320599E-01  0.35200225303E-04  0.13664045924E-01  0.00000000000E+00 0. -1.
     999901    1    3    3    0    0  0.11700496428E+00 -0.48177623706E-01 -0.39951786423E-01  0.88994797057E+00  0.88000000000E+00 0. -1.
        -11    1    4    4    0    0 -0.10104966574E+00  0.10437970761E-01  0.26962429814E-01  0.10510575590E+00  0.51100000000E-03 0.  1.
         11    1    4    4    0    0 -0.21060835659E-01  0.25065332346E-01  0.12954156383E-01  0.35212227605E-01  0.51100000000E-03 0. -1.
</event>
<event>
 8    1  0.1993226E+004  0.1043930E+01  0.7957747E-01            NaN
         13   -1    0    0    0    0  0.00000000000E+00  0.00000000000E+00  0.74505805969E-08  0.10566000000E+00  0.10566000000E+00 0.  1.
     999900   -1    0    0    0    0 -0.00000000000E+00 -0.00000000000E+00 -0.74505805969E-08  0.93827000000E+00  0.93827000000E+00 0. -1.
     999902    2    1    2    0    0 -0.19057217053E-02 -0.93408943519E-02  0.91422380680E-02  0.10307214952E+01  0.10306368594E+01 0.  0.
     999903    2    3    3    0    0  0.79877877748E-01  0.74470038533E-01  0.76234487845E-01  0.14043266588E+00  0.44535093086E-01 0.  0.
         14    1    1    2    0    0  0.19057217053E-02  0.93408943519E-02 -0.91422380680E-02  0.13208504813E-01  0.00000000000E+00 0. -1.
     999901    1    3    3    0    0 -0.81783599453E-01 -0.83810932885E-01 -0.67092249777E-01  0.89028882931E+00  0.88000000000E+00 0.  1.
        -11    1    4    4    0    0  0.70946022170E-01  0.56807225259E-01  0.40337155818E-01  0.99437146801E-01  0.51100000000E-03 0.  1.
         11    1    4    4    0    0  0.89318555774E-02  0.17662813274E-01  0.35897332027E-01  0.40995519078E-01  0.51100000000E-03 0. -1.
</event>
<event>
 8    1  0.1993226E+004  0.1043930E+01  0.7957747E-01            NaN
         13   -1    0    0    0    0  0.00000000000E+00  0.00000000000E+00  0.74505805969E-08  0.10566000000E+00  0.10566000000E+00 0.  1.
     999900   -1    0    0    0    0 -0.00000000000E+00 -0.00000000000E+00 -0.74505805969E-08  0.93827000000E+00  0.93827000000E+00 0.  1.
     999902    2    1    2    0    0 -0.79714665672E-02  0.71229226785E-02  0.11172097499E-01  0.10284672684E+01  0.10283510228E+01 0.  0.
     999903    2    3    3    0    0  0.62443739959E-01 -0.63038357031E-01 -0.94123267175E-01  0.13663319171E+00  0.44004369516E-01 0.  0.
         14    1    1    2    0    0  0.79714665672E-02 -0.71229226785E-02 -0.11172097499E-01  0.15462731623E-01  0.00000000000E+00 0.  1.
     999901    1    3    3    0    0 -0.70415206526E-01  0.70161279709E-01  0.10529536467E+00  0.89183407667E+00  0.88000000000E+00 0. -1.
        -11    1    4    4    0    0  0.52549239929E-01 -0.63777838946E-01 -0.95842054445E-01  0.12655036894E+00  0.51100000000E-03 0. -1.
         11    1    4    4    0    0  0.98945000303E-02  0.73948191495E-03  0.17187872707E-02  0.10082822771E-01  0.51100000000E-03 0.  1.
</event>
<event>
 8    1  0.1993226E+004  0.1043930E+01  0.7957747E-01            NaN
         13   -1    0    0    0    0  0.00000000000E+00  0.00000000000E+00  0.74505805969E-08  0.10566000000E+00  0.10566000000E+00 0. -1.
     999900   -1    0    0    0    0 -0.00000000000E+00 -0.00000000000E+00 -0.74505805969E-08  0.93827000000E+00  0.93827000000E+00 0. -1.
     999902    2    1    2    0    0 -0.92614664590E-02 -0.32996384128E-02 -0.14666007117E-02  0.10339895125E+01  0.10339417288E+01 0.  0.
     999903    2    3    3    0    0  0.73186272406E-01 -0.99982496991E-01 -0.56023403389E-01  0.14319119102E+00  0.44859394612E-01 0.  0.
         14    1    1    2    0    0  0.92614664590E-02  0.32996384128E-02  0.14666007117E-02  0.99404875269E-02  0.00000000000E+00 0. -1.
     999901    1    3    3    0    0 -0.82447738865E-01  0.96682858578E-01  0.54556802677E-01  0.89079832145E+00  0.88000000000E+00 0. -1.
        -11    1    4    4    0    0  0.77251748039E-02 -0.46703547726E-01 -0.21640188500E-01  0.52052459839E-01  0.51100000000E-03 0. -1.
         11    1    4    4    0    0  0.65461097602E-01 -0.53278949265E-01 -0.34383214888E-01  0.91138731180E-01  0.51100000000E-03 0.  1.
</event>
<event>
 7    1  0.1993226E+004  0.1043930E+01  0.7957747E-01            NaN
         13   -1    0    0    0    0  0.00000000000E+00  0.00000000000E+00  0.74505805969E-08  0.10566000000E+00  0.10566000000E+00 0. -1.
     999900   -1    0    0    0    0 -0.00000000000E+00 -0.00000000000E+00 -0.74505805969E-08  0.93827000000E+00  0.93827000000E+00 0.  1.
     999902    2    1    2    0    0 -0.15732884124E-02 -0.75563253987E-02 -0.11515141276E-01  0.10300673968E+01  0.10299741114E+01 0.  0.
         14    1    1    2    0    0  0.15732884124E-02  0.75563253987E-02  0.11515141276E-01  0.13862603239E-01  0.00000000000E+00 0. -1.
     999901    1    3    3    0    0 -0.36804127605E-01  0.99610931375E-01  0.69189999412E-01  0.88908050112E+00  0.88000000000E+00 0. -1.
        -11    1    3    3    0    0  0.23959511237E-01 -0.44166745361E-01 -0.46274290481E-01  0.68310545709E-01  0.51100000000E-03 0.  1.
         11    1    3    3    0    0  0.11271327955E-01 -0.63000511412E-01 -0.34430850207E-01  0.72676349929E-01  0.51100000000E-03 0. -1.
</event>
<event>
 8    1  0.1993226E+004  0.1043930E+01  0.7957747E-01            NaN
         13   -1    0    0    0    0  0.00000000000E+00  0.00000000000E+00  0.74505805969E-08  0.10566000000E+00  0.10566000000E+00 0. -1.
     999900   -1    0    0    0    0 -0.00000000000E+00 -0.00000000000E+00 -0.74505805969E-08  0.93827000000E+00  0.93827000000E+00 0. -1.
     999902    2    1    2    0    0 -0.51915211624E-02 -0.99118276485E-02  0.95381062277E-02  0.10292272217E+01  0.10291221998E+01 0.  0.
     999903    2    3    3    0    0  0.11197230230E-01  0.12524158814E+00 -0.35758646506E-01  0.13760688054E+00  0.42966724420E-01 0.  0.
         14    1    1    2    0    0  0.51915211624E-02  0.99118276485E-02 -0.95381062277E-02  0.14702778299E-01  0.00000000000E+00 0.  1.
     999901    1    3    3    0    0 -0.16388751392E-01 -0.13515341578E+00  0.45296752733E-01  0.89162034116E+00  0.88000000000E+00 0.  1.
        -11    1    4    4    0    0  0.23016323625E-01  0.81350347160E-01 -0.94156730662E-02  0.85067891454E-01  0.51100000000E-03 0.  1.
         11    1    4    4    0    0 -0.11819093395E-01  0.43891240976E-01 -0.26342973440E-01  0.52538989082E-01  0.51100000000E-03 0. -1.
</event>
<event>
 8    1  0.1993226E+004  0.1043930E+01  0.7957747E-01            NaN
         13   -1    0    0    0    0  0.00000000000E+00  0.00000000000E+00  0.74505805969E-08  0.10566000000E+00  0.10566000000E+00 0.  1.
     999900   -1    0    0    0    0 -0.00000000000E+00 -0.00000000000E+00 -0.74505805969E-08  0.93827000000E+00  0.93827000000E+00 0. -1.
     999902    2    1    2    0    0  0.21722794763E-03  0.10884151120E-01  0.11815540241E-01  0.10278639201E+01  0.10277383515E+01 0.  0.
     999903    2    3    3    0    0  0.88944188692E-01 -0.88985995210E-01 -0.28910231598E-01  0.13685039144E+00  0.45416429843E-01 0.  0.
         14    1    1    2    0    0 -0.21722794763E-03 -0.10884151120E-01 -0.11815540241E-01  0.16066079944E-01  0.00000000000E+00 0. -1.
     999901    1    3    3    0    0 -0.88726960744E-01  0.99870146330E-01  0.40725771840E-01  0.89101352862E+00  0.88000000000E+00 0.  1.
        -11    1    4    4    0    0  0.31889106553E-01 -0.53191049680E-01  0.34672497721E-02  0.62116711316E-01  0.51100000000E-03 0. -1.
         11    1    4    4    0    0  0.57055082139E-01 -0.35794945531E-01 -0.32377481370E-01  0.74733680120E-01  0.51100000000E-03 0.  1.
</event>
<event>
 8    1  0.1993226E+004  0.1043930E+01  0.7957747E-01            NaN
         13   -1    0    0    0    0  0.00000000000E+00  0.00000000000E+00  0.74505805969E-08  0.10566000000E+00  0.10566000000E+00 0.  1.
     999900   -1    0    0    0    0 -0.00000000000E+00 -0.00000000000E+00 -0.74505805969E-08  0.93827000000E+00  0.93827000000E+00 0. -1.
     999902    2    1    2    0    0  0.71924454251E-02  0.10311733078E-01  0.70617919187E-02  0.10295101520E+01  0.10294091612E+01 0.  0.
     999903    2    3    3    0    0  0.79148601165E-02  0.71327668932E-01  0.11289748935E+00  0.14107069931E+00  0.44775191085E-01 0.  0.
         14    1    1    2    0    0 -0.71924454251E-02 -0.10311733078E-01 -0.70617919187E-02  0.14419847966E-01  0.00000000000E+00 0. -1.
     999901    1    3    3    0    0 -0.72241469139E-03 -0.61015935854E-01 -0.10583569743E+00  0.88843945273E+00  0.88000000000E+00 0. -1.
        -11    1    4    4    0    0  0.21083927609E-01  0.52649148880E-01  0.55784688185E-01  0.79552859396E-01  0.51100000000E-03 0.  1.
         11    1    4    4    0    0 -0.13169067492E-01  0.18678520052E-01  0.57112801161E-01  0.61517839912E-01  0.51100000000E-03 0. -1.
</event>
<event>
 8    1  0.1993226E+004  0.1043930E+01  0.7957747E-01            NaN
         13   -1    0    0    0    0  0.00000000000E+00  0.00000000000E+00  0.74505805969E-08  0.10566000000E+00  0.10566000000E+00 0.  1.
     999900   -1    0    0    0    0 -0.00000000000E+00 -0.00000000000E+00 -0.74505805969E-08  0.93827000000E+00  0.93827000000E+00 0.  1.
     999902    2    1    2    0    0 -0.11780104823E-01  0.63204964946E-02 -0.12605693323E-02  0.10305020969E+01  0.10304146074E+01 0.  0.
     999903    2    3    3    0    0  0.69608697481E-01 -0.83651885203E-01 -0.74324056376E-01  0.13917867654E+00  0.44761925614E-01 0.  0.
         14    1    1    2    0    0  0.11780104823E-01 -0.63204964946E-02  0.12605693323E-02  0.13427903061E-01  0.00000000000E+00 0. -1.
     999901    1    3    3    0    0 -0.81388802304E-01  0.89972381698E-01  0.73063487044E-01  0.89132342040E+00  0.88000000000E+00 0. -1.
        -11    1    4    4    0    0  0.65561787937E-03 -0.26261250186E-01 -0.27294386056E-01  0.37885719305E-01  0.51100000000E-03 0. -1.
         11    1    4    4    0    0  0.68953079602E-01 -0.57390635018E-01 -0.47029670321E-01  0.10129295724E+00  0.51100000000E-03 0.  1.
</event>
<event>
 8    1  0.1993226E+004  0.1043930E+01  0.7957747E-01            NaN
         13   -1    0    0    0    0  0.00000000000E+00  0.00000000000E+00  0.74505805969E-08  0.10566000000E+00  0.10566000000E+00 0. -1.
     999900   -1    0    0    0    0 -0.00000000000E+00 -0.00000000000E+00 -0.74505805969E-08  0.93827000000E+00  0.93827000000E+00 0.  1.
     999902    2    1    2    0    0  0.11443956935E-04  0.10005599674E-01 -0.10527575058E-01  0.10294061578E+01  0.10293036946E+01 0.  0.
     999903    2    3    3    0    0 -0.14808732402E-01 -0.89425857757E-01  0.92767112664E-01  0.13767971719E+00  0.46191825509E-01 0.  0.
         14    1    1    2    0    0 -0.11443956935E-04 -0.10005599674E-01  0.10527575058E-01  0.14523842205E-01  0.00000000000E+00 0. -1.
     999901    1    3    3    0    0  0.14820176359E-01  0.99431457431E-01 -0.10329468772E+00  0.89172644060E+00  0.88000000000E+00 0.  1.
        -11    1    4    4    0    0  0.27734842340E-02 -0.13533235429E-01  0.43165172139E-01  0.45324760151E-01  0.51100000000E-03 0.  1.
         11    1    4    4    0    0 -0.17582216636E-01 -0.75892622328E-01  0.49601940525E-01  0.92354957044E-01  0.51100000000E-03 0. -1.
</event>
<event>
 8    1  0.1993226E+004  0.1043930E+01  0.7957747E-01            NaN
         13   -1    0    0    0    0  0.00000000000E+00  0.00000000000E+00  0.74505805969E-08  0.10566000000E+00  0.10566000000E+00 0.  1.
     999900   -1    0    0    0    0 -0.00000000000E+00 -0.00000000000E+00 -0.74505805969E-08  0.93827000000E+00  0.93827000000E+00 0.  1.
     999902    2    1    2    0    0  0.74423510808E-02 -0.38964432366E-02 -0.11295402005E-01  0.10298531763E+01  0.10297569654E+01 0.  0.
     999903    2    3    3    0    0  0.64579545393E-01  0.10542161459E+00 -0.48831841624E-01  0.14045783053E+00  0.45383024318E-01 0.  0.
         14    1    1    2    0    0 -0.74423510808E-02  0.38964432366E-02  0.11295402005E-01  0.14076823717E-01  0.00000000000E+00 0.  1.
     999901    1    3    3    0    0 -0.57137194312E-01 -0.10931805783E+00  0.37536439620E-01  0.88939534575E+00  0.88000000000E+00 0. -1.
        -11    1    4    4    0    0  0.61637418197E-01  0.72289252720E-01 -0.49626066624E-01  0.10718169149E+00  0.51100000000E-03 0. -1.
         11    1    4    4    0    0  0.29421271967E-02  0.33132361869E-01  0.79422499965E-03  0.33276139046E-01  0.51100000000E-03 0.  1.
</event>
<event>
 8    1  0.1993226E+004  0.1043930E+01  0.7957747E-01            NaN
         13   -1    0    0    0    0  0.00000000000E+00  0.00000000000E+00  0.74505805969E-08  0.10566000000E+00  0.10566000000E+00 0.  1.
     999900   -1    0    0    0    0 -0.00000000000E+00 -0.00000000000E+00 -0.74505805969E-08  0.93827000000E+00  0.93827000000E+00 0. -1.
     999902    2    1    2    0    0 -0.62204206349E-02  0.11612777641E-01  0.63696819813E-02  0.10292970548E+01  0.10291930353E+01 0.  0.
     999903    2    3    3    0    0  0.99200290383E-01 -0.11316164660E-01  0.86181351797E-01  0.13912338332E+00  0.44264400990E-01 0.  0.
         14    1    1    2    0    0  0.62204206349E-02 -0.11612777641E-01 -0.63696819813E-02  0.14632945225E-01  0.00000000000E+00 0.  1.
     999901    1    3    3    0    0 -0.10542071102E+00  0.22928942301E-01 -0.79811669816E-01  0.89017367145E+00  0.88000000000E+00 0. -1.
        -11    1    4    4    0    0  0.65003290122E-01 -0.18043283307E-01  0.31925221650E-01  0.74635572601E-01  0.51100000000E-03 0. -1.
         11    1    4    4    0    0  0.34197000262E-01  0.67271186463E-02  0.54256130147E-01  0.64487810722E-01  0.51100000000E-03 0.  1.
</event>
<event>
 8    1  0.1993226E+004  0.1043930E+01  0.7957747E-01            NaN
         13   -1    0    0    0    0  0.00000000000E+00  0.00000000000E+00  0.74505805969E-08  0.10566000000E+00  0.10566000000E+00 0. -1.
     999900   -1    0    0    0    0 -0.00000000000E+00 -0.00000000000E+00 -0.74505805969E-08  0.93827000000E+00  0.93827000000E+00 0.  1.
     999902    2    1    2    0    0 -0.13759851958E-02  0.15539887915E-01 -0.10492760907E-02  0.10282940660E+01  0.10281751814E+01 0.  0.
     999903    2    3    3    0    0 -0.11695518798E+00  0.91266343580E-02  0.58284962817E-01  0.13873224474E+00  0.45691217866E-01 0.  0.
         14    1    1    2    0    0  0.13759851958E-02 -0.15539887915E-01  0.10492760907E-02  0.15635933998E-01  0.00000000000E+00 0.  1.
     999901    1    3    3    0    0  0.11557920278E+00  0.64132535572E-02 -0.59334238908E-01  0.88956182126E+00  0.88000000000E+00 0.  1.
        -11    1    4    4    0    0 -0.73294632548E-01 -0.12146915520E-01  0.20150363791E-01  0.76980185755E-01  0.51100000000E-03 0.  1.
         11    1    4    4    0    0 -0.43660555433E-01  0.21273549878E-01  0.38134599026E-01  0.61752058986E-01  0.51100000000E-03 0. -1.
</event>
<event>
 8    1  0.1993226E+004  0.1043930E+01  0.7957747E-01            NaN
         13   -1    0    0    0    0  0.00000000000E+00  0.00000000000E+00  0.74505805969E-08  0.10566000000E+00  0.10566000000E+00 0.  1.
     999900   -1    0    0    0    0 -0.00000000000E+00 -0.00000000000E+00 -0.74505805969E-08  0.93827000000E+00  0.93827000000E+00 0.  1.
     999902    2    1    2    0    0  0.71084652906E-02  0.88567477117E-02 -0.13792340960E-02  0.10324899587E+01  0.10324265786E+01 0.  0.
     999903    2    3    3    0    0 -0.43476555361E-01  0.11949518624E+00  0.47258781592E-01  0.14279036614E+00  0.44568888501E-01 0.  0.
         14    1    1    2    0    0 -0.71084652906E-02 -0.88567477117E-02  0.13792340960E-02  0.11440041325E-01  0.00000000000E+00 0.  1.
     999901    1    3    3    0    0  0.50585020652E-01 -0.11063843853E+00 -0.48638015688E-01  0.88969959254E+00  0.88000000000E+00 0.  1.
        -11    1    4    4    0    0 -0.17693907186E-01  0.29686501524E-01  0.33880976762E-01  0.48399839169E-01  0.51100000000E-03 0. -1.
         11    1    4    4    0    0 -0.25782648176E-01  0.89808684720E-01  0.13377804829E-01  0.94390526967E-01  0.51100000000E-03 0.  1.
</event>
<event>
 8    1  0.1993226E+004  0.1043930E+01  0.7957747E-01            NaN
         13   -1    0    0    0    0  0.00000000000E+00  0.00000000000E+00  0.74505805969E-08  0.10566000000E+00  0.10566000000E+00 0. -1.
     999900   -1    0    0    0    0 -0.00000000000E+00 -0.00000000000E+00 -0.74505805969E-08  0.93827000000E+00  0.93827000000E+00 0.  1.
     999902    2    1    2    0    0 -0.12796962265E-01  0.11828040562E-03  0.61350518472E-02  0.10297379214E+01  0.10296401176E+01 0.  0.
     999903    2    3    3    0    0 -0.54738247819E-01  0.11309718629E+00 -0.42881356195E-01  0.14017290812E+00  0.44970925519E-01 0.  0.
         14    1    1    2    0    0  0.12796962265E-01 -0.11828040562E-03 -0.61350518472E-02  0.14192078588E-01  0.00000000000E+00 0.  1.
     999901    1    3    3    0    0  0.41941285554E-01 -0.11297890588E+00  0.49016408042E-01  0.88956501329E+00  0.88000000000E+00 0. -1.
        -11    1    4    4    0    0 -0.25304032932E-01  0.50663220079E-01  0.39320152485E-02  0.56769514851E-01  0.51100000000E-03 0.  1.
         11    1    4    4    0    0 -0.29434214887E-01  0.62433966210E-01 -0.46813371443E-01  0.83403393274E-01  0.51100000000E-03 0. -1.
</event>
<event>
 7    1  0.1993226E+004  0.1043930E+01  0.7957747E-01            NaN
         13   -1    0    0    0    0  0.00000000000E+00  0.00000000000E+00  0.74505805969E-08  0.10566000000E+00  0.10566000000E+00 0. -1.
     999900   -1    0    0    0    0 -0.00000000000E+00 -0.00000000000E+00 -0.74505805969E-08  0.93827000000E+00  0.93827000000E+00 0. -1.
     999902    2    1    2    0    0 -0.16866885810E-02  0.72145622203E-02  0.11816908976E-01  0.10299824495E+01  0.10298880095E+01 0.  0.
         14    1    1    2    0    0  0.16866885810E-02 -0.72145622203E-02 -0.11816908976E-01  0.13947550471E-01  0.00000000000E+00 0.  1.
     999901    1    3    3    0    0 -0.13821339317E+00  0.16042293369E-02  0.23707991221E-01  0.89110469893E+00  0.88000000000E+00 0.  1.
        -11    1    3    3    0    0  0.85852232925E-01 -0.61811830262E-02 -0.11537410683E-01  0.86845759183E-01  0.51100000000E-03 0. -1.
         11    1    3    3    0    0  0.50674471668E-01  0.11791515910E-01 -0.35367156140E-03  0.52031991417E-01  0.51100000000E-03 0.  1.
</event>
<event>
 8    1  0.1993226E+004  0.1043930E+01  0.7957747E-01            NaN
         13   -1    0    0    0    0  0.00000000000E+00  0.00000000000E+00  0.74505805969E-08  0.10566000000E+00  0.10566000000E+00 0.  1.
     999900   -1    0    0    0    0 -0.00000000000E+00 -0.00000000000E+00 -0.74505805969E-08  0.93827000000E+00  0.93827000000E+00 0. -1.
     999902    2    1    2    0    0  0.99256623549E-02 -0.27115151163E-03  0.72077329258E-02  0.10316603745E+01  0.10315874101E+01 0.  0.
     999903    2    3    3    0    0  0.10857714228E+00  0.30010904120E-01  0.77589557309E-01  0.14283940343E+00  0.41149794374E-01 0.  0.
         14    1    1    2    0    0 -0.99256623549E-02  0.27115151163E-03 -0.72077329258E-02  0.12269625514E-01  0.00000000000E+00 0. -1.
     999901    1    3    3    0    0 -0.98651479926E-01 -0.30282055632E-01 -0.70381824383E-01  0.88882097106E+00  0.88000000000E+00 0.  1.
        -11    1    4    4    0    0  0.74183995866E-01  0.61768622288E-02  0.32215963328E-01  0.81114414772E-01  0.51100000000E-03 0. -1.
         11    1    4    4    0    0  0.34393146415E-01  0.23834041892E-01  0.45373593980E-01  0.61724988659E-01  0.51100000000E-03 0.  1.
</event>
<event>
 8    1  0.1993226E+004  0.1043930E+01  0.7957747E-01            NaN
         13   -1    0    0    0    0  0.00000000000E+00  0.00000000000E+00  0.74505805969E-08  0.10566000000E+00  0.10566000000E+00 0. -1.
     999900   -1    0    0    0    0 -0.00000000000E+00 -0.00000000000E+00 -0.74505805969E-08  0.93827000000E+00  0.93827000000E+00 0.  1.
     999902    2    1    2    0    0 -0.93520822603E-02 -0.67825526125E-02 -0.88086154623E-02  0.10294022277E+01  0.10292997086E+01 0.  0.
     999903    2    3    3    0    0  0.10532075648E+00  0.69657827688E-01  0.32122462717E-01  0.13773617760E+00  0.44662370126E-01 0.  0.
         14    1    1    2    0    0  0.93520822603E-02  0.67825526125E-02  0.88086154623E-02  0.14527772331E-01  0.00000000000E+00 0.  1.
     999901    1    3    3    0    0 -0.11467283874E+00 -0.76440380301E-01 -0.40931078179E-01  0.89166605007E+00  0.88000000000E+00 0.  1.
        -11    1    4    4    0    0  0.62451839647E-01  0.24980009180E-01 -0.14905866170E-02  0.67280874722E-01  0.51100000000E-03 0. -1.
         11    1    4    4    0    0  0.42868916832E-01  0.44677818509E-01  0.33613049334E-01  0.70455302877E-01  0.51100000000E-03 0.  1.
</event>
<event>
 8    1  0.1993226E+004  0.1043930E+01  0.7957747E-01            NaN
         13   -1    0    0    0    0  0.00000000000E+00  0.00000000000E+00  0.74505805969E-08  0.10566000000E+00  0.10566000000E+00 0.  1.
     999900   -1    0    0    0    0 -0.00000000000E+00 -0.00000000000E+00 -0.74505805969E-08  0.93827000000E+00  0.93827000000E+00 0.  1.
     999902    2    1    2    0    0  0.87972188252E-02 -0.62451971084E-02 -0.84372642516E-02  0.10302339796E+01  0.10301429376E+01 0.  0.
     999903    2    3    3    0    0 -0.49350631784E-01  0.10884243274E+00 -0.55495121349E-01  0.13959332426E+00  0.46091514000E-01 0.  0.
         14    1    1    2    0    0 -0.87972188252E-02  0.62451971084E-02  0.84372642516E-02  0.13696020372E-01  0.00000000000E+00 0.  1.
     999901    1    3    3    0    0  0.58147850609E-01 -0.11508762985E+00  0.47057857097E-01  0.89064065537E+00  0.88000000000E+00 0.  1.
        -11    1    4    4    0    0 -0.60077245279E-02  0.26041236955E-02  0.64447408740E-02  0.92016313857E-02  0.51100000000E-03 0.  1.
         11    1    4    4    0    0 -0.43342907256E-01  0.10623830905E+00 -0.61939862223E-01  0.13039169288E+00  0.51100000000E-03 0. -1.
</event>
<event>
 8    1  0.1993226E+004  0.1043930E+01  0.7957747E-01            NaN
         13   -1    0    0    0    0  0.00000000000E+00  0.00000000000E+00  0.74505805969E-08  0.10566000000E+00  0.10566000000E+00 0.  1.
     999900   -1    0    0    0    0 -0.00000000000E+00 -0.00000000000E+00 -0.74505805969E-08  0.93827000000E+00  0.93827000000E+00 0. -1.
     999902    2    1    2    0    0  0.69286018663E-02 -0.51301870096E-02  0.12082465410E-01  0.10290871461E+01  0.10289800989E+01 0.  0.
     999903    2    3    3    0    0  0.42160032829E-01 -0.57211181244E-01  0.11296080761E+00  0.14109495938E+00  0.45793622701E-01 0.  0.
         14    1    1    2    0    0 -0.69286018663E-02  0.51301870096E-02 -0.12082465410E-01  0.14842853936E-01  0.00000000000E+00 0. -1.
     999901    1    3    3    0    0 -0.35231430963E-01  0.52080994234E-01 -0.10087834220E+00  0.88799218668E+00  0.88000000000E+00 0.  1.
        -11    1    4    4    0    0  0.26253450992E-01 -0.77024872230E-02  0.64276106531E-01  0.69858793220E-01  0.51100000000E-03 0.  1.
         11    1    4    4    0    0  0.15906581838E-01 -0.49508694021E-01  0.48684701074E-01  0.71236166160E-01  0.51100000000E-03 0. -1.
</event>
<event>
 8    1  0.1993226E+004  0.1043930E+01  0.7957747E-01            NaN
         13   -1    0    0    0    0  0.00000000000E+00  0.00000000000E+00  0.74505805969E-08  0.10566000000E+00  0.10566000000E+00 0.  1.
     999900   -1    0    0    0    0 -0.00000000000E+00 -0.00000000000E+00 -0.74505805969E-08  0.93827000000E+00  0.93827000000E+00 0.  1.
     999902    2    1    2    0    0  0.39160825831E-02  0.11553093545E-01  0.60137203107E-02  0.10303294667E+01  0.10302396981E+01 0.  0.
     999903    2    3    3    0    0 -0.11487150136E+00  0.61221088134E-01  0.32730655758E-01  0.14055916242E+00  0.41738457771E-01 0.  0.
         14    1    1    2    0    0 -0.39160825831E-02 -0.11553093545E-01 -0.60137203107E-02  0.13600533270E-01  0.00000000000E+00 0. -1.
     999901    1    3    3    0    0  0.11878758395E+00 -0.49667994589E-01 -0.26716935447E-01  0.88977030431E+00  0.88000000000E+00 0. -1.
        -11    1    4    4    0    0 -0.57116431790E-01  0.40162849518E-01  0.36835267706E-01  0.78945799950E-01  0.51100000000E-03 0.  1.
         11    1    4    4    0    0 -0.57755069573E-01  0.21058238617E-01 -0.41046119481E-02  0.61613362473E-01  0.51100000000E-03 0. -1.
</event>
<event>
 8    1  0.2051621E+004  0.1043930E+01  0.7957747E-01            NaN
         13   -1    0    0    0    0  0.00000000000E+00  0.00000000000E+00  0.74505805969E-08  0.10566000000E+00  0.10566000000E+00 0. -1.
     999900   -1    0    0    0    0 -0.00000000000E+00 -0.00000000000E+00 -0.74505805969E-08  0.93827000000E+00  0.93827000000E+00 0. -1.
     999902    2    1    2    0    0 -0.95020933497E-02  0.64308545595E-02  0.70972058124E-02  0.10304386695E+01  0.10303503460E+01 0.  0.
     999903    2    3    3    0    0  0.88037301147E-01 -0.16753045429E-01 -0.95902308549E-01  0.13877711562E+00  0.45062224883E-01 0.  0.
         14    1    1    2    0    0  0.95020933497E-02 -0.64308545595E-02 -0.70972058124E-02  0.13491330503E-01  0.00000000000E+00 0. -1.
     999901    1    3    3    0    0 -0.97539394497E-01  0.23183899988E-01  0.10299951436E+00  0.89166155387E+00  0.88000000000E+00 0. -1.
        -11    1    4    4    0    0  0.46719440223E-01 -0.18363526883E-01 -0.23571635587E-01  0.55459970605E-01  0.51100000000E-03 0. -1.
         11    1    4    4    0    0  0.41317860924E-01  0.16104814539E-02 -0.72330672962E-01  0.83317145018E-01  0.51100000000E-03 0.  1.
</event>
<event>
 8    1  0.1993226E+004  0.1043930E+01  0.7957747E-01            NaN
         13   -1    0    0    0    0  0.00000000000E+00  0.00000000000E+00  0.74505805969E-08  0.10566000000E+00  0.10566000000E+00 0. -1.
     999900   -1    0    0    0    0 -0.00000000000E+00 -0.00000000000E+00 -0.74505805969E-08  0.93827000000E+00  0.93827000000E+00 0. -1.
     999902    2    1    2    0    0  0.90489585482E-02  0.92171034222E-02 -0.55933867695E-02  0.10298543252E+01  0.10297581301E+01 0.  0.
     999903    2    3    3    0    0  0.11697558803E+00  0.23680018096E-01 -0.61023604093E-01  0.14141195662E+00  0.45049192735E-01 0.  0.
         14    1    1    2    0    0 -0.90489585482E-02 -0.92171034222E-02  0.55933867695E-02  0.14075674828E-01  0.00000000000E+00 0. -1.
     999901    1    3    3    0    0 -0.10792662948E+00 -0.14462914674E-01  0.55430217323E-01  0.88844236856E+00  0.88000000000E+00 0.  1.
        -11    1    4    4    0    0  0.73838050408E-01  0.25619424211E-01 -0.59450884125E-01  0.98199192100E-01  0.51100000000E-03 0. -1.
         11    1    4    4    0    0  0.43137537621E-01 -0.19394061149E-02 -0.15727199678E-02  0.43212764516E-01  0.51100000000E-03 0.  1.
</event>
<event>
 8    1  0.1993226E+004  0.1043930E+01  0.7957747E-01            NaN
         13   -1    0    0    0    0  0.00000000000E+00  0.00000000000E+00  0.74505805969E-08  0.10566000000E+00  0.10566000000E+00 0. -1.
     999900   -1    0    0    0    0 -0.00000000000E+00 -0.00000000000E+00 -0.74505805969E-08  0.93827000000E+00  0.93827000000E+00 0. -1.
     999902    2    1    2    0    0  0.39965522043E-02 -0.12884315224E-01 -0.39820293909E-02  0.10298646324E+01  0.10297685791E+01 0.  0.
     999903    2    3    3    0    0  0.84573384666E-01 -0.93235267961E-01  0.52698871945E-01  0.14072930741E+00  0.34381597882E-01 0.  0.
         14    1    1    2    0    0 -0.39965522043E-02  0.12884315224E-01  0.39820293909E-02  0.14065367624E-01  0.00000000000E+00 0.  1.
     999901    1    3    3    0    0 -0.80576832461E-01  0.80350952737E-01 -0.56680901336E-01  0.88913532497E+00  0.88000000000E+00 0.  1.
        -11    1    4    4    0    0  0.35885587765E-01 -0.32727689622E-01  0.38036021852E-01  0.61691791646E-01  0.51100000000E-03 0.  1.
         11    1    4    4    0    0  0.48687796900E-01 -0.60507578339E-01  0.14662850093E-01  0.79037515759E-01  0.51100000000E-03 0. -1.
</event>
<event>
 8    1  0.1993226E+004  0.1043930E+01  0.7957747E-01            NaN
         13   -1    0    0    0    0  0.00000000000E+00  0.00000000000E+00  0.74505805969E-08  0.10566000000E+00  0.10566000000E+00 0. -1.
     999900   -1    0    0    0    0 -0.00000000000E+00 -0.00000000000E+00 -0.74505805969E-08  0.93827000000E+00  0.93827000000E+00 0. -1.
     999902    2    1    2    0    0 -0.56078864810E-02 -0.95201407778E-02  0.75092382042E-02  0.10305707287E+01  0.10304841371E+01 0.  0.
     999903    2    3    3    0    0  0.12260955285E+00 -0.33100893479E-01 -0.37758355817E-01  0.13981547684E+00  0.44653135742E-01 0.  0.
         14    1    1    2    0    0  0.56078864810E-02  0.95201407778E-02 -0.75092382042E-02  0.13359271298E-01  0.00000000000E+00 0.  1.
     999901    1    3    3    0    0 -0.12821743933E+00  0.23580752701E-01  0.45267594021E-01  0.89075525186E+00  0.88000000000E+00 0.  1.
        -11    1    4    4    0    0  0.83492567142E-01 -0.29910350783E-02 -0.34345042633E-01  0.90331600968E-01  0.51100000000E-03 0.  1.
         11    1    4    4    0    0  0.39116985707E-01 -0.30109858400E-01 -0.34133131838E-02  0.49483875875E-01  0.51100000000E-03 0. -1.
</event>
<event>
 8    1  0.1993226E+004  0.1043930E+01  0.7957747E-01            NaN
         13   -1    0    0    0    0  0.00000000000E+00  0.00000000000E+00  0.74505805969E-08  0.10566000000E+00  0.10566000000E+00 0.  1.
     999900   -1    0    0    0    0 -0.00000000000E+00 -0.00000000000E+00 -0.74505805969E-08  0.93827000000E+00  0.93827000000E+00 0. -1.
     999902    2    1    2    0    0  0.76579899199E-02  0.39408370797E-02 -0.13260154956E-01  0.10281183993E+01  0.10279968075E+01 0.  0.
     999903    2    3    3    0    0  0.49414011320E-01 -0.57984130418E-01 -0.10810493455E+00  0.13987642827E+00  0.45550350354E-01 0.  0.
         14    1    1    2    0    0 -0.76579899199E-02 -0.39408370797E-02  0.13260154956E-01  0.15811600676E-01  0.00000000000E+00 0.  1.
     999901    1    3    3    0    0 -0.41756021400E-01  0.61924967498E-01  0.94844779592E-01  0.88824197105E+00  0.88000000000E+00 0. -1.
        -11    1    4    4    0    0  0.40124795843E-01 -0.12606112521E-01 -0.57916477826E-01  0.71578578074E-01  0.51100000000E-03 0.  1.
         11    1    4    4    0    0  0.92892154767E-02 -0.45378017898E-01 -0.50188456722E-01  0.68297850198E-01  0.51100000000E-03 0. -1.
</event>
<event>
 8    1  0.1993226E+004  0.1043930E+01  0.7957747E-01            NaN
         13   -1    0    0    0    0  0.00000000000E+00  0.00000000000E+00  0.74505805969E-08  0.10566000000E+00  0.10566000000E+00 0. -1.
     999900   -1    0    0    0    0 -0.00000000000E+00 -0.00000000000E+00 -0.74505805969E-08  0.93827000000E+00  0.93827000000E+00 0. -1.
     999902    2    1    2    0    0  0.77011415438E-02  0.10907700526E-01  0.38145346903E-02  0.10300434530E+01  0.10299498429E+01 0.  0.
     999903    2    3    3    0    0 -0.71576975454E-01  0.26262467089E-01 -0.10769695783E+00  0.13933833816E+00  0.44761112181E-01 0.  0.
         14    1    1    2    0    0 -0.77011415438E-02 -0.10907700526E-01 -0.38145346903E-02  0.13886546970E-01  0.00000000000E+00 0. -1.
     999901    1    3    3    0    0  0.79278116998E-01 -0.15354766563E-01  0.11151149252E+00  0.89070511487E+00  0.88000000000E+00 0.  1.
        -11    1    4    4    0    0 -0.55516243844E-02 -0.10773703518E-01 -0.98653833073E-02  0.15635860373E-01  0.51100000000E-03 0. -1.
         11    1    4    4    0    0 -0.66025351069E-01  0.37036170607E-01 -0.97831574519E-01  0.12370247779E+00  0.51100000000E-03 0.  1.
</event>
<event>
 8    1  0.1993226E+004  0.1043930E+01  0.7957747E-01            NaN
         13   -1    0    0    0    0  0.00000000000E+00  0.00000000000E+00  0.74505805969E-08  0.10566000000E+00  0.10566000000E+00 0. -1.
     999900   -1    0    0    0    0 -0.00000000000E+00 -0.00000000000E+00 -0.74505805969E-08  0.93827000000E+00  0.93827000000E+00 0.  1.
     999902    2    1    2    0    0 -0.18137770175E-02 -0.14195990562E-01  0.28579399161E-03  0.10296157549E+01  0.10295162481E+01 0.  0.
     999903    2    3    3    0    0 -0.11459838497E+00 -0.14766438491E-01  0.65699188874E-01  0.14000932200E+00  0.43993059503E-01 0.  0.
         14    1    1    2    0    0  0.18137770175E-02  0.14195990562E-01 -0.28579399161E-03  0.14314245118E-01  0.00000000000E+00 0.  1.
     999901    1    3    3    0    0  0.11278460795E+00  0.57044792907E-03 -0.65413394882E-01  0.88960643289E+00  0.88000000000E+00 0.  1.
        -11    1    4    4    0    0 -0.84023079929E-01 -0.27520325656E-02  0.66427326580E-01  0.10714617343E+00  0.51100000000E-03 0. -1.
         11    1    4    4    0    0 -0.30575305038E-01 -0.12014405925E-01 -0.72813770650E-03  0.32863148562E-01  0.51100000000E-03 0.  1.
</event>
<event>
 8    1  0.1993226E+004  0.1043930E+01  0.7957747E-01            NaN
         13   -1    0    0    0    0  0.00000000000E+00  0.00000000000E+00  0.74505805969E-08  0.10566000000E+00  0.10566000000E+00 0.  1.
     999900   -1    0    0    0    0 -0.00000000000E+00 -0.00000000000E+00 -0.74505805969E-08  0.93827000000E+00  0.93827000000E+00 0.  1.
     999902    2    1    2    0    0 -0.91261572324E-02 -0.37997080726E-02 -0.96873979919E-02  0.10300891110E+01  0.10299961196E+01 0.  0.
     999903    2    3    3    0    0 -0.80813253459E-01 -0.10217014008E+00  0.30054259561E-01  0.14082245756E+00  0.44251401960E-01 0.  0.
         14    1    1    2    0    0  0.91261572324E-02  0.37997080726E-02  0.96873979919E-02  0.13840888957E-01  0.00000000000E+00 0.  1.
     999901    1    3    3    0    0  0.71687096226E-01  0.98370432009E-01 -0.39741657553E-01  0.88926665349E+00  0.88000000000E+00 0.  1.
        -11    1    4    4    0    0 -0.24921379220E-01 -0.66294215680E-01  0.10597545368E-01  0.71614015832E-01  0.51100000000E-03 0.  1.
         11    1    4    4    0    0 -0.55891874238E-01 -0.35875924402E-01  0.19456714194E-01  0.69208441724E-01  0.51100000000E-03 0. -1.
</event>
<event>
 8    1  0.1993226E+004  0.1043930E+01  0.7957747E-01            NaN
         13   -1    0    0    0    0  0.00000000000E+00  0.00000000000E+00  0.74505805969E-08  0.10566000000E+00  0.10566000000E+00 0. -1.
     999900   -1    0    0    0    0 -0.00000000000E+00 -0.00000000000E+00 -0.74505805969E-08  0.93827000000E+00  0.93827000000E+00 0. -1.
     999902    2    1    2    0    0  0.11014349326E-01  0.43858388878E-02  0.65093376569E-02  0.10304050989E+01  0.10303163324E+01 0.  0.
     999903    2    3    3    0    0 -0.40000055070E-01  0.83604483621E-01  0.96026826815E-01  0.14085945980E+00  0.45061312224E-01 0.  0.
         14    1    1    2    0    0 -0.11014349326E-01 -0.43858388878E-02 -0.65093376569E-02  0.13524901129E-01  0.00000000000E+00 0. -1.
     999901    1    3    3    0    0  0.51014404395E-01 -0.79218644733E-01 -0.89517489158E-01  0.88954563907E+00  0.88000000000E+00 0. -1.
        -11    1    4    4    0    0 -0.87218398117E-03  0.47353650841E-01  0.30368390102E-01  0.56263924421E-01  0.51100000000E-03 0.  1.
         11    1    4    4    0    0 -0.39127871089E-01  0.36250832780E-01  0.65658436713E-01  0.84595535377E-01  0.51100000000E-03 0. -1.
</event>
<event>
 8    1  0.1993226E+004  0.1043930E+01  0.7957747E-01            NaN
         13   -1    0    0    0    0  0.00000000000E+00  0.00000000000E+00  0.74505805969E-08  0.10566000000E+00  0.10566000000E+00 0. -1.
     999900   -1    0    0    0    0 -0.00000000000E+00 -0.00000000000E+00 -0.74505805969E-08  0.93827000000E+00  0.93827000000E+00 0. -1.
     999902    2    1    2    0    0  0.89599487410E-02 -0.43124844267E-04 -0.10051208092E-01  0.10304648849E+01  0.10303769066E+01 0.  0.
     999903    2    3    3    0    0 -0.93187273492E-01  0.66139190498E-01 -0.69067885380E-01  0.14012948624E+00  0.42516345814E-01 0.  0.
         14    1    1    2    0    0 -0.89599487410E-02  0.43124844267E-04  0.10051208092E-01  0.13465115124E-01  0.00000000000E+00 0. -1.
     999901    1    3    3    0    0  0.10214722223E+00 -0.66182315342E-01  0.59016677289E-01  0.89033539864E+00  0.88000000000E+00 0.  1.
        -11    1    4    4    0    0 -0.38110540847E-01  0.21628349184E-01 -0.50611835582E-01  0.66947874007E-01  0.51100000000E-03 0. -1.
         11    1    4    4    0    0 -0.55076732645E-01  0.44510841314E-01 -0.18456049798E-01  0.73181612229E-01  0.51100000000E-03 0.  1.
</event>
<event>
 8    1  0.1993226E+004  0.1043930E+01  0.7957747E-01            NaN
         13   -1    0    0    0    0  0.00000000000E+00  0.00000000000E+00  0.74505805969E-08  0.10566000000E+00  0.10566000000E+00 0.  1.
     999900   -1    0    0    0    0 -0.00000000000E+00 -0.00000000000E+00 -0.74505805969E-08  0.93827000000E+00  0.93827000000E+00 0. -1.
     999902    2    1    2    0    0  0.81644674937E-02  0.59267437132E-02 -0.95078356386E-02  0.10300669643E+01  0.10299736730E+01 0.  0.
     999903    2    3    3    0    0 -0.95816562781E-02  0.56074403854E-01 -0.12022604070E+00  0.14153546026E+00  0.48392548428E-01 0.  0.
         14    1    1    2    0    0 -0.81644674937E-02 -0.59267437132E-02  0.95078356386E-02  0.13863035707E-01  0.00000000000E+00 0.  1.
     999901    1    3    3    0    0  0.17746123772E-01 -0.50147660140E-01  0.11071820506E+00  0.88853150403E+00  0.88000000000E+00 0.  1.
        -11    1    4    4    0    0  0.59733095396E-02  0.44207384683E-01 -0.43341697886E-01  0.62199173500E-01  0.51100000000E-03 0. -1.
         11    1    4    4    0    0 -0.15554965818E-01  0.11867019171E-01 -0.76884342816E-01  0.79336286760E-01  0.51100000000E-03 0.  1.
</event>
<event>
 8    1  0.1993226E+004  0.1043930E+01  0.7957747E-01            NaN
         13   -1    0    0    0    0  0.00000000000E+00  0.00000000000E+00  0.74505805969E-08  0.10566000000E+00  0.10566000000E+00 0.  1.
     999900   -1    0    0    0    0 -0.00000000000E+00 -0.00000000000E+00 -0.74505805969E-08  0.93827000000E+00  0.93827000000E+00 0. -1.
     999902    2    1    2    0    0 -0.76758097624E-03 -0.96953305811E-02  0.11053535133E-01  0.10292069142E+01  0.10291016000E+01 0.  0.
     999903    2    3    3    0    0 -0.33868248291E-01  0.10208369184E+00 -0.73230497003E-01  0.13752647702E+00  0.44527382673E-01 0.  0.
         14    1    1    2    0    0  0.76758097624E-03  0.96953305811E-02 -0.11053535133E-01  0.14723085769E-01  0.00000000000E+00 0. -1.
     999901    1    3    3    0    0  0.33100667314E-01 -0.11177902242E+00  0.84284032136E-01  0.89168043721E+00  0.88000000000E+00 0.  1.
        -11    1    4    4    0    0 -0.20264817720E-01  0.58159971535E-01 -0.67187251201E-01  0.91146217536E-01  0.51100000000E-03 0. -1.
         11    1    4    4    0    0 -0.13603430571E-01  0.43923720308E-01 -0.60432458018E-02  0.46380259484E-01  0.51100000000E-03 0.  1.
</event>
<event>
 8    1  0.1993226E+004  0.1043930E+01  0.7957747E-01            NaN
         13   -1    0    0    0    0  0.00000000000E+00  0.00000000000E+00  0.74505805969E-08  0.10566000000E+00  0.10566000000E+00 0. -1.
     999900   -1    0    0    0    0 -0.00000000000E+00 -0.00000000000E+00 -0.74505805969E-08  0.93827000000E+00  0.93827000000E+00 0. -1.
     999902    2    1    2    0    0 -0.17903349773E-01  0.29322675258E-02 -0.34897766018E-02  0.10254555131E+01  0.10252890825E+01 0.  0.
     999903    2    3    3    0    0 -0.74469040607E-01  0.90042639099E-01 -0.57048740212E-01  0.13773007310E+00  0.45405940272E-01 0.  0.
         14    1    1    2    0    0  0.17903349773E-01 -0.29322675258E-02  0.34897766018E-02  0.18474486912E-01  0.00000000000E+00 0. -1.
     999901    1    3    3    0    0  0.56565690834E-01 -0.87110371573E-01  0.53558963611E-01  0.88772543999E+00  0.88000000000E+00 0.  1.
        -11    1    4    4    0    0 -0.71019052163E-01  0.64659183989E-01 -0.57801226014E-01  0.11209709494E+00  0.51100000000E-03 0.  1.
         11    1    4    4    0    0 -0.34499884441E-02  0.25383455110E-01  0.75248580125E-03  0.25632978162E-01  0.51100000000E-03 0. -1.
</event>
<event>
 8    1  0.1993226E+004  0.1043930E+01  0.7957747E-01            NaN
         13   -1    0    0    0    0  0.00000000000E+00  0.00000000000E+00  0.74505805969E-08  0.10566000000E+00  0.10566000000E+00 0. -1.
     999900   -1    0    0    0    0 -0.00000000000E+00 -0.00000000000E+00 -0.74505805969E-08  0.93827000000E+00  0.93827000000E+00 0. -1.
     999902    2    1    2    0    0  0.76460329197E-02 -0.13639312874E-02  0.12476102993E-01  0.10292339028E+01  0.10291289770E+01 0.  0.
     999903    2    3    3    0    0 -0.10073440788E+00 -0.21293612890E-01 -0.79327974666E-01  0.13762215944E+00  0.45233752053E-01 0.  0.
         14    1    1    2    0    0 -0.76460329197E-02  0.13639312874E-02 -0.12476102993E-01  0.14696097232E-01  0.00000000000E+00 0.  1.
     999901    1    3    3    0    0  0.10838044080E+00  0.19929681602E-01  0.91804077659E-01  0.89161174332E+00  0.88000000000E+00 0. -1.
        -11    1    4    4    0    0 -0.44128405045E-01  0.12307067763E-01 -0.40787972323E-01  0.61340849814E-01  0.51100000000E-03 0. -1.
         11    1    4    4    0    0 -0.56606002836E-01 -0.33600680653E-01 -0.38540002343E-01  0.76281309631E-01  0.51100000000E-03 0.  1.
</event>
<event>
 8    1  0.1993226E+004  0.1043930E+01  0.7957747E-01            NaN
         13   -1    0    0    0    0  0.00000000000E+00  0.00000000000E+00  0.74505805969E-08  0.10566000000E+00  0.10566000000E+00 0. -1.
     999900   -1    0    0    0    0 -0.00000000000E+00 -0.00000000000E+00 -0.74505805969E-08  0.93827000000E+00  0.93827000000E+00 0.  1.
     999902    2    1    2    0    0  0.88933823285E-02 -0.10249229305E-01  0.17210044395E-02  0.10302515203E+01  0.10301607128E+01 0.  0.
     999903    2    3    3    0    0  0.63103354877E-01  0.70899709174E-02 -0.11688128098E+00  0.14047296858E+00  0.45156616074E-01 0.  0.
         14    1    1    2    0    0 -0.88933823285E-02  0.10249229305E-01 -0.17210044395E-02  0.13678479699E-01  0.00000000000E+00 0.  1.
     999901    1    3    3    0    0 -0.54209972548E-01 -0.17339200222E-01  0.11860228542E+00  0.88977855172E+00  0.88000000000E+00 0. -1.
        -11    1    4    4    0    0  0.43385289454E-01 -0.65299031979E-02 -0.38048158283E-01  0.58076212398E-01  0.51100000000E-03 0.  1.
         11    1    4    4    0    0  0.19718065422E-01  0.13619874115E-01 -0.78833122697E-01  0.82396756186E-01  0.51100000000E-03 0. -1.
</event>
<event>
 8    1  0.1993226E+004  0.1043930E+01  0.7957747E-01            NaN
         13   -1    0    0    0    0  0.00000000000E+00  0.00000000000E+00  0.74505805969E-08  0.10566000000E+00  0.10566000000E+00 0.  1.
     999900   -1    0    0    0    0 -0.00000000000E+00 -0.00000000000E+00 -0.74505805969E-08  0.93827000000E+00  0.93827000000E+00 0. -1.
     999902    2    1    2    0    0 -0.10106593811E-01  0.91387059227E-02 -0.50385248398E-02  0.10294025805E+01  0.10293000665E+01 0.  0.
     999903    2    3    3    0    0  0.23986419933E-01 -0.11515931228E+00 -0.58102343738E-01  0.13843226687E+00  0.44165536519E-01 0.  0.
         14    1    1    2    0    0  0.10106593811E-01 -0.91387059227E-02  0.50385248398E-02  0.14527419487E-01  0.00000000000E+00 0.  1.
     999901    1    3    3    0    0 -0.34093013744E-01  0.12429801821E+00  0.53063818899E-01  0.89097031364E+00  0.88000000000E+00 0.  1.
        -11    1    4    4    0    0  0.30704375758E-01 -0.10742723880E+00 -0.42044954390E-01  0.11937926804E+00  0.51100000000E-03 0. -1.
         11    1    4    4    0    0 -0.67179558242E-02 -0.77320734862E-02 -0.16057389349E-01  0.19052998834E-01  0.51100000000E-03 0.  1.
</event>
<event>
 8    1  0.1993226E+004  0.1043930E+01  0.7957747E-01            NaN
         13   -1    0    0    0    0  0.00000000000E+00  0.00000000000E+00  0.74505805969E-08  0.10566000000E+00  0.10566000000E+00 0.  1.
     999900   -1    0    0    0    0 -0.00000000000E+00 -0.00000000000E+00 -0.74505805969E-08  0.93827000000E+00  0.93827000000E+00 0.  1.
     999902    2    1    2    0    0 -0.63079670156E-02  0.12216197979E-01  0.18131853129E-02  0.10300622827E+01  0.10299689281E+01 0.  0.
     999903    2    3    3    0    0  0.12443554104E+00 -0.15318526724E-01  0.39239240641E-01  0.13919038646E+00  0.45993309762E-01 0.  0.
         14    1    1    2    0    0  0.63079670156E-02 -0.12216197979E-01 -0.18131853129E-02  0.13867717257E-01  0.00000000000E+00 0.  1.
     999901    1    3    3    0    0 -0.13074350806E+00  0.27534724703E-01 -0.37426055328E-01  0.89087189628E+00  0.88000000000E+00 0.  1.
        -11    1    4    4    0    0  0.83934015993E-01  0.67200864458E-02  0.10501928053E-01  0.84856527247E-01  0.51100000000E-03 0.  1.
         11    1    4    4    0    0  0.40501525047E-01 -0.22038613170E-01  0.28737312589E-01  0.54333859217E-01  0.51100000000E-03 0. -1.
</event>
<event>
 8    1  0.1993226E+004  0.1043930E+01  0.7957747E-01            NaN
         13   -1    0    0    0    0  0.00000000000E+00  0.00000000000E+00  0.74505805969E-08  0.10566000000E+00  0.10566000000E+00 0. -1.
     999900   -1    0    0    0    0 -0.00000000000E+00 -0.00000000000E+00 -0.74505805969E-08  0.93827000000E+00  0.93827000000E+00 0. -1.
     999902    2    1    2    0    0  0.19258292140E-01  0.20491753596E-01  0.16499837345E-02  0.10157605799E+01  0.10153699028E+01 0.  0.
     999903    2    3    3    0    0  0.10904047201E+00 -0.37992264226E-01  0.40791507550E-01  0.12839747552E+00  0.38584037538E-01 0.  0.
         14    1    1    2    0    0 -0.19258292140E-01 -0.20491753596E-01 -0.16499837345E-02  0.28169420085E-01  0.00000000000E+00 0.  1.
     999901    1    3    3    0    0 -0.89782179872E-01  0.58484017822E-01 -0.39141523816E-01  0.88736310440E+00  0.88000000000E+00 0.  1.
        -11    1    4    4    0    0  0.91578996888E-01 -0.44608793520E-01  0.40755328053E-01  0.10971743260E+00  0.51100000000E-03 0. -1.
         11    1    4    4    0    0  0.17461475125E-01  0.66165292939E-02  0.36179497560E-04  0.18680042917E-01  0.51100000000E-03 0.  1.
</event>
<event>
 8    1  0.1993226E+004  0.1043930E+01  0.7957747E-01            NaN
         13   -1    0    0    0    0  0.00000000000E+00  0.00000000000E+00  0.74505805969E-08  0.10566000000E+00  0.10566000000E+00 0. -1.
     999900   -1    0    0    0    0 -0.00000000000E+00 -0.00000000000E+00 -0.74505805969E-08  0.93827000000E+00  0.93827000000E+00 0. -1.
     999902    2    1    2    0    0 -0.57559852569E-02  0.12451660522E-01  0.32188416018E-02  0.10298397141E+01  0.10297433178E+01 0.  0.
     999903    2    3    3    0    0 -0.56658025480E-01 -0.22166323014E-01 -0.11717001119E+00  0.13951230332E+00  0.45093164960E-01 0.  0.
         14    1    1    2    0    0  0.57559852569E-02 -0.12451660522E-01 -0.32188416018E-02  0.14090285919E-01  0.00000000000E+00 0.  1.
     999901    1    3    3    0    0  0.50902040223E-01  0.34617983536E-01  0.12038885279E+00  0.89032741077E+00  0.88000000000E+00 0.  1.
        -11    1    4    4    0    0 -0.17123953249E-01 -0.57784344706E-03 -0.77860828996E-01  0.79725362908E-01  0.51100000000E-03 0.  1.
         11    1    4    4    0    0 -0.39534072232E-01 -0.21588479567E-01 -0.39309182197E-01  0.59786940407E-01  0.51100000000E-03 0. -1.
</event>
<event>
 8    1  0.1993226E+004  0.1043930E+01  0.7957747E-01            NaN
         13   -1    0    0    0    0  0.00000000000E+00  0.00000000000E+00  0.74505805969E-08  0.10566000000E+00  0.10566000000E+00 0. -1.
     999900   -1    0    0    0    0 -0.00000000000E+00 -0.00000000000E+00 -0.74505805969E-08  0.93827000000E+00  0.93827000000E+00 0. -1.
     999902    2    1    2    0    0 -0.62086509323E-02 -0.95186160265E-02 -0.48351537890E-02  0.10315796919E+01  0.10315057589E+01 0.  0.
     999903    2    3    3    0    0  0.31066587207E-01  0.12885915359E+00  0.39841840550E-02  0.13994320140E+00  0.44703597080E-01 0.  0.
         14    1    1    2    0    0  0.62086509323E-02  0.95186160265E-02  0.48351537890E-02  0.12350308078E-01  0.00000000000E+00 0. -1.
     999901    1    3    3    0    0 -0.37275238139E-01 -0.13837776962E+00 -0.88193378439E-02  0.89163649052E+00  0.88000000000E+00 0. -1.
        -11    1    4    4    0    0  0.45252877448E-02  0.77753130128E-01 -0.14975872745E-01  0.79313084414E-01  0.51100000000E-03 0. -1.
         11    1    4    4    0    0  0.26541299462E-01  0.51106023463E-01  0.18960056800E-01  0.60630116990E-01  0.51100000000E-03 0.  1.
</event>
<event>
 8    1  0.1993226E+004  0.1043930E+01  0.7957747E-01            NaN
         13   -1    0    0    0    0  0.00000000000E+00  0.00000000000E+00  0.74505805969E-08  0.10566000000E+00  0.10566000000E+00 0. -1.
     999900   -1    0    0    0    0 -0.00000000000E+00 -0.00000000000E+00 -0.74505805969E-08  0.93827000000E+00  0.93827000000E+00 0. -1.
     999902    2    1    2    0    0 -0.98358782127E-02 -0.60432458495E-03  0.98956739013E-02  0.10299645401E+01  0.10298698557E+01 0.  0.
     999903    2    3    3    0    0 -0.77645364780E-01  0.88297617528E-01  0.66077861366E-01  0.14111240393E+00  0.41486803281E-01 0.  0.
         14    1    1    2    0    0  0.98358782127E-02  0.60432458495E-03 -0.98956739013E-02  0.13965459906E-01  0.00000000000E+00 0. -1.
     999901    1    3    3    0    0  0.67809486568E-01 -0.88901942113E-01 -0.56182187464E-01  0.88885213617E+00  0.88000000000E+00 0. -1.
        -11    1    4    4    0    0 -0.57564710081E-01  0.47334985764E-01  0.22080399946E-01  0.77730958484E-01  0.51100000000E-03 0. -1.
         11    1    4    4    0    0 -0.20080654699E-01  0.40962631764E-01  0.43997461419E-01  0.63381445444E-01  0.51100000000E-03 0.  1.
</event>
<event>
 8    1  0.1993226E+004  0.1043930E+01  0.7957747E-01            NaN
         13   -1    0    0    0    0  0.00000000000E+00  0.00000000000E+00  0.74505805969E-08  0.10566000000E+00  0.10566000000E+00 0. -1.
     999900   -1    0    0    0    0 -0.00000000000E+00 -0.00000000000E+00 -0.74505805969E-08  0.93827000000E+00  0.93827000000E+00 0. -1.
     999902    2    1    2    0    0 -0.28293485661E-02  0.89484470301E-03  0.13572087325E-01  0.10300372856E+01  0.10299435917E+01 0.  0.
     999903    2    3    3    0    0 -0.45522694610E-02 -0.13200759843E+00  0.13054074842E-01  0.14005622048E+00  0.44705780661E-01 0.  0.
         14    1    1    2    0    0  0.28293485661E-02 -0.89484470301E-03 -0.13572087325E-01  0.13892714447E-01  0.00000000000E+00 0.  1.
     999901    1    3    3    0    0  0.17229208949E-02  0.13290244314E+00  0.51801248249E-03  0.88998106507E+00  0.88000000000E+00 0.  1.
        -11    1    4    4    0    0 -0.24378797210E-01 -0.73416710794E-01  0.11244305118E-01  0.78173107241E-01  0.51100000000E-03 0.  1.
         11    1    4    4    0    0  0.19826527749E-01 -0.58590887639E-01  0.18097697244E-02  0.61883113241E-01  0.51100000000E-03 0. -1.
</event>
<event>
 8    1  0.1993226E+004  0.1043930E+01  0.7957747E-01            NaN
         13   -1    0    0    0    0  0.00000000000E+00  0.00000000000E+00  0.74505805969E-08  0.10566000000E+00  0.10566000000E+00 0.  1.
     999900   -1    0    0    0    0 -0.00000000000E+00 -0.00000000000E+00 -0.74505805969E-08  0.93827000000E+00  0.93827000000E+00 0. -1.
     999902    2    1    2    0    0  0.36255089802E-02 -0.90342243855E-02 -0.98732323854E-02  0.10300648551E+01  0.10299715353E+01 0.  0.
     999903    2    3    3    0    0  0.77577251557E-01  0.24941429450E-01  0.10397283217E+00  0.13900698284E+00  0.43269927044E-01 0.  0.
         14    1    1    2    0    0 -0.36255089802E-02  0.90342243855E-02  0.98732323854E-02  0.13865144909E-01  0.00000000000E+00 0.  1.
     999901    1    3    3    0    0 -0.73951742577E-01 -0.33975653836E-01 -0.11384606456E+00  0.89105787225E+00  0.88000000000E+00 0. -1.
        -11    1    4    4    0    0  0.32116851790E-01  0.28836436249E-01  0.31780306842E-01  0.53602996637E-01  0.51100000000E-03 0. -1.
         11    1    4    4    0    0  0.45460399767E-01 -0.38950067990E-02  0.72192525331E-01  0.85403986204E-01  0.51100000000E-03 0.  1.
</event>
<event>
 8    1  0.1993226E+004  0.1043930E+01  0.7957747E-01            NaN
         13   -1    0    0    0    0  0.00000000000E+00  0.00000000000E+00  0.74505805969E-08  0.10566000000E+00  0.10566000000E+00 0. -1.
     999900   -1    0    0    0    0 -0.00000000000E+00 -0.00000000000E+00 -0.74505805969E-08  0.93827000000E+00  0.93827000000E+00 0.  1.
     999902    2    1    2    0    0  0.16348928393E-02 -0.10630393571E-01 -0.76621963703E-02  0.10307244180E+01  0.10306398200E+01 0.  0.
     999903    2    3    3    0    0  0.61364972419E-01  0.11212966397E+00  0.32417802770E-01  0.13929628269E+00  0.44875595287E-01 0.  0.
         14    1    1    2    0    0 -0.16348928393E-02  0.10630393571E-01  0.76621963703E-02  0.13205581974E-01  0.00000000000E+00 0. -1.
     999901    1    3    3    0    0 -0.59730079580E-01 -0.12276005754E+00 -0.40079999141E-01  0.89142813533E+00  0.88000000000E+00 0.  1.
        -11    1    4    4    0    0  0.18126167925E-01  0.48855881780E-01  0.34726813117E-01  0.62623221079E-01  0.51100000000E-03 0. -1.
         11    1    4    4    0    0  0.43238804495E-01  0.63273782193E-01 -0.23090103461E-02  0.76673061612E-01  0.51100000000E-03 0.  1.
</event>
<event>
 8    1  0.1993226E+004  0.1043930E+01  0.7957747E-01            NaN
         13   -1    0    0    0    0  0.00000000000E+00  0.00000000000E+00  0.74505805969E-08  0.10566000000E+00  0.10566000000E+00 0. -1.
     999900   -1    0    0    0    0 -0.00000000000E+00 -0.00000000000E+00 -0.74505805969E-08  0.93827000000E+00  0.93827000000E+00 0.  1.
     999902    2    1    2    0    0  0.14371399819E-01  0.37143267836E-02  0.22229189502E-02  0.10289208453E+01  0.10288113681E+01 0.  0.
     999903    2    3    3    0    0 -0.10704895763E+00 -0.47401600479E-01  0.58966940525E-01  0.13730678910E+00  0.40861512478E-01 0.  0.
         14    1    1    2    0    0 -0.14371399819E-01 -0.37143267836E-02 -0.22229189502E-02  0.15009154702E-01  0.00000000000E+00 0.  1.
     999901    1    3    3    0    0  0.12142035744E+00  0.51115927263E-01 -0.56744021575E-01  0.89161405620E+00  0.88000000000E+00 0. -1.
        -11    1    4    4    0    0 -0.51397331950E-01 -0.93407918857E-02  0.43857618579E-01  0.68210614666E-01  0.51100000000E-03 0. -1.
         11    1    4    4    0    0 -0.55651625675E-01 -0.38060808593E-01  0.15109321946E-01  0.69096174436E-01  0.51100000000E-03 0.  1.
</event>
<event>
 8    1  0.1993226E+004  0.1043930E+01  0.7957747E-01            NaN
         13   -1    0    0    0    0  0.00000000000E+00  0.00000000000E+00  0.74505805969E-08  0.10566000000E+00  0.10566000000E+00 0.  1.
     999900   -1    0    0    0    0 -0.00000000000E+00 -0.00000000000E+00 -0.74505805969E-08  0.93827000000E+00  0.93827000000E+00 0.  1.
     999902    2    1    2    0    0 -0.54648366432E-02 -0.27915685601E-02 -0.12188613921E-01  0.10302837696E+01  0.10301933927E+01 0.  0.
     999903    2    3    3    0    0  0.40380898151E-02  0.13209767606E+00  0.67269247285E-02  0.13975403314E+00  0.44942586418E-01 0.  0.
         14    1    1    2    0    0  0.54648366432E-02  0.27915685601E-02  0.12188613921E-01  0.13646230391E-01  0.00000000000E+00 0.  1.
     999901    1    3    3    0    0 -0.95029264582E-02 -0.13488924462E+00 -0.18915538650E-01  0.89052973646E+00  0.88000000000E+00 0. -1.
        -11    1    4    4    0    0 -0.51770687701E-02  0.36337294049E-01 -0.17322056442E-01  0.40589601381E-01  0.51100000000E-03 0. -1.
         11    1    4    4    0    0  0.92151585852E-02  0.95760382011E-01  0.24048981171E-01  0.99164431764E-01  0.51100000000E-03 0.  1.
</event>
<event>
 8    1  0.1993226E+004  0.1043930E+01  0.7957747E-01            NaN
         13   -1    0    0    0    0  0.00000000000E+00  0.00000000000E+00  0.74505805969E-08  0.10566000000E+00  0.10566000000E+00 0.  1.
     999900   -1    0    0    0    0 -0.00000000000E+00 -0.00000000000E+00 -0.74505805969E-08  0.93827000000E+00  0.93827000000E+00 0.  1.
     999902    2    1    2    0    0  0.17682224758E-02  0.13592249220E-01 -0.14660896075E-02  0.10301450347E+01  0.10300527983E+01 0.  0.
     999903    2    3    3    0    0 -0.42534966339E-01 -0.65090105935E-01 -0.10837518246E+00  0.13908766299E+00  0.39424010065E-01 0.  0.
         14    1    1    2    0    0 -0.17682224758E-02 -0.13592249220E-01  0.14660896075E-02  0.13784965300E-01  0.00000000000E+00 0.  1.
     999901    1    3    3    0    0  0.44303188814E-01  0.78682355156E-01  0.10690909285E+00  0.89105737171E+00  0.88000000000E+00 0. -1.
        -11    1    4    4    0    0 -0.21915667301E-01 -0.61780014956E-01 -0.89457102549E-01  0.11090491891E+00  0.51100000000E-03 0. -1.
         11    1    4    4    0    0 -0.20619299037E-01 -0.33100909798E-02 -0.18918079910E-01  0.28182744075E-01  0.51100000000E-03 0.  1.
</event>
<event>
 8    1  0.1993226E+004  0.1043930E+01  0.7957747E-01            NaN
         13   -1    0    0    0    0  0.00000000000E+00  0.00000000000E+00  0.74505805969E-08  0.10566000000E+00  0.10566000000E+00 0. -1.
     999900   -1    0    0    0    0 -0.00000000000E+00 -0.00000000000E+00 -0.74505805969E-08  0.93827000000E+00  0.93827000000E+00 0.  1.
     999902    2    1    2    0    0 -0.41343324397E-02 -0.25999793704E-01  0.18621813617E-02  0.10175377720E+01  0.10171954423E+01 0.  0.
     999903    2    3    3    0    0  0.25184046681E-02  0.45168639122E-01 -0.11044604055E+00  0.12752522075E+00  0.44919992563E-01 0.  0.
         14    1    1    2    0    0  0.41343324397E-02  0.25999793704E-01 -0.18621813617E-02  0.26392227962E-01  0.00000000000E+00 0. -1.
     999901    1    3    3    0    0 -0.66527371078E-02 -0.71168432826E-01  0.11230822191E+00  0.89001255129E+00  0.88000000000E+00 0. -1.
        -11    1    4    4    0    0  0.51554152135E-02 -0.74950402589E-02 -0.29863180586E-01  0.31222181382E-01  0.51100000000E-03 0. -1.
         11    1    4    4    0    0 -0.26370105454E-02  0.52663679381E-01 -0.80582859964E-01  0.96303039368E-01  0.51100000000E-03 0.  1.
</event>
<event>
 8    1  0.1993226E+004  0.1043930E+01  0.7957747E-01            NaN
         13   -1    0    0    0    0  0.00000000000E+00  0.00000000000E+00  0.74505805969E-08  0.10566000000E+00  0.10566000000E+00 0. -1.
     999900   -1    0    0    0    0 -0.00000000000E+00 -0.00000000000E+00 -0.74505805969E-08  0.93827000000E+00  0.93827000000E+00 0.  1.
     999902    2    1    2    0    0  0.34602117106E-02  0.11801782881E-01  0.61127920972E-02  0.10301960504E+01  0.10301045000E+01 0.  0.
     999903    2    3    3    0    0  0.26973992421E-01 -0.90961644569E-01 -0.90048540646E-01  0.13870279647E+00  0.46131432074E-01 0.  0.
         14    1    1    2    0    0 -0.34602117106E-02 -0.11801782881E-01 -0.61127920972E-02  0.13733949595E-01  0.00000000000E+00 0.  1.
     999901    1    3    3    0    0 -0.23513780711E-01  0.10276342745E+00  0.96161332744E-01  0.89149325394E+00  0.88000000000E+00 0. -1.
        -11    1    4    4    0    0  0.12461343350E-01 -0.50969338373E-01 -0.18842350176E-01  0.55753509427E-01  0.51100000000E-03 0.  1.
         11    1    4    4    0    0  0.14512649072E-01 -0.39992306195E-01 -0.71206190471E-01  0.82949287039E-01  0.51100000000E-03 0. -1.
</event>
<event>
 8    1  0.1993226E+004  0.1043930E+01  0.7957747E-01            NaN
         13   -1    0    0    0    0  0.00000000000E+00  0.00000000000E+00  0.74505805969E-08  0.10566000000E+00  0.10566000000E+00 0. -1.
     999900   -1    0    0    0    0 -0.00000000000E+00 -0.00000000000E+00 -0.74505805969E-08  0.93827000000E+00  0.93827000000E+00 0. -1.
     999902    2    1    2    0    0  0.52026355297E-02 -0.33155262707E-02  0.13457452813E-01  0.10291258395E+01  0.10290193538E+01 0.  0.
     999903    2    3    3    0    0 -0.27276638742E-01  0.80728389549E-01 -0.98397597639E-01  0.13748138385E+00  0.44248794145E-01 0.  0.
         14    1    1    2    0    0 -0.52026355297E-02  0.33155262707E-02 -0.13457452813E-01  0.14804160466E-01  0.00000000000E+00 0.  1.
     999901    1    3    3    0    0  0.32479274271E-01 -0.84043915820E-01  0.11185505045E+00  0.89164445569E+00  0.88000000000E+00 0.  1.
        -11    1    4    4    0    0 -0.21698577068E-01  0.38884263788E-01 -0.20815518911E-01  0.49156496678E-01  0.51100000000E-03 0. -1.
         11    1    4    4    0    0 -0.55780616738E-02  0.41844125761E-01 -0.77582078728E-01  0.88324887170E-01  0.51100000000E-03 0.  1.
</event>
<event>
 8    1  0.1993226E+004  0.1043930E+01  0.7957747E-01            NaN
         13   -1    0    0    0    0  0.00000000000E+00  0.00000000000E+00  0.74505805969E-08  0.10566000000E+00  0.10566000000E+00 0. -1.
     999900   -1    0    0    0    0 -0.00000000000E+00 -0.00000000000E+00 -0.74505805969E-08  0.93827000000E+00  0.93827000000E+00 0.  1.
     999902    2    1    2    0    0 -0.25526187568E-02  0.15110911805E-02  0.13779501244E-01  0.10298348266E+01  0.10297383630E+01 0.  0.
     999903    2    3    3    0    0 -0.61649490464E-01 -0.78918195825E-01  0.87746216574E-01  0.14110968042E+00  0.46731168161E-01 0.  0.
         14    1    1    2    0    0  0.25526187568E-02 -0.15110911805E-02 -0.13779501244E-01  0.14095173415E-01  0.00000000000E+00 0.  1.
     999901    1    3    3    0    0  0.59096871708E-01  0.80429287005E-01 -0.73966715330E-01  0.88872514617E+00  0.88000000000E+00 0.  1.
        -11    1    4    4    0    0 -0.69126937726E-01 -0.72498311172E-01  0.75834197136E-01  0.12564085808E+00  0.51100000000E-03 0.  1.
         11    1    4    4    0    0  0.74774472613E-02 -0.64198846532E-02  0.11912019438E-01  0.15468822340E-01  0.51100000000E-03 0. -1.
</event>
<event>
 8    1  0.1993226E+004  0.1043930E+01  0.7957747E-01            NaN
         13   -1    0    0    0    0  0.00000000000E+00  0.00000000000E+00  0.74505805969E-08  0.10566000000E+00  0.10566000000E+00 0. -1.
     999900   -1    0    0    0    0 -0.00000000000E+00 -0.00000000000E+00 -0.74505805969E-08  0.93827000000E+00  0.93827000000E+00 0.  1.
     999902    2    1    2    0    0 -0.83464220925E-02  0.90127507653E-02  0.61054809366E-02  0.10302125172E+01  0.10301211876E+01 0.  0.
     999903    2    3    3    0    0 -0.38970858608E-01  0.12938890641E+00  0.18098322439E-03  0.14146993652E+00  0.41874732983E-01 0.  0.
         14    1    1    2    0    0  0.83464220925E-02 -0.90127507653E-02 -0.61054809366E-02  0.13717482844E-01  0.00000000000E+00 0.  1.
     999901    1    3    3    0    0  0.30624436516E-01 -0.12037615564E+00  0.59244977122E-02  0.88874258063E+00  0.88000000000E+00 0. -1.
        -11    1    4    4    0    0 -0.23573094311E-01  0.21669798664E-01  0.56446929563E-02  0.32517604910E-01  0.51100000000E-03 0.  1.
         11    1    4    4    0    0 -0.15397764298E-01  0.10771910774E+00 -0.54637097319E-02  0.10895233161E+00  0.51100000000E-03 0. -1.
</event>
<event>
 8    1  0.1993226E+004  0.1043930E+01  0.7957747E-01            NaN
         13   -1    0    0    0    0  0.00000000000E+00  0.00000000000E+00  0.74505805969E-08  0.10566000000E+00  0.10566000000E+00 0. -1.
     999900   -1    0    0    0    0 -0.00000000000E+00 -0.00000000000E+00 -0.74505805969E-08  0.93827000000E+00  0.93827000000E+00 0. -1.
     999902    2    1    2    0    0  0.41968172577E-02  0.63495187866E-03 -0.14097001161E-01  0.10292078439E+01  0.10291025430E+01 0.  0.
     999903    2    3    3    0    0  0.86505789982E-01 -0.47153083360E-01 -0.87966868874E-01  0.14099884784E+00  0.49354230831E-01 0.  0.
         14    1    1    2    0    0 -0.41968172577E-02 -0.63495187866E-03  0.14097001161E-01  0.14722156116E-01  0.00000000000E+00 0. -1.
     999901    1    3    3    0    0 -0.82308972725E-01  0.47788035239E-01  0.73869867713E-01  0.88820899605E+00  0.88000000000E+00 0.  1.
        -11    1    4    4    0    0  0.70616614425E-01 -0.46688363959E-01 -0.46500476683E-01  0.96587085134E-01  0.51100000000E-03 0. -1.
         11    1    4    4    0    0  0.15889175557E-01 -0.46471940154E-03 -0.41466392191E-01  0.44411762702E-01  0.51100000000E-03 0.  1.
</event>
<event>
 8    1  0.1993226E+004  0.1043930E+01  0.7957747E-01            NaN
         13   -1    0    0    0    0  0.00000000000E+00  0.00000000000E+00  0.74505805969E-08  0.10566000000E+00  0.10566000000E+00 0.  1.
     999900   -1    0    0    0    0 -0.00000000000E+00 -0.00000000000E+00 -0.74505805969E-08  0.93827000000E+00  0.93827000000E+00 0. -1.
     999902    2    1    2    0    0 -0.12090969478E-01 -0.71270259577E-02 -0.28328792026E-02  0.10296117862E+01  0.10295122238E+01 0.  0.
     999903    2    3    3    0    0 -0.10182962683E+00  0.62604215974E-01  0.58729034754E-01  0.14017075837E+00  0.43705620021E-01 0.  0.
         14    1    1    2    0    0  0.12090969478E-01  0.71270259577E-02  0.28328792026E-02  0.14318213802E-01  0.00000000000E+00 0.  1.
     999901    1    3    3    0    0  0.89738657356E-01 -0.69731241932E-01 -0.61561913956E-01  0.88944102782E+00  0.88000000000E+00 0. -1.
        -11    1    4    4    0    0 -0.59213030624E-01  0.41803192116E-01  0.57847470000E-01  0.92737698770E-01  0.51100000000E-03 0. -1.
         11    1    4    4    0    0 -0.42616596210E-01  0.20801023859E-01  0.88156475387E-03  0.47433059605E-01  0.51100000000E-03 0.  1.
</event>
<event>
 8    1  0.1993226E+004  0.1043930E+01  0.7957747E-01            NaN
         13   -1    0    0    0    0  0.00000000000E+00  0.00000000000E+00  0.74505805969E-08  0.10566000000E+00  0.10566000000E+00 0.  1.
     999900   -1    0    0    0    0 -0.00000000000E+00 -0.00000000000E+00 -0.74505805969E-08  0.93827000000E+00  0.93827000000E+00 0.  1.
     999902    2    1    2    0    0  0.95739537311E-02  0.32694402318E-02  0.48572575901E-02  0.10327075769E+01  0.10326465981E+01 0.  0.
     999903    2    3    3    0    0 -0.46159230539E-01  0.28411942200E-02 -0.12632365926E+00  0.14123979610E+00  0.43037961893E-01 0.  0.
         14    1    1    2    0    0 -0.95739537311E-02 -0.32694402318E-02 -0.48572575901E-02  0.11222423124E-01  0.00000000000E+00 0. -1.
     999901    1    3    3    0    0  0.55733184270E-01  0.42824601178E-03  0.13118091685E+00  0.89146778078E+00  0.88000000000E+00 0. -1.
        -11    1    4    4    0    0 -0.43871332108E-01 -0.81768013992E-02 -0.64728814044E-01  0.78623370257E-01  0.51100000000E-03 0.  1.
         11    1    4    4    0    0 -0.22878984311E-02  0.11017995619E-01 -0.61594845216E-01  0.62616425839E-01  0.51100000000E-03 0. -1.
</event>
<event>
 8    1  0.1993226E+004  0.1043930E+01  0.7957747E-01            NaN
         13   -1    0    0    0    0  0.00000000000E+00  0.00000000000E+00  0.74505805969E-08  0.10566000000E+00  0.10566000000E+00 0.  1.
     999900   -1    0    0    0    0 -0.00000000000E+00 -0.00000000000E+00 -0.74505805969E-08  0.93827000000E+00  0.93827000000E+00 0. -1.
     999902    2    1    2    0    0 -0.84877837760E-02  0.10911508555E-02 -0.11869188912E-01  0.10292974770E+01  0.10291934636E+01 0.  0.
     999903    2    3    3    0    0 -0.41141299621E-01 -0.25334842608E-01 -0.12424005360E+00  0.14115796294E+00  0.46427565068E-01 0.  0.
         14    1    1    2    0    0  0.84877837760E-02 -0.10911508555E-02  0.11869188912E-01  0.14632522990E-01  0.00000000000E+00 0.  1.
     999901    1    3    3    0    0  0.32653515846E-01  0.26425993463E-01  0.11237086468E+00  0.88813951407E+00  0.88000000000E+00 0.  1.
        -11    1    4    4    0    0 -0.12651946332E-01 -0.22919070699E-01 -0.10091123739E+00  0.10425303114E+00  0.51100000000E-03 0. -1.
         11    1    4    4    0    0 -0.28489353290E-01 -0.24157719092E-02 -0.23328816203E-01  0.36904931801E-01  0.51100000000E-03 0.  1.
</event>
<event>
 8    1  0.1993226E+004  0.1043930E+01  0.7957747E-01            NaN
         13   -1    0    0    0    0  0.00000000000E+00  0.00000000000E+00  0.74505805969E-08  0.10566000000E+00  0.10566000000E+00 0.  1.
     999900   -1    0    0    0    0 -0.00000000000E+00 -0.00000000000E+00 -0.74505805969E-08  0.93827000000E+00  0.93827000000E+00 0.  1.
     999902    2    1    2    0    0  0.12809760171E-01  0.31829711317E-02 -0.68358282647E-02  0.10290656195E+01  0.10289582593E+01 0.  0.
     999903    2    3    3    0    0 -0.10604832440E+00  0.59183587365E-01  0.47674386898E-01  0.13764278104E+00  0.43860504862E-01 0.  0.
         14    1    1    2    0    0 -0.12809760171E-01 -0.31829711317E-02  0.68358282647E-02  0.14864380543E-01  0.00000000000E+00 0.  1.
     999901    1    3    3    0    0  0.11885808457E+00 -0.56000616233E-01 -0.54510215163E-01  0.89142283841E+00  0.88000000000E+00 0.  1.
        -11    1    4    4    0    0 -0.92654955382E-02 -0.71217236676E-02  0.59669328784E-02  0.13131403754E-01  0.51100000000E-03 0.  1.
         11    1    4    4    0    0 -0.96782828860E-01  0.66305311032E-01  0.41707454020E-01  0.12451137729E+00  0.51100000000E-03 0. -1.
</event>
<event>
 8    1  0.1993226E+004  0.1043930E+01  0.7957747E-01            NaN
         13   -1    0    0    0    0  0.00000000000E+00  0.00000000000E+00  0.74505805969E-08  0.10566000000E+00  0.10566000000E+00 0.  1.
     999900   -1    0    0    0    0 -0.00000000000E+00 -0.00000000000E+00 -0.74505805969E-08  0.93827000000E+00  0.93827000000E+00 0. -1.
     999902    2    1    2    0    0  0.43985499824E-02 -0.12666216577E-01 -0.37042553405E-02  0.10300195078E+01  0.10299255724E+01 0.  0.
     999903    2    3    3    0    0 -0.23738603330E-01 -0.13227885862E+00 -0.37383538159E-02  0.14148201022E+00  0.44067745554E-01 0.  0.
         14    1    1    2    0    0 -0.43985499824E-02  0.12666216577E-01  0.37042553405E-02  0.13910492153E-01  0.00000000000E+00 0.  1.
     999901    1    3    3    0    0  0.28137153313E-01  0.11961264205E+00  0.34098475424E-04  0.88853749763E+00  0.88000000000E+00 0. -1.
        -11    1    4    4    0    0 -0.33930608478E-01 -0.10029059408E+00  0.73263525988E-02  0.10612928915E+00  0.51100000000E-03 0.  1.
         11    1    4    4    0    0  0.10192005148E-01 -0.31988264546E-01 -0.11064706415E-01  0.35352721064E-01  0.51100000000E-03 0. -1.
</event>
<event>
 8    1  0.1993226E+004  0.1043930E+01  0.7957747E-01            NaN
         13   -1    0    0    0    0  0.00000000000E+00  0.00000000000E+00  0.74505805969E-08  0.10566000000E+00  0.10566000000E+00 0. -1.
     999900   -1    0    0    0    0 -0.00000000000E+00 -0.00000000000E+00 -0.74505805969E-08  0.93827000000E+00  0.93827000000E+00 0. -1.
     999902    2    1    2    0    0 -0.12550205140E-01  0.79571031919E-02 -0.80743990853E-04  0.10290696615E+01  0.10289623601E+01 0.  0.
     999903    2    3    3    0    0  0.17443842580E-01  0.12852803610E+00  0.27288091309E-01  0.13992060432E+00  0.44826240964E-01 0.  0.
         14    1    1    2    0    0  0.12550205140E-01 -0.79571031919E-02  0.80743990853E-04  0.14860338484E-01  0.00000000000E+00 0.  1.
     999901    1    3    3    0    0 -0.29994047720E-01 -0.12057093291E+00 -0.27368835300E-01  0.88914905719E+00  0.88000000000E+00 0. -1.
        -11    1    4    4    0    0  0.27632423537E-01  0.69153709116E-01  0.17649333405E-02  0.74492700486E-01  0.51100000000E-03 0. -1.
         11    1    4    4    0    0 -0.10188580957E-01  0.59374326985E-01  0.25523157968E-01  0.65427903837E-01  0.51100000000E-03 0.  1.
</event>
<event>
 7    1  0.1993226E+004  0.1043930E+01  0.7957747E-01            NaN
         13   -1    0    0    0    0  0.00000000000E+00  0.00000000000E+00  0.74505805969E-08  0.10566000000E+00  0.10566000000E+00 0.  1.
     999900   -1    0    0    0    0 -0.00000000000E+00 -0.00000000000E+00 -0.74505805969E-08  0.93827000000E+00  0.93827000000E+00 0. -1.
     999902    2    1    2    0    0  0.96768273483E-02 -0.79603052449E-02  0.51801610304E-02  0.10303711831E+01  0.10302819679E+01 0.  0.
         14    1    1    2    0    0 -0.96768273483E-02  0.79603052449E-02 -0.51801610304E-02  0.13558816889E-01  0.00000000000E+00 0. -1.
     999901    1    3    3    0    0  0.84521227358E-01 -0.60798735695E-01  0.90240394837E-01  0.89072086144E+00  0.88000000000E+00 0.  1.
        -11    1    3    3    0    0 -0.48022930181E-01 -0.10871831211E-02 -0.23324423479E-01  0.53401064052E-01  0.51100000000E-03 0.  1.
         11    1    3    3    0    0 -0.26821469829E-01  0.53925613571E-01 -0.61735810328E-01  0.86249257624E-01  0.51100000000E-03 0. -1.
</event>
<event>
 8    1  0.1993226E+004  0.1043930E+01  0.7957747E-01            NaN
         13   -1    0    0    0    0  0.00000000000E+00  0.00000000000E+00  0.74505805969E-08  0.10566000000E+00  0.10566000000E+00 0.  1.
     999900   -1    0    0    0    0 -0.00000000000E+00 -0.00000000000E+00 -0.74505805969E-08  0.93827000000E+00  0.93827000000E+00 0.  1.
     999902    2    1    2    0    0 -0.55646092217E-02 -0.52347575170E-03 -0.12295019656E-01  0.10304242082E+01  0.10303356941E+01 0.  0.
     999903    2    3    3    0    0  0.12516339075E+00 -0.37818190993E-01 -0.21029004671E-01  0.13994288432E+00  0.45229435996E-01 0.  0.
         14    1    1    2    0    0  0.55646092217E-02  0.52347575170E-03  0.12295019656E-01  0.13505791757E-01  0.00000000000E+00 0.  1.
     999901    1    3    3    0    0 -0.13072799997E+00  0.37294715241E-01  0.87339850154E-02  0.89048132392E+00  0.88000000000E+00 0. -1.
        -11    1    4    4    0    0  0.31039931314E-01 -0.42119620156E-02 -0.24755902598E-01  0.39929109612E-01  0.51100000000E-03 0. -1.
         11    1    4    4    0    0  0.94123459435E-01 -0.33606228977E-01  0.37268979267E-02  0.10001377471E+00  0.51100000000E-03 0.  1.
</event>
<event>
 8    1  0.1993226E+004  0.1043930E+01  0.7957747E-01            NaN
         13   -1    0    0    0    0  0.00000000000E+00  0.00000000000E+00  0.74505805969E-08  0.10566000000E+00  0.10566000000E+00 0. -1.
     999900   -1    0    0    0    0 -0.00000000000E+00 -0.00000000000E+00 -0.74505805969E-08  0.93827000000E+00  0.93827000000E+00 0. -1.
     999902    2    1    2    0    0  0.14379452784E-02 -0.84707303223E-02  0.60796620834E-02  0.10334046378E+01  0.10333510353E+01 0.  0.
     999903    2    3    3    0    0  0.13345964647E+00 -0.27372631239E-01 -0.12907439484E-02  0.14332524001E+00  0.44494047098E-01 0.  0.
         14    1    1    2    0    0 -0.14379452784E-02  0.84707303223E-02 -0.60796620834E-02  0.10525362220E-01  0.00000000000E+00 0.  1.
     999901    1    3    3    0    0 -0.13202170119E+00  0.18901900917E-01  0.73704060319E-02  0.89007939777E+00  0.88000000000E+00 0. -1.
        -11    1    4    4    0    0  0.76577600269E-01  0.67564211191E-02  0.20486098430E-02  0.76904070195E-01  0.51100000000E-03 0.  1.
         11    1    4    4    0    0  0.56882046204E-01 -0.34129052358E-01 -0.33393537914E-02  0.66421169817E-01  0.51100000000E-03 0. -1.
</event>
<event>
 8    1  0.1993226E+004  0.1043930E+01  0.7957747E-01            NaN
         13   -1    0    0    0    0  0.00000000000E+00  0.00000000000E+00  0.74505805969E-08  0.10566000000E+00  0.10566000000E+00 0.  1.
     999900   -1    0    0    0    0 -0.00000000000E+00 -0.00000000000E+00 -0.74505805969E-08  0.93827000000E+00  0.93827000000E+00 0. -1.
     999902    2    1    2    0    0  0.11735575424E-01 -0.61159312657E-02 -0.63347866257E-03  0.10306812400E+01  0.10305960843E+01 0.  0.
     999903    2    3    3    0    0 -0.40424311131E-01 -0.11665106814E+00  0.50625464163E-01  0.14075644012E+00  0.44808940907E-01 0.  0.
         14    1    1    2    0    0 -0.11735575424E-01  0.61159312657E-02  0.63347866257E-03  0.13248759979E-01  0.00000000000E+00 0.  1.
     999901    1    3    3    0    0  0.52159886555E-01  0.11053513688E+00 -0.51258942825E-01  0.88992479990E+00  0.88000000000E+00 0. -1.
        -11    1    4    4    0    0 -0.10201601821E-01 -0.90960840132E-01  0.38230782042E-01  0.99195770746E-01  0.51100000000E-03 0.  1.
         11    1    4    4    0    0 -0.30222709310E-01 -0.25690228012E-01  0.12394682120E-01  0.41560669379E-01  0.51100000000E-03 0. -1.
</event>
<event>
 8    1  0.1993226E+004  0.1043930E+01  0.7957747E-01            NaN
         13   -1    0    0    0    0  0.00000000000E+00  0.00000000000E+00  0.74505805969E-08  0.10566000000E+00  0.10566000000E+00 0. -1.
     999900   -1    0    0    0    0 -0.00000000000E+00 -0.00000000000E+00 -0.74505805969E-08  0.93827000000E+00  0.93827000000E+00 0.  1.
     999902    2    1    2    0    0  0.88922710761E-02 -0.45669265531E-02  0.99160166171E-02  0.10298496346E+01  0.10297533750E+01 0.  0.
     999903    2    3    3    0    0  0.12952025105E+00  0.30050881476E-01 -0.10236431382E-01  0.14071768530E+00  0.44923618724E-01 0.  0.
         14    1    1    2    0    0 -0.88922710761E-02  0.45669265531E-02 -0.99160166171E-02  0.14080365357E-01  0.00000000000E+00 0.  1.
     999901    1    3    3    0    0 -0.12062797997E+00 -0.34617808029E-01  0.20152447999E-01  0.88913194934E+00  0.88000000000E+00 0. -1.
        -11    1    4    4    0    0  0.11070216764E+00  0.15700676060E-01  0.60667695085E-02  0.11197565790E+00  0.51100000000E-03 0. -1.
         11    1    4    4    0    0  0.18818083406E-01  0.14350205416E-01 -0.16303200890E-01  0.28742027396E-01  0.51100000000E-03 0.  1.
</event>
<event>
 8    1  0.1993226E+004  0.1043930E+01  0.7957747E-01            NaN
         13   -1    0    0    0    0  0.00000000000E+00  0.00000000000E+00  0.74505805969E-08  0.10566000000E+00  0.10566000000E+00 0. -1.
     999900   -1    0    0    0    0 -0.00000000000E+00 -0.00000000000E+00 -0.74505805969E-08  0.93827000000E+00  0.93827000000E+00 0. -1.
     999902    2    1    2    0    0  0.11417773776E-01 -0.20111966338E-02  0.79112166829E-02  0.10298944088E+01  0.10297987646E+01 0.  0.
     999903    2    3    3    0    0 -0.11621378056E+00  0.51793981012E-01 -0.29885583966E-01  0.13825916450E+00  0.45101986410E-01 0.  0.
         14    1    1    2    0    0 -0.11417773776E-01  0.20111966338E-02 -0.79112166829E-02  0.14035591163E-01  0.00000000000E+00 0.  1.
     999901    1    3    3    0    0  0.12763155434E+00 -0.53805177646E-01  0.37796800648E-01  0.89163524434E+00  0.88000000000E+00 0.  1.
        -11    1    4    4    0    0 -0.10409405011E+00  0.31969317966E-01 -0.13292242088E-01  0.10970211201E+00  0.51100000000E-03 0. -1.
         11    1    4    4    0    0 -0.12119730451E-01  0.19824663046E-01 -0.16593341878E-01  0.28557052488E-01  0.51100000000E-03 0.  1.
</event>
<event>
 8    1  0.1993226E+004  0.1043930E+01  0.7957747E-01            NaN
         13   -1    0    0    0    0  0.00000000000E+00  0.00000000000E+00  0.74505805969E-08  0.10566000000E+00  0.10566000000E+00 0. -1.
     999900   -1    0    0    0    0 -0.00000000000E+00 -0.00000000000E+00 -0.74505805969E-08  0.93827000000E+00  0.93827000000E+00 0. -1.
     999902    2    1    2    0    0  0.13856624477E-01  0.38994516099E-02  0.92684961347E-02  0.10268093462E+01  0.10266666045E+01 0.  0.
     999903    2    3    3    0    0  0.11484860000E+00  0.56223006903E-01  0.31526747378E-01  0.13921002035E+00  0.45102844026E-01 0.  0.
         14    1    1    2    0    0 -0.13856624477E-01 -0.38994516099E-02 -0.92684961347E-02  0.17120653765E-01  0.00000000000E+00 0. -1.
     999901    1    3    3    0    0 -0.10099197552E+00 -0.52323555293E-01 -0.22258251243E-01  0.88759932588E+00  0.88000000000E+00 0. -1.
        -11    1    4    4    0    0  0.83867964424E-01  0.59870994956E-01  0.32334505767E-01  0.10800070777E+00  0.51100000000E-03 0.  1.
         11    1    4    4    0    0  0.30980635576E-01 -0.36479880537E-02 -0.80775838887E-03  0.31209312587E-01  0.51100000000E-03 0. -1.
</event>
<event>
 7    1  0.1993226E+004  0.1043930E+01  0.7957747E-01            NaN
         13   -1    0    0    0    0  0.00000000000E+00  0.00000000000E+00  0.74505805969E-08  0.10566000000E+00  0.10566000000E+00 0. -1.
     999900   -1    0    0    0    0 -0.00000000000E+00 -0.00000000000E+00 -0.74505805969E-08  0.93827000000E+00  0.93827000000E+00 0. -1.
     999903    2    1    2    0    0  0.26427366791E-01 -0.46262193903E-01  0.48111988348E-01  0.84837039303E-01  0.45210214716E-01 0.  0.
         14    1    1    2    0    0  0.29229258224E-02 -0.81260932022E-02  0.68686285145E-01  0.69227037009E-01  0.00000000000E+00 0. -1.
     999901    1    1    2    0    0 -0.29350292614E-01  0.54388287105E-01 -0.11679827349E+00  0.88986592369E+00  0.88000000000E+00 0. -1.
        -11    1    3    3    0    0  0.28384881965E-01 -0.34957583322E-01  0.11517388453E-01  0.46482744257E-01  0.51100000000E-03 0. -1.
         11    1    3    3    0    0 -0.19575151735E-02 -0.11304610581E-01  0.36594599894E-01  0.38354295046E-01  0.51100000000E-03 0.  1.
</event>
<event>
 8    1  0.1993226E+004  0.1043930E+01  0.7957747E-01            NaN
         13   -1    0    0    0    0  0.00000000000E+00  0.00000000000E+00  0.74505805969E-08  0.10566000000E+00  0.10566000000E+00 0.  1.
     999900   -1    0    0    0    0 -0.00000000000E+00 -0.00000000000E+00 -0.74505805969E-08  0.93827000000E+00  0.93827000000E+00 0.  1.
     999902    2    1    2    0    0 -0.35681078105E-02 -0.28744402411E-02 -0.12844623074E-01  0.10302926197E+01  0.10302023607E+01 0.  0.
     999903    2    3    3    0    0  0.11964790029E+00  0.49407919768E-01 -0.28275639583E-01  0.14003774264E+00  0.45324331105E-01 0.  0.
         14    1    1    2    0    0  0.35681078105E-02  0.28744402411E-02  0.12844623074E-01  0.13637380319E-01  0.00000000000E+00 0.  1.
     999901    1    3    3    0    0 -0.12321600810E+00 -0.52282360009E-01  0.15431016509E-01  0.89025487704E+00  0.88000000000E+00 0. -1.
        -11    1    4    4    0    0  0.82540848699E-01  0.20690138737E-01 -0.36151662741E-01  0.92456894739E-01  0.51100000000E-03 0.  1.
         11    1    4    4    0    0  0.37107051594E-01  0.28717781031E-01  0.78760231576E-02  0.47580847903E-01  0.51100000000E-03 0. -1.
</event>
<event>
 8    1  0.1993226E+004  0.1043930E+01  0.7957747E-01            NaN
         13   -1    0    0    0    0  0.00000000000E+00  0.00000000000E+00  0.74505805969E-08  0.10566000000E+00  0.10566000000E+00 0. -1.
     999900   -1    0    0    0    0 -0.00000000000E+00 -0.00000000000E+00 -0.74505805969E-08  0.93827000000E+00  0.93827000000E+00 0.  1.
     999902    2    1    2    0    0  0.71388089918E-02 -0.94005424476E-02  0.67930586322E-02  0.10303109531E+01  0.10302209383E+01 0.  0.
     999903    2    3    3    0    0 -0.47082606491E-01  0.62312277949E-01 -0.10541827768E+00  0.13864169017E+00  0.44820901010E-01 0.  0.
         14    1    1    2    0    0 -0.71388089918E-02  0.94005424476E-02 -0.67930586322E-02  0.13619046872E-01  0.00000000000E+00 0. -1.
     999901    1    3    3    0    0  0.54221415482E-01 -0.71712820397E-01  0.11221133631E+00  0.89166926296E+00  0.88000000000E+00 0. -1.
        -11    1    4    4    0    0 -0.55391433709E-01  0.47693563657E-01 -0.82721873881E-01  0.11039047279E+00  0.51100000000E-03 0.  1.
         11    1    4    4    0    0  0.83088272189E-02  0.14618714292E-01 -0.22696403798E-01  0.28251217384E-01  0.51100000000E-03 0. -1.
</event>
<event>
 8    1  0.1993226E+004  0.1043930E+01  0.7957747E-01            NaN
         13   -1    0    0    0    0  0.00000000000E+00  0.00000000000E+00  0.74505805969E-08  0.10566000000E+00  0.10566000000E+00 0.  1.
     999900   -1    0    0    0    0 -0.00000000000E+00 -0.00000000000E+00 -0.74505805969E-08  0.93827000000E+00  0.93827000000E+00 0.  1.
     999902    2    1    2    0    0  0.11656363140E-01  0.64513753145E-02 -0.17433581703E-02  0.10304938420E+01  0.10304062441E+01 0.  0.
     999903    2    3    3    0    0  0.77350463329E-03 -0.13114548150E+00  0.16823338117E-01  0.13954151225E+00  0.44599028116E-01 0.  0.
         14    1    1    2    0    0 -0.11656363140E-01 -0.64513753145E-02  0.17433581703E-02  0.13436158038E-01  0.00000000000E+00 0.  1.
     999901    1    3    3    0    0  0.10882858507E-01  0.13759685681E+00 -0.18566696287E-01  0.89095232971E+00  0.88000000000E+00 0.  1.
        -11    1    4    4    0    0  0.19267312843E-01 -0.10266930843E+00  0.10380406952E-01  0.10497728424E+00  0.51100000000E-03 0.  1.
         11    1    4    4    0    0 -0.18493808210E-01 -0.28476173069E-01  0.64429311647E-02  0.34564228007E-01  0.51100000000E-03 0. -1.
</event>
<event>
 8    1  0.1993226E+004  0.1043930E+01  0.7957747E-01            NaN
         13   -1    0    0    0    0  0.00000000000E+00  0.00000000000E+00  0.74505805969E-08  0.10566000000E+00  0.10566000000E+00 0.  1.
     999900   -1    0    0    0    0 -0.00000000000E+00 -0.00000000000E+00 -0.74505805969E-08  0.93827000000E+00  0.93827000000E+00 0. -1.
     999902    2    1    2    0    0  0.13836779774E-01  0.20730962761E-02 -0.31644082965E-02  0.10295853954E+01  0.10294854631E+01 0.  0.
     999903    2    3    3    0    0 -0.61780819852E-01  0.80137222622E-01  0.83473265141E-01  0.13867680540E+00  0.44995846594E-01 0.  0.
         14    1    1    2    0    0 -0.13836779774E-01 -0.20730962761E-02  0.31644082965E-02  0.14344604649E-01  0.00000000000E+00 0. -1.
     999901    1    3    3    0    0  0.75617599625E-01 -0.78064126346E-01 -0.86637673437E-01  0.89090858995E+00  0.88000000000E+00 0.  1.
        -11    1    4    4    0    0 -0.17709264463E-01  0.39714809465E-01  0.60728911665E-01  0.74693680936E-01  0.51100000000E-03 0.  1.
         11    1    4    4    0    0 -0.44071555389E-01  0.40422413157E-01  0.22744353476E-01  0.63983124461E-01  0.51100000000E-03 0. -1.
</event>
<event>
 8    1  0.1993226E+004  0.1043930E+01  0.7957747E-01            NaN
         13   -1    0    0    0    0  0.00000000000E+00  0.00000000000E+00  0.74505805969E-08  0.10566000000E+00  0.10566000000E+00 0. -1.
     999900   -1    0    0    0    0 -0.00000000000E+00 -0.00000000000E+00 -0.74505805969E-08  0.93827000000E+00  0.93827000000E+00 0. -1.
     999902    2    1    2    0    0  0.24677334089E-02  0.48943645115E-02 -0.12934323013E-01  0.10298821808E+01  0.10297863687E+01 0.  0.
     999903    2    3    3    0    0  0.11066267091E+00  0.88589941205E-03  0.70572468370E-01  0.13932303258E+00  0.46727107396E-01 0.  0.
         14    1    1    2    0    0 -0.24677334089E-02 -0.48943645115E-02  0.12934323013E-01  0.14047819188E-01  0.00000000000E+00 0. -1.
     999901    1    3    3    0    0 -0.10819493750E+00  0.40084650995E-02 -0.83506791382E-01  0.89055914823E+00  0.88000000000E+00 0.  1.
        -11    1    4    4    0    0  0.94692031148E-01 -0.12861415709E-01  0.43461090650E-01  0.10498154266E+00  0.51100000000E-03 0. -1.
         11    1    4    4    0    0  0.15970639758E-01  0.13747315121E-01  0.27111377720E-01  0.34341489924E-01  0.51100000000E-03 0.  1.
</event>
<event>
 8    1  0.1993226E+004  0.1043930E+01  0.7957747E-01            NaN
         13   -1    0    0    0    0  0.00000000000E+00  0.00000000000E+00  0.74505805969E-08  0.10566000000E+00  0.10566000000E+00 0.  1.
     999900   -1    0    0    0    0 -0.00000000000E+00 -0.00000000000E+00 -0.74505805969E-08  0.93827000000E+00  0.93827000000E+00 0. -1.
     999902    2    1    2    0    0 -0.12407291036E-01  0.22817368131E-02 -0.31445317328E-02  0.10309286434E+01  0.10308466581E+01 0.  0.
     999903    2    3    3    0    0  0.14630724603E-02 -0.29711547063E-01  0.13012338349E+00  0.14021191265E+00  0.42922825034E-01 0.  0.
         14    1    1    2    0    0  0.12407291036E-01 -0.22817368131E-02  0.31445317328E-02  0.13001356605E-01  0.00000000000E+00 0.  1.
     999901    1    3    3    0    0 -0.13870363497E-01  0.31993283876E-01 -0.13326791522E+00  0.89071673074E+00  0.88000000000E+00 0. -1.
        -11    1    4    4    0    0  0.16495560560E-01 -0.76446248046E-02  0.91276688576E-01  0.93071149155E-01  0.51100000000E-03 0. -1.
         11    1    4    4    0    0 -0.15032488100E-01 -0.22066922258E-01  0.38846694914E-01  0.47140763498E-01  0.51100000000E-03 0.  1.
</event>
<event>
 8    1  0.1993226E+004  0.1043930E+01  0.7957747E-01            NaN
         13   -1    0    0    0    0  0.00000000000E+00  0.00000000000E+00  0.74505805969E-08  0.10566000000E+00  0.10566000000E+00 0.  1.
     999900   -1    0    0    0    0 -0.00000000000E+00 -0.00000000000E+00 -0.74505805969E-08  0.93827000000E+00  0.93827000000E+00 0. -1.
     999902    2    1    2    0    0 -0.38737564949E-02 -0.98122307903E-02  0.85653192780E-02  0.10303413814E+01  0.10302517710E+01 0.  0.
     999903    2    3    3    0    0  0.70289344996E-01 -0.82851779935E-01  0.78318670796E-01  0.14146542183E+00  0.45537258597E-01 0.  0.
         14    1    1    2    0    0  0.38737564949E-02  0.98122307903E-02 -0.85653192780E-02  0.13588618649E-01  0.00000000000E+00 0. -1.
     999901    1    3    3    0    0 -0.74163101491E-01  0.73039549145E-01 -0.69753351518E-01  0.88887595952E+00  0.88000000000E+00 0. -1.
        -11    1    4    4    0    0  0.74264903311E-01 -0.80355201046E-01  0.80905069991E-01  0.13608132006E+00  0.51100000000E-03 0. -1.
         11    1    4    4    0    0 -0.39755583147E-02 -0.24965788896E-02 -0.25863991950E-02  0.53841017692E-02  0.51100000000E-03 0.  1.
</event>
<event>
 8    1  0.1993226E+004  0.1043930E+01  0.7957747E-01            NaN
         13   -1    0    0    0    0  0.00000000000E+00  0.00000000000E+00  0.74505805969E-08  0.10566000000E+00  0.10566000000E+00 0.  1.
     999900   -1    0    0    0    0 -0.00000000000E+00 -0.00000000000E+00 -0.74505805969E-08  0.93827000000E+00  0.93827000000E+00 0.  1.
     999902    2    1    2    0    0 -0.93610990642E-02 -0.13258987007E-01 -0.52684183115E-02  0.10268657935E+01  0.10267239993E+01 0.  0.
     999903    2    3    3    0    0 -0.63927556887E-01  0.11036182342E+00 -0.21472534123E-01  0.13640401640E+00  0.43341912424E-01 0.  0.
         14    1    1    2    0    0  0.93610990642E-02  0.13258987007E-01  0.52684183115E-02  0.17064206505E-01  0.00000000000E+00 0.  1.
     999901    1    3    3    0    0  0.54566457823E-01 -0.12362081042E+00  0.16204115812E-01  0.89046177709E+00  0.88000000000E+00 0. -1.
        -11    1    4    4    0    0 -0.36938181404E-01  0.55264259069E-01  0.10369914671E-01  0.67278256719E-01  0.51100000000E-03 0. -1.
         11    1    4    4    0    0 -0.26989375483E-01  0.55097564347E-01 -0.31842448795E-01  0.69125759686E-01  0.51100000000E-03 0.  1.
</event>
<event>
 8    1  0.1993226E+004  0.1043930E+01  0.7957747E-01            NaN
         13   -1    0    0    0    0  0.00000000000E+00  0.00000000000E+00  0.74505805969E-08  0.10566000000E+00  0.10566000000E+00 0.  1.
     999900   -1    0    0    0    0 -0.00000000000E+00 -0.00000000000E+00 -0.74505805969E-08  0.93827000000E+00  0.93827000000E+00 0. -1.
     999902    2    1    2    0    0  0.53143376254E-02 -0.96217539835E-02  0.75115584411E-02  0.10306167042E+01  0.10305307114E+01 0.  0.
     999903    2    3    3    0    0 -0.12302813563E-01 -0.88696796473E-01  0.10033178613E+00  0.14203422577E+00  0.45703096768E-01 0.  0.
         14    1    1    2    0    0 -0.53143376254E-02  0.96217539835E-02 -0.75115584411E-02  0.13313295773E-01  0.00000000000E+00 0. -1.
     999901    1    3    3    0    0  0.17617151189E-01  0.79075042489E-01 -0.92820227691E-01  0.88858247846E+00  0.88000000000E+00 0. -1.
        -11    1    4    4    0    0 -0.89020732659E-02 -0.18240184908E-01  0.53865659905E-01  0.57564934569E-01  0.51100000000E-03 0.  1.
         11    1    4    4    0    0 -0.34007402975E-02 -0.70456611564E-01  0.46466126228E-01  0.84469291197E-01  0.51100000000E-03 0. -1.
</event>
<event>
 8    1  0.1993226E+004  0.1043930E+01  0.7957747E-01            NaN
         13   -1    0    0    0    0  0.00000000000E+00  0.00000000000E+00  0.74505805969E-08  0.10566000000E+00  0.10566000000E+00 0.  1.
     999900   -1    0    0    0    0 -0.00000000000E+00 -0.00000000000E+00 -0.74505805969E-08  0.93827000000E+00  0.93827000000E+00 0. -1.
     999902    2    1    2    0    0 -0.13294986947E-01  0.52168111833E-02  0.36429419617E-02  0.10291908405E+01  0.10290852945E+01 0.  0.
     999903    2    3    3    0    0 -0.86404739164E-01 -0.60294698928E-01 -0.80247999869E-01  0.13976715970E+00  0.44652970562E-01 0.  0.
         14    1    1    2    0    0  0.13294986947E-01 -0.52168111833E-02 -0.36429419617E-02  0.14739159507E-01  0.00000000000E+00 0. -1.
     999901    1    3    3    0    0  0.73109752217E-01  0.65511510111E-01  0.83890941831E-01  0.88942368079E+00  0.88000000000E+00 0. -1.
        -11    1    4    4    0    0 -0.21818462961E-01 -0.40496444297E-01 -0.41103213503E-01  0.61690701147E-01  0.51100000000E-03 0.  1.
         11    1    4    4    0    0 -0.64586276203E-01 -0.19798254630E-01 -0.39144786366E-01  0.78076458558E-01  0.51100000000E-03 0. -1.
</event>
<event>
 8    1  0.1993226E+004  0.1043930E+01  0.7957747E-01            NaN
         13   -1    0    0    0    0  0.00000000000E+00  0.00000000000E+00  0.74505805969E-08  0.10566000000E+00  0.10566000000E+00 0.  1.
     999900   -1    0    0    0    0 -0.00000000000E+00 -0.00000000000E+00 -0.74505805969E-08  0.93827000000E+00  0.93827000000E+00 0.  1.
     999902    2    1    2    0    0  0.13242183249E-01  0.22004603644E-03  0.22335801131E-02  0.10304989644E+01  0.10304114338E+01 0.  0.
     999903    2    3    3    0    0  0.68928413499E-01  0.10266116544E+00  0.50838259358E-01  0.14147840556E+00  0.46272773285E-01 0.  0.
         14    1    1    2    0    0 -0.13242183249E-01 -0.22004603644E-03 -0.22335801131E-02  0.13431035611E-01  0.00000000000E+00 0. -1.
     999901    1    3    3    0    0 -0.55686230250E-01 -0.10244111940E+00 -0.48604679245E-01  0.88902055883E+00  0.88000000000E+00 0.  1.
        -11    1    4    4    0    0  0.51666808879E-01  0.10007879504E+00  0.35103140800E-01  0.11797336976E+00  0.51100000000E-03 0.  1.
         11    1    4    4    0    0  0.17261604620E-01  0.25823703976E-02  0.15735118558E-01  0.23505035800E-01  0.51100000000E-03 0. -1.
</event>
<event>
 8    1  0.1993226E+004  0.1043930E+01  0.7957747E-01            NaN
         13   -1    0    0    0    0  0.00000000000E+00  0.00000000000E+00  0.74505805969E-08  0.10566000000E+00  0.10566000000E+00 0. -1.
     999900   -1    0    0    0    0 -0.00000000000E+00 -0.00000000000E+00 -0.74505805969E-08  0.93827000000E+00  0.93827000000E+00 0.  1.
     999902    2    1    2    0    0 -0.64644328712E-02 -0.37069540991E-02 -0.12331353215E-01  0.10295219233E+01  0.10294210985E+01 0.  0.
     999903    2    3    3    0    0 -0.12147393485E-01 -0.68880911571E-01  0.11073953935E+00  0.13855257180E+00  0.45182191534E-01 0.  0.
         14    1    1    2    0    0  0.64644328712E-02  0.37069540991E-02  0.12331353215E-01  0.14408076664E-01  0.00000000000E+00 0. -1.
     999901    1    3    3    0    0  0.56829606135E-02  0.65173957472E-01 -0.12307089256E+00  0.89096935153E+00  0.88000000000E+00 0.  1.
        -11    1    4    4    0    0  0.16077922376E-01 -0.26815476627E-01  0.54711884431E-01  0.63017622882E-01  0.51100000000E-03 0.  1.
         11    1    4    4    0    0 -0.28225315861E-01 -0.42065434944E-01  0.56027654914E-01  0.75534948922E-01  0.51100000000E-03 0. -1.
</event>
<event>
 8    1  0.1993226E+004  0.1043930E+01  0.7957747E-01            NaN
         13   -1    0    0    0    0  0.00000000000E+00  0.00000000000E+00  0.74505805969E-08  0.10566000000E+00  0.10566000000E+00 0. -1.
     999900   -1    0    0    0    0 -0.00000000000E+00 -0.00000000000E+00 -0.74505805969E-08  0.93827000000E+00  0.93827000000E+00 0. -1.
     999902    2    1    2    0    0 -0.80878732528E-03 -0.13548651314E-01 -0.39636524562E-02  0.10297903172E+01  0.10296932391E+01 0.  0.
     999903    2    3    3    0    0  0.78117359569E-01  0.86286692038E-01  0.59203423851E-01  0.13839449491E+00  0.45828765371E-01 0.  0.
         14    1    1    2    0    0  0.80878732528E-03  0.13548651314E-01  0.39636524562E-02  0.14139682817E-01  0.00000000000E+00 0.  1.
     999901    1    3    3    0    0 -0.78926146895E-01 -0.99835343352E-01 -0.63167076308E-01  0.89139582228E+00  0.88000000000E+00 0. -1.
        -11    1    4    4    0    0  0.34483143246E-02  0.17951465080E-01  0.26159682345E-01  0.31917645145E-01  0.51100000000E-03 0. -1.
         11    1    4    4    0    0  0.74669045245E-01  0.68335226958E-01  0.33043741506E-01  0.10647684976E+00  0.51100000000E-03 0.  1.
</event>
<event>
 8    1  0.1993226E+004  0.1043930E+01  0.7957747E-01            NaN
         13   -1    0    0    0    0  0.00000000000E+00  0.00000000000E+00  0.74505805969E-08  0.10566000000E+00  0.10566000000E+00 0.  1.
     999900   -1    0    0    0    0 -0.00000000000E+00 -0.00000000000E+00 -0.74505805969E-08  0.93827000000E+00  0.93827000000E+00 0. -1.
     999902    2    1    2    0    0 -0.68018299852E-02  0.73216326031E-02  0.98466594995E-02  0.10299004634E+01  0.10298049022E+01 0.  0.
     999903    2    3    3    0    0 -0.69091019071E-01  0.11731568607E+00 -0.10949516243E-01  0.14062485040E+00  0.33450224671E-01 0.  0.
         14    1    1    2    0    0  0.68018299852E-02 -0.73216326031E-02 -0.98466594995E-02  0.14029536643E-01  0.00000000000E+00 0. -1.
     999901    1    3    3    0    0  0.62289189086E-01 -0.10999405346E+00  0.20796175743E-01  0.88927561296E+00  0.88000000000E+00 0.  1.
        -11    1    4    4    0    0 -0.11188835264E-01  0.67699505708E-02  0.65086504111E-02  0.14616631502E-01  0.51100000000E-03 0. -1.
         11    1    4    4    0    0 -0.57902183807E-01  0.11054573550E+00 -0.17458166654E-01  0.12600821890E+00  0.51100000000E-03 0.  1.
</event>
<event>
 8    1  0.1993226E+004  0.1043930E+01  0.7957747E-01            NaN
         13   -1    0    0    0    0  0.00000000000E+00  0.00000000000E+00  0.74505805969E-08  0.10566000000E+00  0.10566000000E+00 0. -1.
     999900   -1    0    0    0    0 -0.00000000000E+00 -0.00000000000E+00 -0.74505805969E-08  0.93827000000E+00  0.93827000000E+00 0. -1.
     999902    2    1    2    0    0  0.26731380269E-02  0.11254837157E-01 -0.73506048684E-02  0.10302242195E+01  0.10301330468E+01 0.  0.
     999903    2    3    3    0    0  0.92419768273E-01  0.75201459383E-01 -0.62016800985E-01  0.14166807548E+00  0.45023182300E-01 0.  0.
         14    1    1    2    0    0 -0.26731380269E-02 -0.11254837157E-01  0.73506048684E-02  0.13705780469E-01  0.00000000000E+00 0. -1.
     999901    1    3    3    0    0 -0.89746630246E-01 -0.63946622227E-01  0.54666196117E-01  0.88855614405E+00  0.88000000000E+00 0.  1.
        -11    1    4    4    0    0  0.62802688811E-01  0.24010707486E-01 -0.41765697247E-01  0.79153814711E-01  0.51100000000E-03 0. -1.
         11    1    4    4    0    0  0.29617079462E-01  0.51190751898E-01 -0.20251103739E-01  0.62514260768E-01  0.51100000000E-03 0.  1.
</event>
<event>
 8    1  0.1993226E+004  0.1043930E+01  0.7957747E-01            NaN
         13   -1    0    0    0    0  0.00000000000E+00  0.00000000000E+00  0.74505805969E-08  0.10566000000E+00  0.10566000000E+00 0.  1.
     999900   -1    0    0    0    0 -0.00000000000E+00 -0.00000000000E+00 -0.74505805969E-08  0.93827000000E+00  0.93827000000E+00 0.  1.
     999902    2    1    2    0    0  0.54707042399E-02 -0.12032697360E-01  0.20182403344E-02  0.10305588480E+01  0.10304721013E+01 0.  0.
     999903    2    3    3    0    0 -0.81766218277E-01 -0.55003607274E-02  0.10093160723E+00  0.14070672200E+00  0.53807284439E-01 0.  0.
         14    1    1    2    0    0 -0.54707042399E-02  0.12032697360E-01 -0.20182403344E-02  0.13371151958E-01  0.00000000000E+00 0. -1.
     999901    1    3    3    0    0  0.87236922517E-01 -0.65323366328E-02 -0.98913366894E-01  0.88985212604E+00  0.88000000000E+00 0.  1.
        -11    1    4    4    0    0 -0.28203882492E-01  0.18647952038E-01  0.60741815849E-01  0.69520028887E-01  0.51100000000E-03 0.  1.
         11    1    4    4    0    0 -0.53562335785E-01 -0.24148312765E-01  0.40189791379E-01  0.71186693112E-01  0.51100000000E-03 0. -1.
</event>
<event>
 7    1  0.1993226E+004  0.1043930E+01  0.7957747E-01            NaN
         13   -1    0    0    0    0  0.00000000000E+00  0.00000000000E+00  0.74505805969E-08  0.10566000000E+00  0.10566000000E+00 0.  1.
     999900   -1    0    0    0    0 -0.00000000000E+00 -0.00000000000E+00 -0.74505805969E-08  0.93827000000E+00  0.93827000000E+00 0.  1.
     999902    2    1    2    0    0  0.81330639200E-02  0.10234158814E-01  0.46844134015E-02  0.10300437311E+01  0.10299501248E+01 0.  0.
         14    1    1    2    0    0 -0.81330639200E-02 -0.10234158814E-01 -0.46844134015E-02  0.13886268911E-01  0.00000000000E+00 0. -1.
     999901    1    3    3    0    0  0.13615391207E+00  0.50657937118E-01 -0.86069327079E-02  0.89195190098E+00  0.88000000000E+00 0.  1.
        -11    1    3    3    0    0 -0.10695659718E+00 -0.23559808514E-01  0.17057505122E-01  0.11084222056E+00  0.51100000000E-03 0.  1.
         11    1    3    3    0    0 -0.21064250973E-01 -0.16863969790E-01 -0.37661590126E-02  0.27249609553E-01  0.51100000000E-03 0. -1.
</event>
<event>
 8    1  0.1993226E+004  0.1043930E+01  0.7957747E-01            NaN
         13   -1    0    0    0    0  0.00000000000E+00  0.00000000000E+00  0.74505805969E-08  0.10566000000E+00  0.10566000000E+00 0. -1.
     999900   -1    0    0    0    0 -0.00000000000E+00 -0.00000000000E+00 -0.74505805969E-08  0.93827000000E+00  0.93827000000E+00 0.  1.
     999902    2    1    2    0    0  0.38991579141E-02  0.20433274819E-02  0.13325658507E-01  0.10298960485E+01  0.10298004268E+01 0.  0.
     999903    2    3    3    0    0 -0.26510737613E-01 -0.11993996671E+00  0.50274247644E-01  0.14019391631E+00  0.45148857915E-01 0.  0.
         14    1    1    2    0    0 -0.38991579141E-02 -0.20433274819E-02 -0.13325658507E-01  0.14033951485E-01  0.00000000000E+00 0.  1.
     999901    1    3    3    0    0  0.30409895527E-01  0.12198329419E+00 -0.36948589137E-01  0.88970213220E+00  0.88000000000E+00 0. -1.
        -11    1    4    4    0    0 -0.35829130664E-01 -0.98970991907E-01  0.29693738341E-01  0.10936618792E+00  0.51100000000E-03 0. -1.
         11    1    4    4    0    0  0.93183930509E-02 -0.20968974805E-01  0.20580509304E-01  0.30827728389E-01  0.51100000000E-03 0.  1.
</event>
<event>
 8    1  0.1993226E+004  0.1043930E+01  0.7957747E-01            NaN
         13   -1    0    0    0    0  0.00000000000E+00  0.00000000000E+00  0.74505805969E-08  0.10566000000E+00  0.10566000000E+00 0.  1.
     999900   -1    0    0    0    0 -0.00000000000E+00 -0.00000000000E+00 -0.74505805969E-08  0.93827000000E+00  0.93827000000E+00 0.  1.
     999902    2    1    2    0    0 -0.17895551193E-01 -0.23927737714E-02  0.42489508712E-02  0.10253819623E+01  0.10252141917E+01 0.  0.
     999903    2    3    3    0    0 -0.30552033172E-01  0.10338873815E-01 -0.12414792504E+00  0.13588320507E+00  0.44846617298E-01 0.  0.
         14    1    1    2    0    0  0.17895551193E-01  0.23927737714E-02 -0.42489508712E-02  0.18548037695E-01  0.00000000000E+00 0. -1.
     999901    1    3    3    0    0  0.12656481979E-01 -0.12731647586E-01  0.12839687592E+00  0.88949875724E+00  0.88000000000E+00 0. -1.
        -11    1    4    4    0    0 -0.17268095791E-01 -0.17091359833E-01 -0.63856937500E-01  0.68324748818E-01  0.51100000000E-03 0. -1.
         11    1    4    4    0    0 -0.13283937381E-01  0.27430233648E-01 -0.60290987545E-01  0.67558456247E-01  0.51100000000E-03 0.  1.
</event>
<event>
 7    1  0.1993226E+004  0.1043930E+01  0.7957747E-01            NaN
         13   -1    0    0    0    0  0.00000000000E+00  0.00000000000E+00  0.74505805969E-08  0.10566000000E+00  0.10566000000E+00 0. -1.
     999900   -1    0    0    0    0 -0.00000000000E+00 -0.00000000000E+00 -0.74505805969E-08  0.93827000000E+00  0.93827000000E+00 0.  1.
     999903    2    1    2    0    0 -0.79794101680E-01  0.54470364557E-01  0.49040886272E-01  0.11730591567E+00  0.44961650850E-01 0.  0.
         14    1    1    2    0    0 -0.34726003473E-01 -0.35797554343E-02  0.83506420854E-02  0.35894890854E-01  0.00000000000E+00 0.  1.
     999901    1    1    2    0    0  0.11452010515E+00 -0.50890609123E-01 -0.57391528358E-01  0.89072919347E+00  0.88000000000E+00 0.  1.
        -11    1    3    3    0    0 -0.72704959307E-01  0.57702974949E-01  0.31357672304E-01  0.97975553885E-01  0.51100000000E-03 0. -1.
         11    1    3    3    0    0 -0.70891423735E-02 -0.32326103917E-02  0.17683213969E-01  0.19330361787E-01  0.51100000000E-03 0.  1.
</event>
<event>
 8    1  0.1993226E+004  0.1043930E+01  0.7957747E-01            NaN
         13   -1    0    0    0    0  0.00000000000E+00  0.00000000000E+00  0.74505805969E-08  0.10566000000E+00  0.10566000000E+00 0. -1.
     999900   -1    0    0    0    0 -0.00000000000E+00 -0.00000000000E+00 -0.74505805969E-08  0.93827000000E+00  0.93827000000E+00 0.  1.
     999902    2    1    2    0    0 -0.81977880250E-02 -0.67875448457E-02  0.86823717718E-02  0.10301947143E+01  0.10301031460E+01 0.  0.
     999903    2    3    3    0    0 -0.71264375693E-01  0.59592875668E-01 -0.93584265115E-01  0.13955324900E+00  0.45685583668E-01 0.  0.
         14    1    1    2    0    0  0.81977880250E-02  0.67875448457E-02 -0.86823717718E-02  0.13735285695E-01  0.00000000000E+00 0.  1.
     999901    1    3    3    0    0  0.63066587668E-01 -0.66380420513E-01  0.10226663689E+00  0.89064146531E+00  0.88000000000E+00 0. -1.
        -11    1    4    4    0    0 -0.43380397870E-01  0.74500188041E-02 -0.34135059890E-01  0.55703008304E-01  0.51100000000E-03 0.  1.
         11    1    4    4    0    0 -0.27883977824E-01  0.52142856864E-01 -0.59449205225E-01  0.83850240692E-01  0.51100000000E-03 0. -1.
</event>
<event>
 8    1  0.1993226E+004  0.1043930E+01  0.7957747E-01            NaN
         13   -1    0    0    0    0  0.00000000000E+00  0.00000000000E+00  0.74505805969E-08  0.10566000000E+00  0.10566000000E+00 0.  1.
     999900   -1    0    0    0    0 -0.00000000000E+00 -0.00000000000E+00 -0.74505805969E-08  0.93827000000E+00  0.93827000000E+00 0.  1.
     999902    2    1    2    0    0  0.12602888510E-01  0.29792335634E-02  0.48960688432E-02  0.10300851410E+01  0.10299920959E+01 0.  0.
     999903    2    3    3    0    0 -0.43535723831E-01  0.12353744711E+00 -0.18496911421E-01  0.13978572045E+00  0.45178001534E-01 0.  0.
         14    1    1    2    0    0 -0.12602888510E-01 -0.29792335634E-02 -0.48960688432E-02  0.13844859029E-01  0.00000000000E+00 0.  1.
     999901    1    3    3    0    0  0.56138612340E-01 -0.12055821355E+00  0.23392980264E-01  0.89029942052E+00  0.88000000000E+00 0. -1.
        -11    1    4    4    0    0 -0.48912568232E-02  0.23324293516E-01 -0.21835655410E-01  0.32326522075E-01  0.51100000000E-03 0. -1.
         11    1    4    4    0    0 -0.38644467007E-01  0.10021315359E+00  0.33387439889E-02  0.10745919838E+00  0.51100000000E-03 0.  1.
</event>
<event>
 8    1  0.1993226E+004  0.1043930E+01  0.7957747E-01            NaN
         13   -1    0    0    0    0  0.00000000000E+00  0.00000000000E+00  0.74505805969E-08  0.10566000000E+00  0.10566000000E+00 0.  1.
     999900   -1    0    0    0    0 -0.00000000000E+00 -0.00000000000E+00 -0.74505805969E-08  0.93827000000E+00  0.93827000000E+00 0.  1.
     999902    2    1    2    0    0  0.10528916440E-01 -0.80341103274E-02  0.21245013990E-02  0.10305166292E+01  0.10304293302E+01 0.  0.
     999903    2    3    3    0    0 -0.11584690277E+00  0.56421989190E-01 -0.26275855824E-01  0.13870273788E+00  0.44091758309E-01 0.  0.
         14    1    1    2    0    0 -0.10528916440E-01  0.80341103274E-02 -0.21245013990E-02  0.13413370805E-01  0.00000000000E+00 0. -1.
     999901    1    3    3    0    0  0.12637581921E+00 -0.64456099517E-01  0.28400357223E-01  0.89181389131E+00  0.88000000000E+00 0.  1.
        -11    1    4    4    0    0 -0.75130465723E-01  0.14216434915E-01 -0.62040892110E-02  0.76716658852E-01  0.51100000000E-03 0. -1.
         11    1    4    4    0    0 -0.40716437049E-01  0.42205554275E-01 -0.20071766613E-01  0.61986079031E-01  0.51100000000E-03 0.  1.
</event>
<event>
 8    1  0.1993226E+004  0.1043930E+01  0.7957747E-01            NaN
         13   -1    0    0    0    0  0.00000000000E+00  0.00000000000E+00  0.74505805969E-08  0.10566000000E+00  0.10566000000E+00 0.  1.
     999900   -1    0    0    0    0 -0.00000000000E+00 -0.00000000000E+00 -0.74505805969E-08  0.93827000000E+00  0.93827000000E+00 0. -1.
     999902    2    1    2    0    0 -0.10971767416E-01 -0.91906587282E-02  0.16323751820E-02  0.10295247046E+01  0.10294239189E+01 0.  0.
     999903    2    3    3    0    0 -0.85698381998E-01 -0.61280548174E-01 -0.80365487910E-01  0.14103099436E+00  0.48286762793E-01 0.  0.
         14    1    1    2    0    0  0.10971767416E-01  0.91906587282E-02 -0.16323751820E-02  0.14405295444E-01  0.00000000000E+00 0. -1.
     999901    1    3    3    0    0  0.74726614582E-01  0.52089889446E-01  0.81997863092E-01  0.88849371020E+00  0.88000000000E+00 0. -1.
        -11    1    4    4    0    0 -0.30512543921E-01 -0.39616607916E-01 -0.60525005290E-01  0.78511326226E-01  0.51100000000E-03 0. -1.
         11    1    4    4    0    0 -0.55185838078E-01 -0.21663940258E-01 -0.19840482619E-01  0.62519668132E-01  0.51100000000E-03 0.  1.
</event>
<event>
 8    1  0.1993226E+004  0.1043930E+01  0.7957747E-01            NaN
         13   -1    0    0    0    0  0.00000000000E+00  0.00000000000E+00  0.74505805969E-08  0.10566000000E+00  0.10566000000E+00 0. -1.
     999900   -1    0    0    0    0 -0.00000000000E+00 -0.00000000000E+00 -0.74505805969E-08  0.93827000000E+00  0.93827000000E+00 0. -1.
     999902    2    1    2    0    0  0.45798748338E-02 -0.37081210042E-02  0.12032796623E-01  0.10305317311E+01  0.10304446299E+01 0.  0.
     999903    2    3    3    0    0  0.94745003197E-01 -0.79963307755E-01 -0.51718097754E-01  0.14035827586E+00  0.40680926123E-01 0.  0.
         14    1    1    2    0    0 -0.45798748338E-02  0.37081210042E-02 -0.12032796623E-01  0.13398268897E-01  0.00000000000E+00 0.  1.
     999901    1    3    3    0    0 -0.90165128363E-01  0.76255186751E-01  0.63750894376E-01  0.89017345524E+00  0.88000000000E+00 0.  1.
        -11    1    4    4    0    0  0.42231942746E-01 -0.61899652571E-01 -0.30620270817E-01  0.80950392725E-01  0.51100000000E-03 0.  1.
         11    1    4    4    0    0  0.52513060450E-01 -0.18063655184E-01 -0.21097826937E-01  0.59407883138E-01  0.51100000000E-03 0. -1.
</event>
<event>
 8    1  0.1993226E+004  0.1043930E+01  0.7957747E-01            NaN
         13   -1    0    0    0    0  0.00000000000E+00  0.00000000000E+00  0.74505805969E-08  0.10566000000E+00  0.10566000000E+00 0.  1.
     999900   -1    0    0    0    0 -0.00000000000E+00 -0.00000000000E+00 -0.74505805969E-08  0.93827000000E+00  0.93827000000E+00 0.  1.
     999902    2    1    2    0    0 -0.25714863711E-02 -0.11628058393E-01 -0.34713972656E-02  0.10315253685E+01  0.10314507797E+01 0.  0.
     999903    2    3    3    0    0 -0.51483658814E-01 -0.30032178249E-01  0.11984006373E+00  0.14139232862E+00  0.45581255607E-01 0.  0.
         14    1    1    2    0    0  0.25714863711E-02  0.11628058393E-01  0.34713972656E-02  0.12404631519E-01  0.00000000000E+00 0. -1.
     999901    1    3    3    0    0  0.48912172443E-01  0.18404119856E-01 -0.12331146099E+00  0.89013303986E+00  0.88000000000E+00 0.  1.
        -11    1    4    4    0    0  0.83573197920E-02 -0.69465878129E-02  0.16456071451E-01  0.19727221926E-01  0.51100000000E-03 0.  1.
         11    1    4    4    0    0 -0.59840978606E-01 -0.23085590436E-01  0.10338399228E+00  0.12166510669E+00  0.51100000000E-03 0. -1.
</event>
<event>
 8    1  0.1993226E+004  0.1043930E+01  0.7957747E-01            NaN
         13   -1    0    0    0    0  0.00000000000E+00  0.00000000000E+00  0.74505805969E-08  0.10566000000E+00  0.10566000000E+00 0. -1.
     999900   -1    0    0    0    0 -0.00000000000E+00 -0.00000000000E+00 -0.74505805969E-08  0.93827000000E+00  0.93827000000E+00 0. -1.
     999902    2    1    2    0    0 -0.47406117144E-02 -0.74898549530E-03  0.13388288155E-01  0.10297074602E+01  0.10296092331E+01 0.  0.
     999903    2    3    3    0    0  0.82621175827E-01  0.53086557770E-01  0.89651490182E-01  0.14046822151E+00  0.45271296105E-01 0.  0.
         14    1    1    2    0    0  0.47406117144E-02  0.74898549530E-03 -0.13388288155E-01  0.14222539802E-01  0.00000000000E+00 0.  1.
     999901    1    3    3    0    0 -0.87361787542E-01 -0.53835543265E-01 -0.76263202026E-01  0.88923923869E+00  0.88000000000E+00 0. -1.
        -11    1    4    4    0    0  0.18404059747E-01  0.32412887931E-01  0.15934527142E-01  0.40539795207E-01  0.51100000000E-03 0.  1.
         11    1    4    4    0    0  0.64217116081E-01  0.20673669838E-01  0.73716963039E-01  0.99928426301E-01  0.51100000000E-03 0. -1.
</event>
<event>
 8    1  0.1993226E+004  0.1043930E+01  0.7957747E-01            NaN
         13   -1    0    0    0    0  0.00000000000E+00  0.00000000000E+00  0.74505805969E-08  0.10566000000E+00  0.10566000000E+00 0.  1.
     999900   -1    0    0    0    0 -0.00000000000E+00 -0.00000000000E+00 -0.74505805969E-08  0.93827000000E+00  0.93827000000E+00 0.  1.
     999902    2    1    2    0    0 -0.59843873368E-02  0.11933003730E-01 -0.99450037630E-03  0.10305434956E+01  0.10304565482E+01 0.  0.
     999903    2    3    3    0    0 -0.72651638158E-01  0.42575772933E-01  0.10438726848E+00  0.14122419473E+00  0.44233634151E-01 0.  0.
         14    1    1    2    0    0  0.59843873368E-02 -0.11933003730E-01  0.99450037630E-03  0.13386504428E-01  0.00000000000E+00 0. -1.
     999901    1    3    3    0    0  0.66667250821E-01 -0.30642769203E-01 -0.10538176885E+00  0.88931930084E+00  0.88000000000E+00 0.  1.
        -11    1    4    4    0    0  0.36588461638E-02  0.10617025559E-01  0.20635457675E-01  0.23498757870E-01  0.51100000000E-03 0. -1.
         11    1    4    4    0    0 -0.76310484322E-01  0.31958747374E-01  0.83751810801E-01  0.11772543686E+00  0.51100000000E-03 0.  1.
</event>
<event>
 8    1  0.1993226E+004  0.1043930E+01  0.7957747E-01            NaN
         13   -1    0    0    0    0  0.00000000000E+00  0.00000000000E+00  0.74505805969E-08  0.10566000000E+00  0.10566000000E+00 0. -1.
     999900   -1    0    0    0    0 -0.00000000000E+00 -0.00000000000E+00 -0.74505805969E-08  0.93827000000E+00  0.93827000000E+00 0.  1.
     999902    2    1    2    0    0  0.42799215690E-02 -0.12535977445E-01  0.44585198987E-02  0.10299533459E+01  0.10298585087E+01 0.  0.
     999903    2    3    3    0    0  0.66592053311E-02 -0.85046607417E-01 -0.10182502631E+00  0.14059422576E+00  0.46055725855E-01 0.  0.
         14    1    1    2    0    0 -0.42799215690E-02  0.12535977445E-01 -0.44585198987E-02  0.13976654064E-01  0.00000000000E+00 0.  1.
     999901    1    3    3    0    0 -0.23792837620E-02  0.72510629972E-01  0.10628354621E+00  0.88935912018E+00  0.88000000000E+00 0. -1.
        -11    1    4    4    0    0  0.60442594260E-02 -0.66012324066E-02 -0.39205214307E-01  0.40217151704E-01  0.51100000000E-03 0. -1.
         11    1    4    4    0    0  0.61494590506E-03 -0.78445375010E-01 -0.62619812005E-01  0.10037707405E+00  0.51100000000E-03 0.  1.
</event>
<event>
 8    1  0.1993226E+004  0.1043930E+01  0.7957747E-01            NaN
         13   -1    0    0    0    0  0.00000000000E+00  0.00000000000E+00  0.74505805969E-08  0.10566000000E+00  0.10566000000E+00 0. -1.
     999900   -1    0    0    0    0 -0.00000000000E+00 -0.00000000000E+00 -0.74505805969E-08  0.93827000000E+00  0.93827000000E+00 0.  1.
     999902    2    1    2    0    0 -0.10169981252E-01 -0.37899113128E-02  0.77910723280E-02  0.10305698819E+01  0.10304832793E+01 0.  0.
     999903    2    3    3    0    0  0.11387733520E+00  0.60396973241E-01  0.27864132206E-01  0.13932882555E+00  0.44947412788E-01 0.  0.
         14    1    1    2    0    0  0.10169981252E-01  0.37899113128E-02 -0.77910723280E-02  0.13360118055E-01  0.00000000000E+00 0.  1.
     999901    1    3    3    0    0 -0.12404731646E+00 -0.64186884553E-01 -0.20073059878E-01  0.89124105639E+00  0.88000000000E+00 0. -1.
        -11    1    4    4    0    0  0.22369529183E-01  0.34897845281E-01  0.10427153865E-01  0.42746252465E-01  0.51100000000E-03 0. -1.
         11    1    4    4    0    0  0.91507806019E-01  0.25499127960E-01  0.17436978342E-01  0.96582573086E-01  0.51100000000E-03 0.  1.
</event>
<event>
 8    1  0.1993226E+004  0.1043930E+01  0.7957747E-01            NaN
         13   -1    0    0    0    0  0.00000000000E+00  0.00000000000E+00  0.74505805969E-08  0.10566000000E+00  0.10566000000E+00 0.  1.
     999900   -1    0    0    0    0 -0.00000000000E+00 -0.00000000000E+00 -0.74505805969E-08  0.93827000000E+00  0.93827000000E+00 0. -1.
     999902    2    1    2    0    0  0.79363924202E-02 -0.77822216749E-02  0.11291368105E-02  0.10327575227E+01  0.10326970884E+01 0.  0.
     999903    2    3    3    0    0  0.52509657418E-02  0.68278106796E-01 -0.11709811097E+00  0.14159532243E+00  0.40593044140E-01 0.  0.
         14    1    1    2    0    0 -0.79363924202E-02  0.77822216749E-02 -0.11291368105E-02  0.11172477289E-01  0.00000000000E+00 0. -1.
     999901    1    3    3    0    0  0.26854266784E-02 -0.76060328471E-01  0.11822724778E+00  0.89116220028E+00  0.88000000000E+00 0.  1.
        -11    1    4    4    0    0 -0.19410730388E-02 -0.13203255119E-02 -0.28961238563E-01  0.29060720639E-01  0.51100000000E-03 0.  1.
         11    1    4    4    0    0  0.71920387806E-02  0.69598432308E-01 -0.88136872412E-01  0.11253460179E+00  0.51100000000E-03 0. -1.
</event>
<event>
 7    1  0.1993226E+004  0.1043930E+01  0.7957747E-01            NaN
         13   -1    0    0    0    0  0.00000000000E+00  0.00000000000E+00  0.74505805969E-08  0.10566000000E+00  0.10566000000E+00 0.  1.
     999900   -1    0    0    0    0 -0.00000000000E+00 -0.00000000000E+00 -0.74505805969E-08  0.93827000000E+00  0.93827000000E+00 0.  1.
     999903    2    1    2    0    0 -0.77093613739E-01 -0.51475155447E-01 -0.16613323315E-01  0.10455612606E+00  0.45418763492E-01 0.  0.
         14    1    1    2    0    0  0.14635057095E-01 -0.46044795290E-01  0.18636057430E-01  0.51784270835E-01  0.00000000000E+00 0.  1.
     999901    1    1    2    0    0  0.62458556644E-01  0.97519950736E-01 -0.20227341144E-02  0.88758960311E+00  0.88000000000E+00 0.  1.
        -11    1    3    3    0    0 -0.39494610994E-01 -0.48337586591E-02  0.65401400965E-02  0.40326468651E-01  0.51100000000E-03 0.  1.
         11    1    3    3    0    0 -0.37599002745E-01 -0.46641396788E-01 -0.23153463412E-01  0.64229657407E-01  0.51100000000E-03 0. -1.
</event>
<event>
 7    1  0.1993226E+004  0.1043930E+01  0.7957747E-01            NaN
         13   -1    0    0    0    0  0.00000000000E+00  0.00000000000E+00  0.74505805969E-08  0.10566000000E+00  0.10566000000E+00 0. -1.
     999900   -1    0    0    0    0 -0.00000000000E+00 -0.00000000000E+00 -0.74505805969E-08  0.93827000000E+00  0.93827000000E+00 0. -1.
     999902    2    1    2    0    0  0.13433775116E-01 -0.11385105388E-02  0.40145154724E-02  0.10298630581E+01  0.10297669831E+01 0.  0.
         14    1    1    2    0    0 -0.13433775116E-01  0.11385105388E-02 -0.40145154724E-02  0.14066941906E-01  0.00000000000E+00 0.  1.
     999901    1    3    3    0    0  0.99008913765E-01 -0.62621020802E-01  0.72076284096E-01  0.89068465125E+00  0.88000000000E+00 0. -1.
        -11    1    3    3    0    0  0.53232975955E-02  0.18392189394E-01 -0.30291968819E-02  0.19391938602E-01  0.51100000000E-03 0.  1.
         11    1    3    3    0    0 -0.90898436245E-01  0.43090320869E-01 -0.65032571742E-01  0.11978646824E+00  0.51100000000E-03 0. -1.
</event>
<event>
 8    1  0.1993226E+004  0.1043930E+01  0.7957747E-01            NaN
         13   -1    0    0    0    0  0.00000000000E+00  0.00000000000E+00  0.74505805969E-08  0.10566000000E+00  0.10566000000E+00 0.  1.
     999900   -1    0    0    0    0 -0.00000000000E+00 -0.00000000000E+00 -0.74505805969E-08  0.93827000000E+00  0.93827000000E+00 0. -1.
     999902    2    1    2    0    0  0.95591575241E-02  0.27333937186E-02  0.84568050111E-02  0.10308775487E+01  0.10307949136E+01 0.  0.
     999903    2    3    3    0    0  0.48432448780E-01 -0.13367982148E-02 -0.12358871236E+00  0.14016787777E+00  0.45004166608E-01 0.  0.
         14    1    1    2    0    0 -0.95591575241E-02 -0.27333937186E-02 -0.84568050111E-02  0.13052451294E-01  0.00000000000E+00 0. -1.
     999901    1    3    3    0    0 -0.38873291256E-01  0.40701919335E-02  0.13204551737E+00  0.89070967093E+00  0.88000000000E+00 0.  1.
        -11    1    4    4    0    0  0.27634860506E-01 -0.22454315848E-01 -0.55993434345E-01  0.66358176784E-01  0.51100000000E-03 0. -1.
         11    1    4    4    0    0  0.20797588274E-01  0.21117517633E-01 -0.67595278016E-01  0.73809700989E-01  0.51100000000E-03 0.  1.
</event>
<event>
 8    1  0.1993226E+004  0.1043930E+01  0.7957747E-01            NaN
         13   -1    0    0    0    0  0.00000000000E+00  0.00000000000E+00  0.74505805969E-08  0.10566000000E+00  0.10566000000E+00 0. -1.
     999900   -1    0    0    0    0 -0.00000000000E+00 -0.00000000000E+00 -0.74505805969E-08  0.93827000000E+00  0.93827000000E+00 0. -1.
     999902    2    1    2    0    0 -0.10075990867E-01 -0.66106825479E-02  0.87784026694E-02  0.10290207053E+01  0.10289126906E+01 0.  0.
     999903    2    3    3    0    0 -0.49165864873E-01  0.11495842205E+00 -0.38895279784E-01  0.13852654727E+00  0.45211065459E-01 0.  0.
         14    1    1    2    0    0  0.10075990867E-01  0.66106825479E-02 -0.87784026694E-02  0.14909294723E-01  0.00000000000E+00 0.  1.
     999901    1    3    3    0    0  0.39089874006E-01 -0.12156910460E+00  0.47673682453E-01  0.89049415801E+00  0.88000000000E+00 0. -1.
        -11    1    4    4    0    0 -0.19458891267E-01  0.16254055979E-01 -0.22986523412E-01  0.34226950853E-01  0.51100000000E-03 0. -1.
         11    1    4    4    0    0 -0.29706973606E-01  0.98704366074E-01 -0.15908756372E-01  0.10429959642E+00  0.51100000000E-03 0.  1.
</event>
<event>
 8    1  0.1993226E+004  0.1043930E+01  0.7957747E-01            NaN
         13   -1    0    0    0    0  0.00000000000E+00  0.00000000000E+00  0.74505805969E-08  0.10566000000E+00  0.10566000000E+00 0. -1.
     999900   -1    0    0    0    0 -0.00000000000E+00 -0.00000000000E+00 -0.74505805969E-08  0.93827000000E+00  0.93827000000E+00 0. -1.
     999902    2    1    2    0    0  0.93103528585E-02  0.75448232001E-02 -0.61941445181E-02  0.10304402093E+01  0.10303519061E+01 0.  0.
     999903    2    3    3    0    0  0.52438240166E-01 -0.82392828393E-01 -0.90688140348E-01  0.14078407842E+00  0.45359351125E-01 0.  0.
         14    1    1    2    0    0 -0.93103528585E-02 -0.75448232001E-02  0.61941445181E-02  0.13489790724E-01  0.00000000000E+00 0. -1.
     999901    1    3    3    0    0 -0.43127887308E-01  0.89937651593E-01  0.84493995830E-01  0.88965613086E+00  0.88000000000E+00 0.  1.
        -11    1    4    4    0    0  0.33037647808E-01 -0.19002676608E-01 -0.50462678412E-01  0.63240263475E-01  0.51100000000E-03 0.  1.
         11    1    4    4    0    0  0.19400592358E-01 -0.63390151785E-01 -0.40225461936E-01  0.77543814945E-01  0.51100000000E-03 0. -1.
</event>
<event>
 8    1  0.1993226E+004  0.1043930E+01  0.7957747E-01            NaN
         13   -1    0    0    0    0  0.00000000000E+00  0.00000000000E+00  0.74505805969E-08  0.10566000000E+00  0.10566000000E+00 0.  1.
     999900   -1    0    0    0    0 -0.00000000000E+00 -0.00000000000E+00 -0.74505805969E-08  0.93827000000E+00  0.93827000000E+00 0. -1.
     999902    2    1    2    0    0  0.84754698489E-02  0.38116328436E-02 -0.11514866474E-01  0.10291328961E+01  0.10290265126E+01 0.  0.
     999903    2    3    3    0    0  0.91560280601E-01 -0.95173632669E-01 -0.85219621304E-03  0.13963030413E+00  0.45327588233E-01 0.  0.
         14    1    1    2    0    0 -0.84754698489E-02 -0.38116328436E-02  0.11514866474E-01  0.14797103906E-01  0.00000000000E+00 0. -1.
     999901    1    3    3    0    0 -0.83084810752E-01  0.98985265512E-01 -0.10662670261E-01  0.88950259196E+00  0.88000000000E+00 0.  1.
        -11    1    4    4    0    0  0.64413238315E-01 -0.84488999754E-01  0.13526669124E-01  0.10710129900E+00  0.51100000000E-03 0.  1.
         11    1    4    4    0    0  0.27147042286E-01 -0.10684632915E-01 -0.14378865337E-01  0.32529005130E-01  0.51100000000E-03 0. -1.
</event>
<event>
 8    1  0.1993226E+004  0.1043930E+01  0.7957747E-01            NaN
         13   -1    0    0    0    0  0.00000000000E+00  0.00000000000E+00  0.74505805969E-08  0.10566000000E+00  0.10566000000E+00 0. -1.
     999900   -1    0    0    0    0 -0.00000000000E+00 -0.00000000000E+00 -0.74505805969E-08  0.93827000000E+00  0.93827000000E+00 0. -1.
     999902    2    1    2    0    0 -0.10339066038E-01 -0.44822378516E-02 -0.85809917298E-02  0.10297659553E+01  0.10296685401E+01 0.  0.
     999903    2    3    3    0    0  0.10950080495E+00  0.38385341351E-01 -0.61847339672E-01  0.13901541344E+00  0.45125724767E-01 0.  0.
         14    1    1    2    0    0  0.10339066038E-01  0.44822378516E-02  0.85809917298E-02  0.14164044682E-01  0.00000000000E+00 0. -1.
     999901    1    3    3    0    0 -0.11983987099E+00 -0.42867579202E-01  0.53266347943E-01  0.89075054187E+00  0.88000000000E+00 0. -1.
        -11    1    4    4    0    0  0.57274516594E-01  0.22998014382E-01 -0.57564204116E-01  0.84398919620E-01  0.51100000000E-03 0. -1.
         11    1    4    4    0    0  0.52226288354E-01  0.15387326969E-01 -0.42831355567E-02  0.54616493824E-01  0.51100000000E-03 0.  1.
</event>
<event>
 8    1  0.2404970E+004  0.1043930E+01  0.7957747E-01            NaN
         13   -1    0    0    0    0  0.00000000000E+00  0.00000000000E+00  0.74505805969E-08  0.10566000000E+00  0.10566000000E+00 0. -1.
     999900   -1    0    0    0    0 -0.00000000000E+00 -0.00000000000E+00 -0.74505805969E-08  0.93827000000E+00  0.93827000000E+00 0.  1.
     999902    2    1    2    0    0 -0.94383946702E-02 -0.68744175031E-02  0.53933601660E-02  0.10310680700E+01  0.10309878446E+01 0.  0.
     999903    2    3    3    0    0  0.36786405938E-01  0.11688722664E+00 -0.52097832676E-01  0.13935123488E+00  0.41094027292E-01 0.  0.
         14    1    1    2    0    0  0.94383946702E-02  0.68744175031E-02 -0.53933601660E-02  0.12861930020E-01  0.00000000000E+00 0.  1.
     999901    1    3    3    0    0 -0.46224800609E-01 -0.12376164414E+00  0.57491192842E-01  0.89171683510E+00  0.88000000000E+00 0.  1.
        -11    1    4    4    0    0  0.24571680920E-01  0.76796051719E-01 -0.12323409864E-01  0.81569164606E-01  0.51100000000E-03 0.  1.
         11    1    4    4    0    0  0.12214725019E-01  0.40091174919E-01 -0.39774422813E-01  0.57782070271E-01  0.51100000000E-03 0. -1.
</event>
<event>
 7    1  0.1993226E+004  0.1043930E+01  0.7957747E-01            NaN
         13   -1    0    0    0    0  0.00000000000E+00  0.00000000000E+00  0.74505805969E-08  0.10566000000E+00  0.10566000000E+00 0. -1.
     999900   -1    0    0    0    0 -0.00000000000E+00 -0.00000000000E+00 -0.74505805969E-08  0.93827000000E+00  0.93827000000E+00 0. -1.
     999903    2    1    2    0    0  0.16295030302E-01  0.33325540968E-01 -0.56540038523E-01  0.81086261735E-01  0.44744677814E-01 0.  0.
         14    1    1    2    0    0  0.49031589496E-01  0.18061407028E-01 -0.50257207703E-01  0.72498952533E-01  0.00000000000E+00 0.  1.
     999901    1    1    2    0    0 -0.65326619798E-01 -0.51386947996E-01  0.10679724623E+00  0.89034478573E+00  0.88000000000E+00 0.  1.
        -11    1    3    3    0    0  0.72430930026E-02  0.42875377838E-01 -0.34917602545E-01  0.55769709605E-01  0.51100000000E-03 0.  1.
         11    1    3    3    0    0  0.90519372991E-02 -0.95498368701E-02 -0.21622435978E-01  0.25316552129E-01  0.51100000000E-03 0. -1.
</event>
<event>
 8    1  0.1993226E+004  0.1043930E+01  0.7957747E-01            NaN
         13   -1    0    0    0    0  0.00000000000E+00  0.00000000000E+00  0.74505805969E-08  0.10566000000E+00  0.10566000000E+00 0. -1.
     999900   -1    0    0    0    0 -0.00000000000E+00 -0.00000000000E+00 -0.74505805969E-08  0.93827000000E+00  0.93827000000E+00 0. -1.
     999902    2    1    2    0    0  0.12941512370E-01 -0.55800541702E-02 -0.20876127577E-02  0.10296829696E+01  0.10295844016E+01 0.  0.
     999903    2    3    3    0    0  0.44860448203E-01 -0.12335627860E+00  0.24494964120E-01  0.14086538943E+00  0.44875643611E-01 0.  0.
         14    1    1    2    0    0 -0.12941512370E-01  0.55800541702E-02  0.20876127577E-02  0.14247030357E-01  0.00000000000E+00 0. -1.
     999901    1    3    3    0    0 -0.31918935834E-01  0.11777622443E+00 -0.26582576878E-01  0.88881758021E+00  0.88000000000E+00 0. -1.
        -11    1    4    4    0    0  0.11604564297E-01 -0.67118719030E-01  0.31702233701E-01  0.75132423755E-01  0.51100000000E-03 0.  1.
         11    1    4    4    0    0  0.33255883906E-01 -0.56237559567E-01 -0.72072695813E-02  0.65732965673E-01  0.51100000000E-03 0. -1.
</event>
<event>
 8    1  0.1993226E+004  0.1043930E+01  0.7957747E-01            NaN
         13   -1    0    0    0    0  0.00000000000E+00  0.00000000000E+00  0.74505805969E-08  0.10566000000E+00  0.10566000000E+00 0. -1.
     999900   -1    0    0    0    0 -0.00000000000E+00 -0.00000000000E+00 -0.74505805969E-08  0.93827000000E+00  0.93827000000E+00 0. -1.
     999902    2    1    2    0    0 -0.13139165079E-01 -0.38825447950E-02  0.18979487815E-02  0.10300983688E+01  0.10300055026E+01 0.  0.
     999903    2    3    3    0    0  0.37694815348E-01  0.93842830932E-01  0.84694360505E-01  0.13937417553E+00  0.44996111837E-01 0.  0.
         14    1    1    2    0    0  0.13139165079E-01  0.38825447950E-02 -0.18979487815E-02  0.13831631236E-01  0.00000000000E+00 0.  1.
     999901    1    3    3    0    0 -0.50833980428E-01 -0.97725375727E-01 -0.82796411723E-01  0.89072419324E+00  0.88000000000E+00 0. -1.
        -11    1    4    4    0    0  0.54355918172E-02  0.34739174267E-01  0.57825919538E-02  0.35637836324E-01  0.51100000000E-03 0.  1.
         11    1    4    4    0    0  0.32259223531E-01  0.59103656665E-01  0.78911768551E-01  0.10373633920E+00  0.51100000000E-03 0. -1.
</event>
<event>
 7    1  0.1993226E+004  0.1043930E+01  0.7957747E-01            NaN
         13   -1    0    0    0    0  0.00000000000E+00  0.00000000000E+00  0.74505805969E-08  0.10566000000E+00  0.10566000000E+00 0. -1.
     999900   -1    0    0    0    0 -0.00000000000E+00 -0.00000000000E+00 -0.74505805969E-08  0.93827000000E+00  0.93827000000E+00 0. -1.
     999903    2    1    2    0    0 -0.39969281074E-01 -0.88207424108E-01 -0.39138970729E-01  0.11373537531E+00  0.45008704385E-01 0.  0.
         14    1    1    2    0    0 -0.36858508003E-01  0.84865981207E-02  0.20588169616E-01  0.43063263787E-01  0.00000000000E+00 0. -1.
     999901    1    1    2    0    0  0.76827789077E-01  0.79720825987E-01  0.18550801113E-01  0.88713136090E+00  0.88000000000E+00 0.  1.
        -11    1    3    3    0    0  0.70700360686E-02 -0.32847053396E-01 -0.17755563867E-01  0.38005729779E-01  0.51100000000E-03 0.  1.
         11    1    3    3    0    0 -0.47039317142E-01 -0.55360370712E-01 -0.21383406862E-01  0.75729645533E-01  0.51100000000E-03 0. -1.
</event>
<event>
 8    1  0.1993226E+004  0.1043930E+01  0.7957747E-01            NaN
         13   -1    0    0    0    0  0.00000000000E+00  0.00000000000E+00  0.74505805969E-08  0.10566000000E+00  0.10566000000E+00 0. -1.
     999900   -1    0    0    0    0 -0.00000000000E+00 -0.00000000000E+00 -0.74505805969E-08  0.93827000000E+00  0.93827000000E+00 0. -1.
     999902    2    1    2    0    0 -0.11558961006E-01 -0.45715973495E-02 -0.61937367048E-02  0.10300421832E+01  0.10299485558E+01 0.  0.
     999903    2    3    3    0    0  0.37224804526E-01  0.14686020606E-01  0.12508628806E+00  0.13875931195E+00  0.44790645447E-01 0.  0.
         14    1    1    2    0    0  0.11558961006E-01  0.45715973495E-02  0.61937367048E-02  0.13887816827E-01  0.00000000000E+00 0. -1.
     999901    1    3    3    0    0 -0.48783765532E-01 -0.19257617956E-01 -0.13128002476E+00  0.89128287122E+00  0.88000000000E+00 0. -1.
        -11    1    4    4    0    0  0.45343132539E-01  0.18067956690E-01  0.87903397882E-01  0.10054709945E+00  0.51100000000E-03 0. -1.
         11    1    4    4    0    0 -0.81183280129E-02 -0.33819360834E-02  0.37182890179E-01  0.38212212504E-01  0.51100000000E-03 0.  1.
</event>
<event>
 8    1  0.1993226E+004  0.1043930E+01  0.7957747E-01            NaN
         13   -1    0    0    0    0  0.00000000000E+00  0.00000000000E+00  0.74505805969E-08  0.10566000000E+00  0.10566000000E+00 0. -1.
     999900   -1    0    0    0    0 -0.00000000000E+00 -0.00000000000E+00 -0.74505805969E-08  0.93827000000E+00  0.93827000000E+00 0.  1.
     999902    2    1    2    0    0  0.48272626621E-02  0.52514669132E-02 -0.14660414328E-01  0.10276263772E+01  0.10274970379E+01 0.  0.
     999903    2    3    3    0    0 -0.12217943155E-01  0.12899190737E+00  0.23562549368E-01  0.13798418470E+00  0.41185570214E-01 0.  0.
         14    1    1    2    0    0 -0.48272626621E-02 -0.52514669132E-02  0.14660414328E-01  0.16303622844E-01  0.00000000000E+00 0. -1.
     999901    1    3    3    0    0  0.17045205817E-01 -0.12374044045E+00 -0.38222963696E-01  0.88964219246E+00  0.88000000000E+00 0.  1.
        -11    1    4    4    0    0  0.92838837424E-02  0.81269686985E-01  0.25261339261E-01  0.85611616631E-01  0.51100000000E-03 0. -1.
         11    1    4    4    0    0 -0.21501826898E-01  0.47722220381E-01 -0.16987898934E-02  0.52372568069E-01  0.51100000000E-03 0.  1.
</event>
<event>
 8    1  0.1993226E+004  0.1043930E+01  0.7957747E-01            NaN
         13   -1    0    0    0    0  0.00000000000E+00  0.00000000000E+00  0.74505805969E-08  0.10566000000E+00  0.10566000000E+00 0.  1.
     999900   -1    0    0    0    0 -0.00000000000E+00 -0.00000000000E+00 -0.74505805969E-08  0.93827000000E+00  0.93827000000E+00 0.  1.
     999902    2    1    2    0    0 -0.34086924016E-02 -0.55602712984E-02  0.11924517992E-01  0.10303384611E+01  0.10302488119E+01 0.  0.
     999903    2    3    3    0    0 -0.97311645630E-01  0.36082297097E-01 -0.81513352275E-01  0.13944985765E+00  0.45059379273E-01 0.  0.
         14    1    1    2    0    0  0.34086924016E-02  0.55602712984E-02 -0.11924517992E-01  0.13591538917E-01  0.00000000000E+00 0. -1.
     999901    1    3    3    0    0  0.93902953228E-01 -0.41642568395E-01  0.93437870267E-01  0.89088860343E+00  0.88000000000E+00 0. -1.
        -11    1    4    4    0    0 -0.60030984696E-01  0.44511848900E-01 -0.50111691850E-01  0.89980367843E-01  0.51100000000E-03 0. -1.
         11    1    4    4    0    0 -0.37280660934E-01 -0.84295518040E-02 -0.31401660425E-01  0.49469489806E-01  0.51100000000E-03 0.  1.
</event>
<event>
 8    1  0.1993226E+004  0.1043930E+01  0.7957747E-01            NaN
         13   -1    0    0    0    0  0.00000000000E+00  0.00000000000E+00  0.74505805969E-08  0.10566000000E+00  0.10566000000E+00 0.  1.
     999900   -1    0    0    0    0 -0.00000000000E+00 -0.00000000000E+00 -0.74505805969E-08  0.93827000000E+00  0.93827000000E+00 0. -1.
     999902    2    1    2    0    0  0.10747817135E-01  0.33725499110E-02  0.84341678885E-02  0.10298578696E+01  0.10297617233E+01 0.  0.
     999903    2    3    3    0    0 -0.13037728845E+00  0.10122110500E-01  0.71323207991E-02  0.13858712128E+00  0.45330185527E-01 0.  0.
         14    1    1    2    0    0 -0.10747817135E-01 -0.33725499110E-02 -0.84341678885E-02  0.14072130402E-01  0.00000000000E+00 0. -1.
     999901    1    3    3    0    0  0.14112510559E+00 -0.67495605886E-02  0.13018470894E-02  0.89127074831E+00  0.88000000000E+00 0.  1.
        -11    1    4    4    0    0 -0.40728048650E-01 -0.83249751088E-02 -0.15385612212E-01  0.44328967296E-01  0.51100000000E-03 0. -1.
         11    1    4    4    0    0 -0.89649239805E-01  0.18447085608E-01  0.22517933012E-01  0.94258153987E-01  0.51100000000E-03 0.  1.
</event>
<event>
 8    1  0.1993226E+004  0.1043930E+01  0.7957747E-01            NaN
         13   -1    0    0    0    0  0.00000000000E+00  0.00000000000E+00  0.74505805969E-08  0.10566000000E+00  0.10566000000E+00 0. -1.
     999900   -1    0    0    0    0 -0.00000000000E+00 -0.00000000000E+00 -0.74505805969E-08  0.93827000000E+00  0.93827000000E+00 0.  1.
     999902    2    1    2    0    0 -0.94584974526E-02 -0.50785514007E-02  0.86666762003E-02  0.10301326765E+01  0.10300402735E+01 0.  0.
     999903    2    3    3    0    0  0.57769037123E-01  0.19543285712E-01 -0.11451183274E+00  0.13867391623E+00  0.48972375258E-01 0.  0.
         14    1    1    2    0    0  0.94584974526E-02  0.50785514007E-02 -0.86666762003E-02  0.13797323463E-01  0.00000000000E+00 0.  1.
     999901    1    3    3    0    0 -0.67227534576E-01 -0.24621837113E-01  0.12317850894E+00  0.89145876031E+00  0.88000000000E+00 0. -1.
        -11    1    4    4    0    0  0.22750828725E-01 -0.16238919287E-01 -0.45728373046E-01  0.53597088818E-01  0.51100000000E-03 0.  1.
         11    1    4    4    0    0  0.35018208398E-01  0.35782204999E-01 -0.68783459691E-01  0.85076827409E-01  0.51100000000E-03 0. -1.
</event>
<event>
 8    1  0.1993226E+004  0.1043930E+01  0.7957747E-01            NaN
         13   -1    0    0    0    0  0.00000000000E+00  0.00000000000E+00  0.74505805969E-08  0.10566000000E+00  0.10566000000E+00 0.  1.
     999900   -1    0    0    0    0 -0.00000000000E+00 -0.00000000000E+00 -0.74505805969E-08  0.93827000000E+00  0.93827000000E+00 0.  1.
     999902    2    1    2    0    0  0.89046499940E-02  0.98309669061E-02  0.28883132587E-02  0.10303549105E+01  0.10302654796E+01 0.  0.
     999903    2    3    3    0    0 -0.80506022412E-01  0.41807832908E-01 -0.95863722043E-01  0.13975468997E+00  0.45960914142E-01 0.  0.
         14    1    1    2    0    0 -0.89046499940E-02 -0.98309669061E-02 -0.28883132587E-02  0.13575089514E-01  0.00000000000E+00 0.  1.
     999901    1    3    3    0    0  0.89410672406E-01 -0.31976866002E-01  0.98752035302E-01  0.89060022051E+00  0.88000000000E+00 0. -1.
        -11    1    4    4    0    0 -0.35677977789E-01  0.42076273618E-01 -0.65353777145E-01  0.85526067422E-01  0.51100000000E-03 0. -1.
         11    1    4    4    0    0 -0.44828044624E-01 -0.26844070987E-03 -0.30509944898E-01  0.54228622552E-01  0.51100000000E-03 0.  1.
</event>
<event>
 8    1  0.1993226E+004  0.1043930E+01  0.7957747E-01            NaN
         13   -1    0    0    0    0  0.00000000000E+00  0.00000000000E+00  0.74505805969E-08  0.10566000000E+00  0.10566000000E+00 0. -1.
     999900   -1    0    0    0    0 -0.00000000000E+00 -0.00000000000E+00 -0.74505805969E-08  0.93827000000E+00  0.93827000000E+00 0. -1.
     999902    2    1    2    0    0 -0.39745439879E-02 -0.81922613099E-02 -0.11385237986E-01  0.10293514613E+01  0.10292482194E+01 0.  0.
     999903    2    3    3    0    0  0.21518909187E-01 -0.12227389072E+00  0.45771064545E-01  0.13978337669E+00  0.45060340051E-01 0.  0.
         14    1    1    2    0    0  0.39745439879E-02  0.81922613099E-02  0.11385237986E-01  0.14578538654E-01  0.00000000000E+00 0. -1.
     999901    1    3    3    0    0 -0.25493453175E-01  0.11408162941E+00 -0.57156302531E-01  0.88956808466E+00  0.88000000000E+00 0.  1.
        -11    1    4    4    0    0  0.24240388786E-01 -0.64777733928E-01  0.52039873769E-02  0.69362049184E-01  0.51100000000E-03 0. -1.
         11    1    4    4    0    0 -0.27214795999E-02 -0.57496156788E-01  0.40567077168E-01  0.70421327505E-01  0.51100000000E-03 0.  1.
</event>
<event>
 8    1  0.1993226E+004  0.1043930E+01  0.7957747E-01            NaN
         13   -1    0    0    0    0  0.00000000000E+00  0.00000000000E+00  0.74505805969E-08  0.10566000000E+00  0.10566000000E+00 0. -1.
     999900   -1    0    0    0    0 -0.00000000000E+00 -0.00000000000E+00 -0.74505805969E-08  0.93827000000E+00  0.93827000000E+00 0. -1.
     999902    2    1    2    0    0  0.51472040047E-02 -0.56316569114E-02 -0.12940468527E-01  0.10289078499E+01  0.10287981816E+01 0.  0.
     999903    2    3    3    0    0 -0.55060172957E-01  0.11727720237E+00  0.15488074703E-01  0.13787491109E+00  0.44542629115E-01 0.  0.
         14    1    1    2    0    0 -0.51472040047E-02  0.56316569114E-02  0.12940468527E-01  0.15022150123E-01  0.00000000000E+00 0. -1.
     999901    1    3    3    0    0  0.60207376961E-01 -0.12290885928E+00 -0.28428543230E-01  0.89103293879E+00  0.88000000000E+00 0. -1.
        -11    1    4    4    0    0 -0.36252118420E-01  0.37629527234E-01  0.19903471062E-01  0.55916068273E-01  0.51100000000E-03 0.  1.
         11    1    4    4    0    0 -0.18808054537E-01  0.79647675136E-01 -0.44153963585E-02  0.81958842818E-01  0.51100000000E-03 0. -1.
</event>
<event>
 8    1  0.1993226E+004  0.1043930E+01  0.7957747E-01            NaN
         13   -1    0    0    0    0  0.00000000000E+00  0.00000000000E+00  0.74505805969E-08  0.10566000000E+00  0.10566000000E+00 0. -1.
     999900   -1    0    0    0    0 -0.00000000000E+00 -0.00000000000E+00 -0.74505805969E-08  0.93827000000E+00  0.93827000000E+00 0.  1.
     999902    2    1    2    0    0  0.13565447153E-01  0.94098257509E-02  0.18243701954E-02  0.10273199276E+01  0.10271856401E+01 0.  0.
     999903    2    3    3    0    0 -0.95215614030E-01  0.60675004484E-01 -0.56038858400E-01  0.13725836177E+00  0.54332632002E-01 0.  0.
         14    1    1    2    0    0 -0.13565447153E-01 -0.94098257509E-02 -0.18243701954E-02  0.16610072358E-01  0.00000000000E+00 0.  1.
     999901    1    3    3    0    0  0.10878106118E+00 -0.51265178733E-01  0.57863228595E-01  0.89006156587E+00  0.88000000000E+00 0. -1.
        -11    1    4    4    0    0 -0.33351056652E-01  0.52989196640E-01 -0.23010862043E-01  0.66707636993E-01  0.51100000000E-03 0. -1.
         11    1    4    4    0    0 -0.61864557379E-01  0.76858078443E-02 -0.33027996357E-01  0.70550724775E-01  0.51100000000E-03 0.  1.
</event>
<event>
 8    1  0.1993226E+004  0.1043930E+01  0.7957747E-01            NaN
         13   -1    0    0    0    0  0.00000000000E+00  0.00000000000E+00  0.74505805969E-08  0.10566000000E+00  0.10566000000E+00 0.  1.
     999900   -1    0    0    0    0 -0.00000000000E+00 -0.00000000000E+00 -0.74505805969E-08  0.93827000000E+00  0.93827000000E+00 0. -1.
     999902    2    1    2    0    0 -0.87693034192E-02  0.82252843728E-02 -0.66273697854E-02  0.10302012704E+01  0.10301097901E+01 0.  0.
     999903    2    3    3    0    0 -0.99117328073E-01  0.73249142144E-01 -0.53939752132E-01  0.14192804154E+00  0.45214937408E-01 0.  0.
         14    1    1    2    0    0  0.87693034192E-02 -0.82252843728E-02  0.66273697854E-02  0.13728729575E-01  0.00000000000E+00 0.  1.
     999901    1    3    3    0    0  0.90348024654E-01 -0.65023857771E-01  0.47312382347E-01  0.88827322889E+00  0.88000000000E+00 0. -1.
        -11    1    4    4    0    0 -0.17482822882E-01  0.97808181384E-02  0.77881982129E-02  0.21499550036E-01  0.51100000000E-03 0. -1.
         11    1    4    4    0    0 -0.81634505191E-01  0.63468324006E-01 -0.61727950345E-01  0.12042849150E+00  0.51100000000E-03 0.  1.
</event>
<event>
 8    1  0.1993226E+004  0.1043930E+01  0.7957747E-01            NaN
         13   -1    0    0    0    0  0.00000000000E+00  0.00000000000E+00  0.74505805969E-08  0.10566000000E+00  0.10566000000E+00 0.  1.
     999900   -1    0    0    0    0 -0.00000000000E+00 -0.00000000000E+00 -0.74505805969E-08  0.93827000000E+00  0.93827000000E+00 0. -1.
     999902    2    1    2    0    0 -0.11841542902E-01 -0.53446686188E-02  0.19309699239E-02  0.10307954553E+01  0.10307117707E+01 0.  0.
     999903    2    3    3    0    0  0.46637491823E-01  0.90683316498E-01  0.83644553804E-01  0.13988677238E+00  0.46619504186E-01 0.  0.
         14    1    1    2    0    0  0.11841542902E-01  0.53446686188E-02 -0.19309699239E-02  0.13134544750E-01  0.00000000000E+00 0. -1.
     999901    1    3    3    0    0 -0.58479034724E-01 -0.96027985117E-01 -0.81713583880E-01  0.89090868287E+00  0.88000000000E+00 0.  1.
        -11    1    4    4    0    0  0.48100883265E-01  0.78580679904E-01  0.87527405794E-01  0.12708235956E+00  0.51100000000E-03 0.  1.
         11    1    4    4    0    0 -0.14633914421E-02  0.12102636593E-01 -0.38828519908E-02  0.12804412818E-01  0.51100000000E-03 0. -1.
</event>
<event>
 8    1  0.1993226E+004  0.1043930E+01  0.7957747E-01            NaN
         13   -1    0    0    0    0  0.00000000000E+00  0.00000000000E+00  0.74505805969E-08  0.10566000000E+00  0.10566000000E+00 0.  1.
     999900   -1    0    0    0    0 -0.00000000000E+00 -0.00000000000E+00 -0.74505805969E-08  0.93827000000E+00  0.93827000000E+00 0.  1.
     999902    2    1    2    0    0 -0.11408126625E-01 -0.42708682099E-02  0.53858015632E-02  0.10306111214E+01  0.10305250560E+01 0.  0.
     999903    2    3    3    0    0  0.93881794305E-01  0.26369882941E-01  0.89766139999E-01  0.13979976956E+00  0.44461822379E-01 0.  0.
         14    1    1    2    0    0  0.11408126625E-01  0.42708682099E-02 -0.53858015632E-02  0.13318878588E-01  0.00000000000E+00 0. -1.
     999901    1    3    3    0    0 -0.10528992093E+00 -0.30640751151E-01 -0.84380338436E-01  0.89081135186E+00  0.88000000000E+00 0.  1.
        -11    1    4    4    0    0  0.65187971673E-01 -0.25026883341E-02  0.44775981049E-01  0.79125752443E-01  0.51100000000E-03 0.  1.
         11    1    4    4    0    0  0.28693822632E-01  0.28872571275E-01  0.44990158950E-01  0.60674017113E-01  0.51100000000E-03 0. -1.
</event>
<event>
 8    1  0.1993226E+004  0.1043930E+01  0.7957747E-01            NaN
         13   -1    0    0    0    0  0.00000000000E+00  0.00000000000E+00  0.74505805969E-08  0.10566000000E+00  0.10566000000E+00 0.  1.
     999900   -1    0    0    0    0 -0.00000000000E+00 -0.00000000000E+00 -0.74505805969E-08  0.93827000000E+00  0.93827000000E+00 0. -1.
     999902    2    1    2    0    0  0.88764425662E-02 -0.83734844496E-02 -0.70293193878E-02  0.10298474645E+01  0.10297511750E+01 0.  0.
     999903    2    3    3    0    0 -0.88360443790E-01  0.83653622901E-01 -0.48709996983E-01  0.13874630335E+00  0.45523359234E-01 0.  0.
         14    1    1    2    0    0 -0.88764425662E-02  0.83734844496E-02  0.70293193878E-02  0.14082535479E-01  0.00000000000E+00 0.  1.
     999901    1    3    3    0    0  0.97236886356E-01 -0.92027107351E-01  0.41680677596E-01  0.89110116117E+00  0.88000000000E+00 0.  1.
        -11    1    4    4    0    0 -0.62157931821E-01  0.47478559547E-01 -0.52045727976E-01  0.93951269424E-01  0.51100000000E-03 0. -1.
         11    1    4    4    0    0 -0.26202511969E-01  0.36175063354E-01  0.33357309924E-02  0.44795033926E-01  0.51100000000E-03 0.  1.
</event>
<event>
 8    1  0.1993226E+004  0.1043930E+01  0.7957747E-01            NaN
         13   -1    0    0    0    0  0.00000000000E+00  0.00000000000E+00  0.74505805969E-08  0.10566000000E+00  0.10566000000E+00 0.  1.
     999900   -1    0    0    0    0 -0.00000000000E+00 -0.00000000000E+00 -0.74505805969E-08  0.93827000000E+00  0.93827000000E+00 0.  1.
     999902    2    1    2    0    0 -0.48449445565E-02 -0.97377032545E-02  0.93459944174E-02  0.10295897084E+01  0.10294898366E+01 0.  0.
     999903    2    3    3    0    0 -0.31857781915E-01 -0.11282371111E+00  0.64821775373E-01  0.14142644597E+00  0.45337280461E-01 0.  0.
         14    1    1    2    0    0  0.48449445565E-02  0.97377032545E-02 -0.93459944174E-02  0.14340291632E-01  0.00000000000E+00 0. -1.
     999901    1    3    3    0    0  0.27012837358E-01  0.10308600786E+00 -0.55475780956E-01  0.88816326240E+00  0.88000000000E+00 0. -1.
        -11    1    4    4    0    0  0.38623541098E-02 -0.67583811525E-01  0.40298868220E-01  0.78782924929E-01  0.51100000000E-03 0.  1.
         11    1    4    4    0    0 -0.35720136024E-01 -0.45239899589E-01  0.24522907153E-01  0.62643521043E-01  0.51100000000E-03 0. -1.
</event>
<event>
 8    1  0.1993226E+004  0.1043930E+01  0.7957747E-01            NaN
         13   -1    0    0    0    0  0.00000000000E+00  0.00000000000E+00  0.74505805969E-08  0.10566000000E+00  0.10566000000E+00 0.  1.
     999900   -1    0    0    0    0 -0.00000000000E+00 -0.00000000000E+00 -0.74505805969E-08  0.93827000000E+00  0.93827000000E+00 0. -1.
     999902    2    1    2    0    0  0.31717679761E-02 -0.62635495951E-02  0.11323048488E-01  0.10306069526E+01  0.10305208329E+01 0.  0.
     999903    2    3    3    0    0  0.22073384861E-01  0.32503298276E-01  0.12858308371E+00  0.14178185421E+00  0.44997622715E-01 0.  0.
         14    1    1    2    0    0 -0.31717679761E-02  0.62635495951E-02 -0.11323048488E-01  0.13323047425E-01  0.00000000000E+00 0.  1.
     999901    1    3    3    0    0 -0.18901616885E-01 -0.38766847871E-01 -0.11726003522E+00  0.88882509836E+00  0.88000000000E+00 0. -1.
        -11    1    4    4    0    0  0.26099629792E-01  0.10669873458E-01  0.10758226753E+00  0.11121709528E+00  0.51100000000E-03 0. -1.
         11    1    4    4    0    0 -0.40262449307E-02  0.21833424817E-01  0.21000816186E-01  0.30564758938E-01  0.51100000000E-03 0.  1.
</event>
<event>
 8    1  0.1993226E+004  0.1043930E+01  0.7957747E-01            NaN
         13   -1    0    0    0    0  0.00000000000E+00  0.00000000000E+00  0.74505805969E-08  0.10566000000E+00  0.10566000000E+00 0. -1.
     999900   -1    0    0    0    0 -0.00000000000E+00 -0.00000000000E+00 -0.74505805969E-08  0.93827000000E+00  0.93827000000E+00 0. -1.
     999902    2    1    2    0    0 -0.65267604348E-02  0.90355526680E-02  0.80188307129E-02  0.10301989600E+01  0.10301074486E+01 0.  0.
     999903    2    3    3    0    0  0.12196054079E+00  0.24665196266E-01 -0.42716426750E-01  0.13928519386E+00  0.45748515778E-01 0.  0.
         14    1    1    2    0    0  0.65267604348E-02 -0.90355526680E-02 -0.80188307129E-02  0.13731040011E-01  0.00000000000E+00 0. -1.
     999901    1    3    3    0    0 -0.12848730123E+00 -0.15629643598E-01  0.50735257463E-01  0.89091376613E+00  0.88000000000E+00 0.  1.
        -11    1    4    4    0    0  0.10716375650E+00  0.10455777723E-01 -0.21559631332E-01  0.10981107786E+00  0.51100000000E-03 0.  1.
         11    1    4    4    0    0  0.14796784289E-01  0.14209418543E-01 -0.21156795418E-01  0.29474116000E-01  0.51100000000E-03 0. -1.
</event>
<event>
 8    1  0.1993226E+004  0.1043930E+01  0.7957747E-01            NaN
         13   -1    0    0    0    0  0.00000000000E+00  0.00000000000E+00  0.74505805969E-08  0.10566000000E+00  0.10566000000E+00 0.  1.
     999900   -1    0    0    0    0 -0.00000000000E+00 -0.00000000000E+00 -0.74505805969E-08  0.93827000000E+00  0.93827000000E+00 0.  1.
     999902    2    1    2    0    0  0.79416632680E-02  0.76266739634E-03 -0.11645542424E-01  0.10298136855E+01  0.10297169303E+01 0.  0.
     999903    2    3    3    0    0 -0.28163934996E-01  0.39128935076E-01 -0.12469097395E+00  0.14101964055E+00  0.44882282061E-01 0.  0.
         14    1    1    2    0    0 -0.79416632680E-02 -0.76266739634E-03  0.11645542424E-01  0.14116314511E-01  0.00000000000E+00 0.  1.
     999901    1    3    3    0    0  0.36105598264E-01 -0.38366267680E-01  0.11304543153E+00  0.88879404493E+00  0.88000000000E+00 0. -1.
        -11    1    4    4    0    0 -0.31360543081E-01  0.12037467260E-01 -0.41071294749E-01  0.53061253790E-01  0.51100000000E-03 0. -1.
         11    1    4    4    0    0  0.31966080849E-02  0.27091467816E-01 -0.83619679200E-01  0.87958386765E-01  0.51100000000E-03 0.  1.
</event>
<event>
 8    1  0.1993226E+004  0.1043930E+01  0.7957747E-01            NaN
         13   -1    0    0    0    0  0.00000000000E+00  0.00000000000E+00  0.74505805969E-08  0.10566000000E+00  0.10566000000E+00 0.  1.
     999900   -1    0    0    0    0 -0.00000000000E+00 -0.00000000000E+00 -0.74505805969E-08  0.93827000000E+00  0.93827000000E+00 0.  1.
     999902    2    1    2    0    0 -0.12724639540E-01  0.16805430782E-02 -0.94485198460E-02  0.10279921456E+01  0.10278685890E+01 0.  0.
     999903    2    3    3    0    0 -0.61542969990E-01 -0.11159886142E+00  0.27609473444E-01  0.13861666371E+00  0.47015459247E-01 0.  0.
         14    1    1    2    0    0  0.12724639540E-01 -0.16805430782E-02  0.94485198460E-02  0.15937854427E-01  0.00000000000E+00 0.  1.
     999901    1    3    3    0    0  0.48818330451E-01  0.11327940450E+00 -0.37057993290E-01  0.88937548186E+00  0.88000000000E+00 0.  1.
        -11    1    4    4    0    0 -0.55662398960E-02 -0.44692682329E-01 -0.53597002288E-02  0.45358641821E-01  0.51100000000E-03 0.  1.
         11    1    4    4    0    0 -0.55976730094E-01 -0.66906179094E-01  0.32969173673E-01  0.93258021889E-01  0.51100000000E-03 0. -1.
</event>
<event>
 8    1  0.1993226E+004  0.1043930E+01  0.7957747E-01            NaN
         13   -1    0    0    0    0  0.00000000000E+00  0.00000000000E+00  0.74505805969E-08  0.10566000000E+00  0.10566000000E+00 0. -1.
     999900   -1    0    0    0    0 -0.00000000000E+00 -0.00000000000E+00 -0.74505805969E-08  0.93827000000E+00  0.93827000000E+00 0. -1.
     999902    2    1    2    0    0  0.73949993748E-02 -0.11880677556E-01  0.26091222853E-02  0.10296946906E+01  0.10295962858E+01 0.  0.
     999903    2    3    3    0    0 -0.79642606976E-01  0.68701843632E-01 -0.71842844326E-01  0.13862107804E+00  0.54694797127E-01 0.  0.
         14    1    1    2    0    0 -0.73949993748E-02  0.11880677556E-01 -0.26091222853E-02  0.14235309412E-01  0.00000000000E+00 0.  1.
     999901    1    3    3    0    0  0.87037606351E-01 -0.80582521188E-01  0.74451966612E-01  0.89107361254E+00  0.88000000000E+00 0.  1.
        -11    1    4    4    0    0 -0.48752956356E-01  0.66935628142E-01 -0.68550855419E-01  0.10750213936E+00  0.51100000000E-03 0. -1.
         11    1    4    4    0    0 -0.30889650620E-01  0.17662154897E-02 -0.32919889076E-02  0.31118938680E-01  0.51100000000E-03 0.  1.
</event>
<event>
 8    1  0.1993226E+004  0.1043930E+01  0.7957747E-01            NaN
         13   -1    0    0    0    0  0.00000000000E+00  0.00000000000E+00  0.74505805969E-08  0.10566000000E+00  0.10566000000E+00 0.  1.
     999900   -1    0    0    0    0 -0.00000000000E+00 -0.00000000000E+00 -0.74505805969E-08  0.93827000000E+00  0.93827000000E+00 0. -1.
     999902    2    1    2    0    0  0.15752715788E-01 -0.18687289908E-02  0.12344649190E-02  0.10280188685E+01  0.10278957291E+01 0.  0.
     999903    2    3    3    0    0  0.69238736010E-01 -0.64357977225E-01  0.92024555844E-01  0.13953223317E+00  0.45439777935E-01 0.  0.
         14    1    1    2    0    0 -0.15752715788E-01  0.18687289908E-02 -0.12344649190E-02  0.15911131524E-01  0.00000000000E+00 0. -1.
     999901    1    3    3    0    0 -0.53486020223E-01  0.62489248234E-01 -0.90790090925E-01  0.88848663530E+00  0.88000000000E+00 0. -1.
        -11    1    4    4    0    0  0.21882300448E-01 -0.50733315414E-01  0.42933450527E-01  0.69973185300E-01  0.51100000000E-03 0.  1.
         11    1    4    4    0    0  0.47356435562E-01 -0.13624661811E-01  0.49091105317E-01  0.69559047872E-01  0.51100000000E-03 0. -1.
</event>
<event>
 8    1  0.1993226E+004  0.1043930E+01  0.7957747E-01            NaN
         13   -1    0    0    0    0  0.00000000000E+00  0.00000000000E+00  0.74505805969E-08  0.10566000000E+00  0.10566000000E+00 0. -1.
     999900   -1    0    0    0    0 -0.00000000000E+00 -0.00000000000E+00 -0.74505805969E-08  0.93827000000E+00  0.93827000000E+00 0. -1.
     999902    2    1    2    0    0  0.10690160120E-01  0.16011042216E-01 -0.80606257426E-02  0.10230588073E+01  0.10228458909E+01 0.  0.
     999903    2    3    3    0    0  0.33419295044E-01 -0.11831866716E+00  0.18803458512E-01  0.13217005815E+00  0.44712391332E-01 0.  0.
         14    1    1    2    0    0 -0.10690160120E-01 -0.16011042216E-01  0.80606257426E-02  0.20871192673E-01  0.00000000000E+00 0. -1.
     999901    1    3    3    0    0 -0.22729134924E-01  0.13432970937E+00 -0.26864084254E-01  0.89088874918E+00  0.88000000000E+00 0.  1.
        -11    1    4    4    0    0  0.32933040216E-01 -0.40591198162E-01  0.14837729638E-01  0.54338290807E-01  0.51100000000E-03 0. -1.
         11    1    4    4    0    0  0.48625482865E-03 -0.77727468998E-01  0.39657288733E-02  0.77831767338E-01  0.51100000000E-03 0.  1.
</event>
<event>
 8    1  0.1993226E+004  0.1043930E+01  0.7957747E-01            NaN
         13   -1    0    0    0    0  0.00000000000E+00  0.00000000000E+00  0.74505805969E-08  0.10566000000E+00  0.10566000000E+00 0. -1.
     999900   -1    0    0    0    0 -0.00000000000E+00 -0.00000000000E+00 -0.74505805969E-08  0.93827000000E+00  0.93827000000E+00 0.  1.
     999902    2    1    2    0    0 -0.77175695328E-02  0.10698450131E-02 -0.10753168498E-01  0.10306508404E+01  0.10305652908E+01 0.  0.
     999903    2    3    3    0    0  0.23783791936E-01  0.75984027950E-01 -0.10807453020E+00  0.14156371414E+00  0.44954864252E-01 0.  0.
         14    1    1    2    0    0  0.77175695328E-02 -0.10698450131E-02  0.10753168498E-01  0.13279159634E-01  0.00000000000E+00 0. -1.
     999901    1    3    3    0    0 -0.31501361469E-01 -0.74914182937E-01  0.97321361703E-01  0.88908712623E+00  0.88000000000E+00 0. -1.
        -11    1    4    4    0    0 -0.97252477174E-02  0.32168808807E-01 -0.58145339718E-01  0.67160660770E-01  0.51100000000E-03 0. -1.
         11    1    4    4    0    0  0.33509039654E-01  0.43815219143E-01 -0.49929190484E-01  0.74403053368E-01  0.51100000000E-03 0.  1.
</event>
<event>
 8    1  0.1993226E+004  0.1043930E+01  0.7957747E-01            NaN
         13   -1    0    0    0    0  0.00000000000E+00  0.00000000000E+00  0.74505805969E-08  0.10566000000E+00  0.10566000000E+00 0. -1.
     999900   -1    0    0    0    0 -0.00000000000E+00 -0.00000000000E+00 -0.74505805969E-08  0.93827000000E+00  0.93827000000E+00 0. -1.
     999902    2    1    2    0    0  0.68900793446E-02  0.12725534625E-01  0.44948955591E-02  0.10287768976E+01  0.10286652947E+01 0.  0.
     999903    2    3    3    0    0 -0.10970954531E+00 -0.22699044353E-01 -0.65894737114E-01  0.13759505669E+00  0.45153652106E-01 0.  0.
         14    1    1    2    0    0 -0.68900793446E-02 -0.12725534625E-01 -0.44948955591E-02  0.15153102354E-01  0.00000000000E+00 0. -1.
     999901    1    3    3    0    0  0.11659962466E+00  0.35424578978E-01  0.70389632673E-01  0.89118184096E+00  0.88000000000E+00 0. -1.
        -11    1    4    4    0    0 -0.75000448846E-01 -0.31490214319E-01 -0.29475502176E-01  0.86520328677E-01  0.51100000000E-03 0.  1.
         11    1    4    4    0    0 -0.34709096466E-01  0.87911699661E-02 -0.36419234938E-01  0.51074728010E-01  0.51100000000E-03 0. -1.
</event>
<event>
 8    1  0.1993226E+004  0.1043930E+01  0.7957747E-01            NaN
         13   -1    0    0    0    0  0.00000000000E+00  0.00000000000E+00  0.74505805969E-08  0.10566000000E+00  0.10566000000E+00 0. -1.
     999900   -1    0    0    0    0 -0.00000000000E+00 -0.00000000000E+00 -0.74505805969E-08  0.93827000000E+00  0.93827000000E+00 0. -1.
     999902    2    1    2    0    0  0.24069417102E-02  0.86879713625E-02 -0.10653769077E-01  0.10299737466E+01  0.10298791879E+01 0.  0.
     999903    2    3    3    0    0  0.87362062740E-02 -0.97352720021E-01  0.86670256953E-01  0.13825817875E+00  0.45273802081E-01 0.  0.
         14    1    1    2    0    0 -0.24069417102E-02 -0.86879713625E-02  0.10653769077E-01  0.13956253449E-01  0.00000000000E+00 0. -1.
     999901    1    3    3    0    0 -0.63292645639E-02  0.10604069138E+00 -0.97324026030E-01  0.89171556780E+00  0.88000000000E+00 0. -1.
        -11    1    4    4    0    0  0.25658833025E-01 -0.45921277873E-01  0.33477642913E-01  0.62355057291E-01  0.51100000000E-03 0.  1.
         11    1    4    4    0    0 -0.16922626751E-01 -0.51431442148E-01  0.53192614040E-01  0.75903121457E-01  0.51100000000E-03 0. -1.
</event>
<event>
 8    1  0.1993226E+004  0.1043930E+01  0.7957747E-01            NaN
         13   -1    0    0    0    0  0.00000000000E+00  0.00000000000E+00  0.74505805969E-08  0.10566000000E+00  0.10566000000E+00 0. -1.
     999900   -1    0    0    0    0 -0.00000000000E+00 -0.00000000000E+00 -0.74505805969E-08  0.93827000000E+00  0.93827000000E+00 0.  1.
     999902    2    1    2    0    0  0.11809227058E-01  0.10852457145E-02 -0.65847612101E-02  0.10303655361E+01  0.10302762461E+01 0.  0.
     999903    2    3    3    0    0  0.13092701164E+00  0.62881818849E-02 -0.30198031168E-01  0.14201104394E+00  0.45538905401E-01 0.  0.
         14    1    1    2    0    0 -0.11809227058E-01 -0.10852457145E-02  0.65847612101E-02  0.13564463946E-01  0.00000000000E+00 0. -1.
     999901    1    3    3    0    0 -0.11911778458E+00 -0.52029361704E-02  0.23613269958E-01  0.88835449212E+00  0.88000000000E+00 0.  1.
        -11    1    4    4    0    0  0.33013382114E-01 -0.59986391697E-02 -0.27342762973E-01  0.43286890377E-01  0.51100000000E-03 0.  1.
         11    1    4    4    0    0  0.97913629525E-01  0.12286821055E-01 -0.28552681948E-02  0.98724153559E-01  0.51100000000E-03 0. -1.
</event>
<event>
 8    1  0.1993226E+004  0.1043930E+01  0.7957747E-01            NaN
         13   -1    0    0    0    0  0.00000000000E+00  0.00000000000E+00  0.74505805969E-08  0.10566000000E+00  0.10566000000E+00 0. -1.
     999900   -1    0    0    0    0 -0.00000000000E+00 -0.00000000000E+00 -0.74505805969E-08  0.93827000000E+00  0.93827000000E+00 0.  1.
     999902    2    1    2    0    0  0.74486463500E-02 -0.13208780297E-01  0.27151419179E-02  0.10285246047E+01  0.10284092260E+01 0.  0.
     999903    2    3    3    0    0 -0.33770540226E-01 -0.12574368903E+00 -0.24510179169E-01  0.13998403434E+00  0.45197967543E-01 0.  0.
         14    1    1    2    0    0 -0.74486463500E-02  0.13208780297E-01 -0.27151419179E-02  0.15405395322E-01  0.00000000000E+00 0.  1.
     999901    1    3    3    0    0  0.41219186576E-01  0.11253490873E+00  0.27225321087E-01  0.88854057034E+00  0.88000000000E+00 0. -1.
        -11    1    4    4    0    0 -0.11629771587E-01 -0.71588226361E-02 -0.12897625336E-01  0.18791226383E-01  0.51100000000E-03 0.  1.
         11    1    4    4    0    0 -0.22140768640E-01 -0.11858486639E+00 -0.11612553833E-01  0.12119280796E+00  0.51100000000E-03 0. -1.
</event>
<event>
 8    1  0.1993226E+004  0.1043930E+01  0.7957747E-01            NaN
         13   -1    0    0    0    0  0.00000000000E+00  0.00000000000E+00  0.74505805969E-08  0.10566000000E+00  0.10566000000E+00 0.  1.
     999900   -1    0    0    0    0 -0.00000000000E+00 -0.00000000000E+00 -0.74505805969E-08  0.93827000000E+00  0.93827000000E+00 0. -1.
     999902    2    1    2    0    0  0.32785414510E-03 -0.91238620467E-02  0.10384723253E-01  0.10301026783E+01  0.10300098704E+01 0.  0.
     999903    2    3    3    0    0 -0.69185644858E-01 -0.82143832333E-01 -0.78341240451E-01  0.13991374377E+00  0.43637633951E-01 0.  0.
         14    1    1    2    0    0 -0.32785414510E-03  0.91238620467E-02 -0.10384723253E-01  0.13827321651E-01  0.00000000000E+00 0. -1.
     999901    1    3    3    0    0  0.69513499003E-01  0.73019970286E-01  0.88725963704E-01  0.89018893457E+00  0.88000000000E+00 0.  1.
        -11    1    4    4    0    0 -0.63385445712E-01 -0.43673761137E-01 -0.53762871183E-01  0.93892595975E-01  0.51100000000E-03 0. -1.
         11    1    4    4    0    0 -0.58001991454E-02 -0.38470071196E-01 -0.24578369268E-01  0.46021147800E-01  0.51100000000E-03 0.  1.
</event>
<event>
 8    1  0.1993226E+004  0.1043930E+01  0.7957747E-01            NaN
         13   -1    0    0    0    0  0.00000000000E+00  0.00000000000E+00  0.74505805969E-08  0.10566000000E+00  0.10566000000E+00 0. -1.
     999900   -1    0    0    0    0 -0.00000000000E+00 -0.00000000000E+00 -0.74505805969E-08  0.93827000000E+00  0.93827000000E+00 0.  1.
     999902    2    1    2    0    0 -0.14196334540E-01 -0.12056365719E-01 -0.42386533265E-02  0.10248287422E+01  0.10246507174E+01 0.  0.
     999903    2    3    3    0    0  0.83447163247E-02  0.11190956530E+00  0.57410970356E-01  0.13371913773E+00  0.44625140680E-01 0.  0.
         14    1    1    2    0    0  0.14196334540E-01  0.12056365719E-01  0.42386533265E-02  0.19101257831E-01  0.00000000000E+00 0. -1.
     999901    1    3    3    0    0 -0.22541050865E-01 -0.12396593102E+00 -0.61649623682E-01  0.89110960444E+00  0.88000000000E+00 0.  1.
        -11    1    4    4    0    0 -0.17371884871E-01  0.28484068407E-01  0.13470749652E-01  0.35983979132E-01  0.51100000000E-03 0. -1.
         11    1    4    4    0    0  0.25716601195E-01  0.83425496895E-01  0.43940220703E-01  0.97735158596E-01  0.51100000000E-03 0.  1.
</event>
<event>
 8    1  0.2034132E+004  0.1043930E+01  0.7957747E-01            NaN
         13   -1    0    0    0    0  0.00000000000E+00  0.00000000000E+00  0.74505805969E-08  0.10566000000E+00  0.10566000000E+00 0.  1.
     999900   -1    0    0    0    0 -0.00000000000E+00 -0.00000000000E+00 -0.74505805969E-08  0.93827000000E+00  0.93827000000E+00 0. -1.
     999902    2    1    2    0    0 -0.94814082074E-02  0.10553987544E-01 -0.89456304470E-03  0.10297143749E+01  0.10296162440E+01 0.  0.
     999903    2    3    3    0    0  0.24609632524E-01  0.12960954668E+00  0.19648352088E-01  0.14080581007E+00  0.45121500483E-01 0.  0.
         14    1    1    2    0    0  0.94814082074E-02 -0.10553987544E-01  0.89456304470E-03  0.14215625126E-01  0.00000000000E+00 0. -1.
     999901    1    3    3    0    0 -0.34091040731E-01 -0.11905555914E+00 -0.20542915133E-01  0.88890856480E+00  0.88000000000E+00 0. -1.
        -11    1    4    4    0    0  0.34261396058E-01  0.75235404397E-01  0.21937135831E-01  0.85531914418E-01  0.51100000000E-03 0. -1.
         11    1    4    4    0    0 -0.96517635339E-02  0.54374142285E-01 -0.22887837435E-02  0.55273895652E-01  0.51100000000E-03 0.  1.
</event>
<event>
 8    1  0.1993226E+004  0.1043930E+01  0.7957747E-01            NaN
         13   -1    0    0    0    0  0.00000000000E+00  0.00000000000E+00  0.74505805969E-08  0.10566000000E+00  0.10566000000E+00 0. -1.
     999900   -1    0    0    0    0 -0.00000000000E+00 -0.00000000000E+00 -0.74505805969E-08  0.93827000000E+00  0.93827000000E+00 0. -1.
     999902    2    1    2    0    0  0.11166821998E-01 -0.69618480293E-02  0.42088799283E-02  0.10301140704E+01  0.10300214163E+01 0.  0.
     999903    2    3    3    0    0  0.69035305608E-01 -0.68487211600E-02  0.11470072599E+00  0.14131869333E+00  0.44743023342E-01 0.  0.
         14    1    1    2    0    0 -0.11166821998E-01  0.69618480293E-02 -0.42088799283E-02  0.13815929638E-01  0.00000000000E+00 0.  1.
     999901    1    3    3    0    0 -0.57868483610E-01 -0.11312686931E-03 -0.11049184607E+00  0.88879537704E+00  0.88000000000E+00 0. -1.
        -11    1    4    4    0    0  0.22424325134E-01 -0.15671211528E-01  0.15721581329E-01  0.31557352058E-01  0.51100000000E-03 0.  1.
         11    1    4    4    0    0  0.46610980474E-01  0.88224903683E-02  0.98979144666E-01  0.10976134127E+00  0.51100000000E-03 0. -1.
</event>
<event>
 8    1  0.1993226E+004  0.1043930E+01  0.7957747E-01            NaN
         13   -1    0    0    0    0  0.00000000000E+00  0.00000000000E+00  0.74505805969E-08  0.10566000000E+00  0.10566000000E+00 0.  1.
     999900   -1    0    0    0    0 -0.00000000000E+00 -0.00000000000E+00 -0.74505805969E-08  0.93827000000E+00  0.93827000000E+00 0.  1.
     999902    2    1    2    0    0  0.56971628644E-02 -0.12754717118E-01 -0.23299331326E-02  0.10297677593E+01  0.10296703691E+01 0.  0.
     999903    2    3    3    0    0 -0.12054363556E+00  0.40490495519E-01  0.30769293639E-01  0.13855097833E+00  0.45600173953E-01 0.  0.
         14    1    1    2    0    0 -0.56971628644E-02  0.12754717118E-01  0.23299331326E-02  0.14162240708E-01  0.00000000000E+00 0. -1.
     999901    1    3    3    0    0  0.12624079842E+00 -0.53245212638E-01 -0.33099226772E-01  0.89121678096E+00  0.88000000000E+00 0.  1.
        -11    1    4    4    0    0 -0.29946912572E-01  0.32411596192E-01  0.10405471532E-01  0.45341637587E-01  0.51100000000E-03 0. -1.
         11    1    4    4    0    0 -0.90596722985E-01  0.80788993279E-02  0.20363822107E-01  0.93209340743E-01  0.51100000000E-03 0.  1.
</event>
<event>
 8    1  0.1993226E+004  0.1043930E+01  0.7957747E-01            NaN
         13   -1    0    0    0    0  0.00000000000E+00  0.00000000000E+00  0.74505805969E-08  0.10566000000E+00  0.10566000000E+00 0.  1.
     999900   -1    0    0    0    0 -0.00000000000E+00 -0.00000000000E+00 -0.74505805969E-08  0.93827000000E+00  0.93827000000E+00 0. -1.
     999902    2    1    2    0    0 -0.11033613802E-01  0.10837133339E-01  0.39309597002E-02  0.10279726651E+01  0.10278488039E+01 0.  0.
     999903    2    3    3    0    0 -0.18979919619E-01  0.30065820278E-01  0.12681469890E+00  0.13919074611E+00  0.45032266758E-01 0.  0.
         14    1    1    2    0    0  0.11033613802E-01 -0.10837133339E-01 -0.39309597002E-02  0.15957334887E-01  0.00000000000E+00 0. -1.
     999901    1    3    3    0    0  0.79463058162E-02 -0.19228686940E-01 -0.12288373920E+00  0.88878191900E+00  0.88000000000E+00 0. -1.
        -11    1    4    4    0    0 -0.23939489055E-01 -0.23257738613E-02  0.63335516610E-01  0.67750698487E-01  0.51100000000E-03 0. -1.
         11    1    4    4    0    0  0.49595694368E-02  0.32391594140E-01  0.63479182289E-01  0.71440047628E-01  0.51100000000E-03 0.  1.
</event>
<event>
 8    1  0.1993226E+004  0.1043930E+01  0.7957747E-01            NaN
         13   -1    0    0    0    0  0.00000000000E+00  0.00000000000E+00  0.74505805969E-08  0.10566000000E+00  0.10566000000E+00 0.  1.
     999900   -1    0    0    0    0 -0.00000000000E+00 -0.00000000000E+00 -0.74505805969E-08  0.93827000000E+00  0.93827000000E+00 0.  1.
     999902    2    1    2    0    0  0.11586839262E-02  0.62854372385E-02  0.11963169327E-01  0.10303665679E+01  0.10302772916E+01 0.  0.
     999903    2    3    3    0    0  0.86785744350E-02 -0.77419900416E-01  0.10877799158E+00  0.14107682766E+00  0.44730987209E-01 0.  0.
         14    1    1    2    0    0 -0.11586839262E-02 -0.62854372385E-02 -0.11963169327E-01  0.13563432090E-01  0.00000000000E+00 0. -1.
     999901    1    3    3    0    0 -0.75198905088E-02  0.83705337655E-01 -0.96814822250E-01  0.88928974025E+00  0.88000000000E+00 0.  1.
        -11    1    4    4    0    0  0.26400859837E-01 -0.37526663571E-01  0.61413851168E-01  0.76662755724E-01  0.51100000000E-03 0.  1.
         11    1    4    4    0    0 -0.17722285402E-01 -0.39893236845E-01  0.47364140408E-01  0.64414071937E-01  0.51100000000E-03 0. -1.
</event>
<event>
 8    1  0.1993226E+004  0.1043930E+01  0.7957747E-01            NaN
         13   -1    0    0    0    0  0.00000000000E+00  0.00000000000E+00  0.74505805969E-08  0.10566000000E+00  0.10566000000E+00 0.  1.
     999900   -1    0    0    0    0 -0.00000000000E+00 -0.00000000000E+00 -0.74505805969E-08  0.93827000000E+00  0.93827000000E+00 0. -1.
     999902    2    1    2    0    0 -0.84434612331E-02  0.65474528863E-02  0.96624323339E-02  0.10295243145E+01  0.10294235233E+01 0.  0.
     999903    2    3    3    0    0 -0.12153904771E+00  0.52787457227E-01 -0.15803001402E-01  0.14071767746E+00  0.44648338585E-01 0.  0.
         14    1    1    2    0    0  0.84434612331E-02 -0.65474528863E-02 -0.96624323339E-02  0.14405685527E-01  0.00000000000E+00 0. -1.
     999901    1    3    3    0    0  0.11309558648E+00 -0.46240004340E-01  0.25465433736E-01  0.88880663701E+00  0.88000000000E+00 0. -1.
        -11    1    4    4    0    0 -0.83700785127E-02  0.11442172886E-01 -0.14413481047E-01  0.20223528168E-01  0.51100000000E-03 0.  1.
         11    1    4    4    0    0 -0.11316896920E+00  0.41345284341E-01 -0.13895203553E-02  0.12049414929E+00  0.51100000000E-03 0. -1.
</event>
<event>
 8    1  0.1993226E+004  0.1043930E+01  0.7957747E-01            NaN
         13   -1    0    0    0    0  0.00000000000E+00  0.00000000000E+00  0.74505805969E-08  0.10566000000E+00  0.10566000000E+00 0.  1.
     999900   -1    0    0    0    0 -0.00000000000E+00 -0.00000000000E+00 -0.74505805969E-08  0.93827000000E+00  0.93827000000E+00 0. -1.
     999902    2    1    2    0    0 -0.48941018648E-02  0.12616464107E-01  0.76733381417E-03  0.10303758050E+01  0.10302866511E+01 0.  0.
     999903    2    3    3    0    0  0.38307923435E-01 -0.97045681407E-01 -0.80130759845E-01  0.13883965732E+00  0.44386377343E-01 0.  0.
         14    1    1    2    0    0  0.48941018648E-02 -0.12616464107E-01 -0.76733381417E-03  0.13554194952E-01  0.00000000000E+00 0. -1.
     999901    1    3    3    0    0 -0.43202025300E-01  0.10966214551E+00  0.80898093660E-01  0.89153614773E+00  0.88000000000E+00 0.  1.
        -11    1    4    4    0    0  0.42405029557E-01 -0.63653767308E-01 -0.70046325634E-01  0.10371469269E+00  0.51100000000E-03 0. -1.
         11    1    4    4    0    0 -0.40971061222E-02 -0.33391914099E-01 -0.10084434211E-01  0.35124964628E-01  0.51100000000E-03 0.  1.
</event>
<event>
 8    1  0.1993226E+004  0.1043930E+01  0.7957747E-01            NaN
         13   -1    0    0    0    0  0.00000000000E+00  0.00000000000E+00  0.74505805969E-08  0.10566000000E+00  0.10566000000E+00 0. -1.
     999900   -1    0    0    0    0 -0.00000000000E+00 -0.00000000000E+00 -0.74505805969E-08  0.93827000000E+00  0.93827000000E+00 0.  1.
     999902    2    1    2    0    0  0.44171538978E-02  0.44780499483E-02  0.14622209807E-01  0.10280122992E+01  0.10278890573E+01 0.  0.
     999903    2    3    3    0    0 -0.57281259992E-01 -0.10134934701E+00 -0.56053714402E-01  0.13672041742E+00  0.44694750877E-01 0.  0.
         14    1    1    2    0    0 -0.44171538978E-02 -0.44780499483E-02 -0.14622209807E-01  0.15917700825E-01  0.00000000000E+00 0.  1.
     999901    1    3    3    0    0  0.61698413889E-01  0.10582739695E+00  0.70675924210E-01  0.89129188176E+00  0.88000000000E+00 0. -1.
        -11    1    4    4    0    0 -0.43291508280E-01 -0.51885321328E-01 -0.51785658964E-01  0.85136695108E-01  0.51100000000E-03 0.  1.
         11    1    4    4    0    0 -0.13989751711E-01 -0.49464025678E-01 -0.42680554384E-02  0.51583722311E-01  0.51100000000E-03 0. -1.
</event>
<event>
 8    1  0.1993226E+004  0.1043930E+01  0.7957747E-01            NaN
         13   -1    0    0    0    0  0.00000000000E+00  0.00000000000E+00  0.74505805969E-08  0.10566000000E+00  0.10566000000E+00 0. -1.
     999900   -1    0    0    0    0 -0.00000000000E+00 -0.00000000000E+00 -0.74505805969E-08  0.93827000000E+00  0.93827000000E+00 0. -1.
     999902    2    1    2    0    0 -0.10002220419E-01 -0.42262185450E-02 -0.73677092742E-02  0.10308079393E+01  0.10307244148E+01 0.  0.
     999903    2    3    3    0    0 -0.80736646144E-02 -0.37114751181E-01  0.12696478333E+00  0.14000459768E+00  0.45150219839E-01 0.  0.
         14    1    1    2    0    0  0.10002220419E-01  0.42262185450E-02  0.73677092742E-02  0.13122060678E-01  0.00000000000E+00 0. -1.
     999901    1    3    3    0    0 -0.19285558044E-02  0.32888532636E-01 -0.13433249260E+00  0.89080334164E+00  0.88000000000E+00 0. -1.
        -11    1    4    4    0    0 -0.11991668536E-01 -0.38411792504E-01  0.56227626530E-01  0.69145303701E-01  0.51100000000E-03 0. -1.
         11    1    4    4    0    0  0.39180039218E-02  0.12970413234E-02  0.70737156797E-01  0.70859293982E-01  0.51100000000E-03 0.  1.
</event>
<event>
 8    1  0.1993226E+004  0.1043930E+01  0.7957747E-01            NaN
         13   -1    0    0    0    0  0.00000000000E+00  0.00000000000E+00  0.74505805969E-08  0.10566000000E+00  0.10566000000E+00 0. -1.
     999900   -1    0    0    0    0 -0.00000000000E+00 -0.00000000000E+00 -0.74505805969E-08  0.93827000000E+00  0.93827000000E+00 0. -1.
     999902    2    1    2    0    0  0.20707809170E-01 -0.39137692801E-02  0.72891425173E-03  0.10228429835E+01  0.10226255945E+01 0.  0.
     999903    2    3    3    0    0  0.25903632574E-02  0.39924606343E-01 -0.11909188334E+00  0.13345720183E+00  0.45025147100E-01 0.  0.
         14    1    1    2    0    0 -0.20707809170E-01  0.39137692801E-02 -0.72891425173E-03  0.21087016541E-01  0.00000000000E+00 0. -1.
     999901    1    3    3    0    0  0.18117445913E-01 -0.43838375623E-01  0.11982079759E+00  0.88938578163E+00  0.88000000000E+00 0.  1.
        -11    1    4    4    0    0 -0.38933264447E-02  0.10395026657E-01 -0.92575826205E-01  0.93240330804E-01  0.51100000000E-03 0.  1.
         11    1    4    4    0    0  0.64836897021E-02  0.29529579687E-01 -0.26516057131E-01  0.40216871029E-01  0.51100000000E-03 0. -1.
</event>
<event>
 8    1  0.1993226E+004  0.1043930E+01  0.7957747E-01            NaN
         13   -1    0    0    0    0  0.00000000000E+00  0.00000000000E+00  0.74505805969E-08  0.10566000000E+00  0.10566000000E+00 0. -1.
     999900   -1    0    0    0    0 -0.00000000000E+00 -0.00000000000E+00 -0.74505805969E-08  0.93827000000E+00  0.93827000000E+00 0.  1.
     999902    2    1    2    0    0  0.10319513800E-01 -0.34899942180E-02 -0.93045889847E-02  0.10296035280E+01  0.10295038499E+01 0.  0.
     999903    2    3    3    0    0 -0.48911442073E-01  0.11793387152E+00  0.30152370907E-01  0.13841953294E+00  0.44159646869E-01 0.  0.
         14    1    1    2    0    0 -0.10319513800E-01  0.34899942180E-02  0.93045889847E-02  0.14326472032E-01  0.00000000000E+00 0. -1.
     999901    1    3    3    0    0  0.59230955873E-01 -0.12142386574E+00 -0.39456959892E-01  0.89118399502E+00  0.88000000000E+00 0.  1.
        -11    1    4    4    0    0 -0.74328698759E-03 -0.41141232878E-03  0.88224994511E-02  0.88780264257E-02  0.51100000000E-03 0. -1.
         11    1    4    4    0    0 -0.48168155086E-01  0.11834528385E+00  0.21329871456E-01  0.12954150652E+00  0.51100000000E-03 0.  1.
</event>
<event>
 8    1  0.1993226E+004  0.1043930E+01  0.7957747E-01            NaN
         13   -1    0    0    0    0  0.00000000000E+00  0.00000000000E+00  0.74505805969E-08  0.10566000000E+00  0.10566000000E+00 0.  1.
     999900   -1    0    0    0    0 -0.00000000000E+00 -0.00000000000E+00 -0.74505805969E-08  0.93827000000E+00  0.93827000000E+00 0.  1.
     999902    2    1    2    0    0 -0.95805324465E-03  0.13412771837E-01  0.33908872032E-02  0.10300621079E+01  0.10299687509E+01 0.  0.
     999903    2    3    3    0    0 -0.89664282789E-01 -0.95534598149E-01 -0.12155954319E-01  0.13878211328E+00  0.44115356619E-01 0.  0.
         14    1    1    2    0    0  0.95805324465E-03 -0.13412771837E-01 -0.33908872032E-02  0.13867892067E-01  0.00000000000E+00 0. -1.
     999901    1    3    3    0    0  0.88706229544E-01  0.10894736999E+00  0.15546841523E-01  0.89127999465E+00  0.88000000000E+00 0.  1.
        -11    1    4    4    0    0 -0.19294209148E-01 -0.12465731257E-01  0.13878359732E-01  0.26842707617E-01  0.51100000000E-03 0.  1.
         11    1    4    4    0    0 -0.70370073641E-01 -0.83068866892E-01 -0.26034314051E-01  0.11193940566E+00  0.51100000000E-03 0. -1.
</event>
<event>
 8    1  0.1993226E+004  0.1043930E+01  0.7957747E-01            NaN
         13   -1    0    0    0    0  0.00000000000E+00  0.00000000000E+00  0.74505805969E-08  0.10566000000E+00  0.10566000000E+00 0. -1.
     999900   -1    0    0    0    0 -0.00000000000E+00 -0.00000000000E+00 -0.74505805969E-08  0.93827000000E+00  0.93827000000E+00 0. -1.
     999902    2    1    2    0    0  0.31148403945E-03 -0.79775016223E-02 -0.99376627674E-02  0.10311826593E+01  0.10311038658E+01 0.  0.
     999903    2    3    3    0    0 -0.12579431169E+00  0.32409188981E-01 -0.29181524701E-01  0.14106801344E+00  0.46626801810E-01 0.  0.
         14    1    1    2    0    0 -0.31148403945E-03  0.79775016223E-02  0.99376627674E-02  0.12747340731E-01  0.00000000000E+00 0. -1.
     999901    1    3    3    0    0  0.12610579573E+00 -0.40386690603E-01  0.19243861933E-01  0.89011464583E+00  0.88000000000E+00 0. -1.
        -11    1    4    4    0    0 -0.91878017722E-01  0.44303801506E-01 -0.23519100028E-01  0.10467954029E+00  0.51100000000E-03 0. -1.
         11    1    4    4    0    0 -0.33916293973E-01 -0.11894612525E-01 -0.56624246726E-02  0.36388473150E-01  0.51100000000E-03 0.  1.
</event>
<event>
 8    1  0.1993226E+004  0.1043930E+01  0.7957747E-01            NaN
         13   -1    0    0    0    0  0.00000000000E+00  0.00000000000E+00  0.74505805969E-08  0.10566000000E+00  0.10566000000E+00 0.  1.
     999900   -1    0    0    0    0 -0.00000000000E+00 -0.00000000000E+00 -0.74505805969E-08  0.93827000000E+00  0.93827000000E+00 0. -1.
     999902    2    1    2    0    0 -0.14804210904E-01  0.10481931756E-01 -0.20197859928E-02  0.10256785593E+01  0.10255161587E+01 0.  0.
     999903    2    3    3    0    0 -0.10404613537E+00  0.68298832262E-01 -0.43107289572E-01  0.13832569933E+00  0.42254371447E-01 0.  0.
         14    1    1    2    0    0  0.14804210904E-01 -0.10481931756E-01  0.20197859928E-02  0.18251440745E-01  0.00000000000E+00 0. -1.
     999901    1    3    3    0    0  0.89241924469E-01 -0.57816900506E-01  0.41087503579E-01  0.88735285993E+00  0.88000000000E+00 0. -1.
        -11    1    4    4    0    0 -0.64867260989E-01  0.18303839130E-01 -0.28304502918E-01  0.73104022335E-01  0.51100000000E-03 0.  1.
         11    1    4    4    0    0 -0.39178874384E-01  0.49994993132E-01 -0.14802786654E-01  0.65221676994E-01  0.51100000000E-03 0. -1.
</event>
<event>
 8    1  0.1993226E+004  0.1043930E+01  0.7957747E-01            NaN
         13   -1    0    0    0    0  0.00000000000E+00  0.00000000000E+00  0.74505805969E-08  0.10566000000E+00  0.10566000000E+00 0.  1.
     999900   -1    0    0    0    0 -0.00000000000E+00 -0.00000000000E+00 -0.74505805969E-08  0.93827000000E+00  0.93827000000E+00 0.  1.
     999902    2    1    2    0    0  0.45047772285E-02  0.10728345114E-01 -0.98546339686E-03  0.10322526054E+01  0.10321865528E+01 0.  0.
     999903    2    3    3    0    0 -0.57707042357E-01  0.50320460538E-01  0.11107827706E+00  0.14208625688E+00  0.44585527619E-01 0.  0.
         14    1    1    2    0    0 -0.45047772285E-02 -0.10728345114E-01  0.98546339686E-03  0.11677394610E-01  0.00000000000E+00 0. -1.
     999901    1    3    3    0    0  0.62211819585E-01 -0.39592115424E-01 -0.11206374045E+00  0.89016634851E+00  0.88000000000E+00 0.  1.
        -11    1    4    4    0    0 -0.12936893956E-01  0.10568347809E-01  0.63348770645E-01  0.65516265643E-01  0.51100000000E-03 0. -1.
         11    1    4    4    0    0 -0.44770148400E-01  0.39752112729E-01  0.47729506413E-01  0.76569991234E-01  0.51100000000E-03 0.  1.
</event>
<event>
 8    1  0.1993226E+004  0.1043930E+01  0.7957747E-01            NaN
         13   -1    0    0    0    0  0.00000000000E+00  0.00000000000E+00  0.74505805969E-08  0.10566000000E+00  0.10566000000E+00 0. -1.
     999900   -1    0    0    0    0 -0.00000000000E+00 -0.00000000000E+00 -0.74505805969E-08  0.93827000000E+00  0.93827000000E+00 0.  1.
     999902    2    1    2    0    0 -0.11575884746E-01  0.38770927318E-02 -0.52255817874E-02  0.10306507056E+01  0.10305651543E+01 0.  0.
     999903    2    3    3    0    0  0.11714695025E+00 -0.37723220539E-01 -0.51211127101E-01  0.13912682776E+00  0.39840247791E-01 0.  0.
         14    1    1    2    0    0  0.11575884746E-01 -0.38770927318E-02  0.52255817874E-02  0.13279294436E-01  0.00000000000E+00 0.  1.
     999901    1    3    3    0    0 -0.12872283499E+00  0.41600313271E-01  0.45985545313E-01  0.89152387780E+00  0.88000000000E+00 0. -1.
        -11    1    4    4    0    0  0.24031824322E-02 -0.11856533393E-02 -0.12263681560E-01  0.12563441649E-01  0.51100000000E-03 0. -1.
         11    1    4    4    0    0  0.11474376782E+00 -0.36537567200E-01 -0.38947445540E-01  0.12656338611E+00  0.51100000000E-03 0.  1.
</event>
<event>
 8    1  0.1993226E+004  0.1043930E+01  0.7957747E-01            NaN
         13   -1    0    0    0    0  0.00000000000E+00  0.00000000000E+00  0.74505805969E-08  0.10566000000E+00  0.10566000000E+00 0. -1.
     999900   -1    0    0    0    0 -0.00000000000E+00 -0.00000000000E+00 -0.74505805969E-08  0.93827000000E+00  0.93827000000E+00 0. -1.
     999902    2    1    2    0    0  0.51497282569E-02 -0.56742972816E-02 -0.11177423990E-01  0.10303781677E+01  0.10302890451E+01 0.  0.
     999903    2    3    3    0    0  0.78709569608E-02  0.13045771746E+00  0.18310279380E-01  0.13941865396E+00  0.44956943104E-01 0.  0.
         14    1    1    2    0    0 -0.51497282569E-02  0.56742972816E-02  0.11177423990E-01  0.13551832267E-01  0.00000000000E+00 0.  1.
     999901    1    3    3    0    0 -0.27212287039E-02 -0.13613201474E+00 -0.29487703370E-01  0.89095951377E+00  0.88000000000E+00 0. -1.
        -11    1    4    4    0    0  0.16557933199E-01  0.83654440257E-01  0.29995127589E-01  0.90400217515E-01  0.51100000000E-03 0.  1.
         11    1    4    4    0    0 -0.86869762387E-02  0.46803277205E-01 -0.11684848209E-01  0.49018436450E-01  0.51100000000E-03 0. -1.
</event>
<event>
 8    1  0.1993226E+004  0.1043930E+01  0.7957747E-01            NaN
         13   -1    0    0    0    0  0.00000000000E+00  0.00000000000E+00  0.74505805969E-08  0.10566000000E+00  0.10566000000E+00 0.  1.
     999900   -1    0    0    0    0 -0.00000000000E+00 -0.00000000000E+00 -0.74505805969E-08  0.93827000000E+00  0.93827000000E+00 0.  1.
     999902    2    1    2    0    0 -0.16285244582E-02  0.29801805969E-02  0.13367291136E-01  0.10301380444E+01  0.10300457137E+01 0.  0.
     999903    2    3    3    0    0  0.72068235257E-01  0.50411173337E-01 -0.97460004644E-01  0.13886726566E+00  0.45282977328E-01 0.  0.
         14    1    1    2    0    0  0.16285244582E-02 -0.29801805969E-02 -0.13367291136E-01  0.13791955648E-01  0.00000000000E+00 0. -1.
     999901    1    3    3    0    0 -0.73696759715E-01 -0.47430992740E-01  0.11082729578E+00  0.89127077869E+00  0.88000000000E+00 0.  1.
        -11    1    4    4    0    0  0.41123735078E-01  0.18129950468E-01 -0.19504478987E-01  0.48995331536E-01  0.51100000000E-03 0.  1.
         11    1    4    4    0    0  0.30944500178E-01  0.32281222869E-01 -0.77955525657E-01  0.89871934121E-01  0.51100000000E-03 0. -1.
</event>
<event>
 8    1  0.1993226E+004  0.1043930E+01  0.7957747E-01            NaN
         13   -1    0    0    0    0  0.00000000000E+00  0.00000000000E+00  0.74505805969E-08  0.10566000000E+00  0.10566000000E+00 0. -1.
     999900   -1    0    0    0    0 -0.00000000000E+00 -0.00000000000E+00 -0.74505805969E-08  0.93827000000E+00  0.93827000000E+00 0.  1.
     999902    2    1    2    0    0 -0.47314372088E-02 -0.40854009383E-02  0.13003717555E-01  0.10295017753E+01  0.10294006662E+01 0.  0.
     999903    2    3    3    0    0 -0.71066641042E-01 -0.77581403887E-01 -0.79179772462E-01  0.13916486288E+00  0.45034220263E-01 0.  0.
         14    1    1    2    0    0  0.47314372088E-02  0.40854009383E-02 -0.13003717555E-01  0.14428224740E-01  0.00000000000E+00 0.  1.
     999901    1    3    3    0    0  0.66335203833E-01  0.73496002949E-01  0.92183490018E-01  0.89033691238E+00  0.88000000000E+00 0.  1.
        -11    1    4    4    0    0 -0.49344170352E-02 -0.33850408598E-01 -0.15916315830E-01  0.37733126883E-01  0.51100000000E-03 0. -1.
         11    1    4    4    0    0 -0.66132224007E-01 -0.43730995289E-01 -0.63263456632E-01  0.10143173600E+00  0.51100000000E-03 0.  1.
</event>
<event>
 8    1  0.1993226E+004  0.1043930E+01  0.7957747E-01            NaN
         13   -1    0    0    0    0  0.00000000000E+00  0.00000000000E+00  0.74505805969E-08  0.10566000000E+00  0.10566000000E+00 0. -1.
     999900   -1    0    0    0    0 -0.00000000000E+00 -0.00000000000E+00 -0.74505805969E-08  0.93827000000E+00  0.93827000000E+00 0.  1.
     999902    2    1    2    0    0  0.59056915926E-02  0.11483724377E-01 -0.28310874115E-02  0.10307100085E+01  0.10306252246E+01 0.  0.
     999903    2    3    3    0    0 -0.46577842606E-01  0.35647919926E-01  0.11915367804E+00  0.14041864458E+00  0.45601832614E-01 0.  0.
         14    1    1    2    0    0 -0.59056915926E-02 -0.11483724377E-01  0.28310874115E-02  0.13219991478E-01  0.00000000000E+00 0. -1.
     999901    1    3    3    0    0  0.52483534199E-01 -0.24164195549E-01 -0.12198476545E+00  0.89029136394E+00  0.88000000000E+00 0.  1.
        -11    1    4    4    0    0 -0.16980911789E-01 -0.23700463945E-02  0.68064010589E-01  0.70192158704E-01  0.51100000000E-03 0. -1.
         11    1    4    4    0    0 -0.29596930817E-01  0.38017966320E-01  0.51089667452E-01  0.70226485875E-01  0.51100000000E-03 0.  1.
</event>
<event>
 8    1  0.1993226E+004  0.1043930E+01  0.7957747E-01            NaN
         13   -1    0    0    0    0  0.00000000000E+00  0.00000000000E+00  0.74505805969E-08  0.10566000000E+00  0.10566000000E+00 0. -1.
     999900   -1    0    0    0    0 -0.00000000000E+00 -0.00000000000E+00 -0.74505805969E-08  0.93827000000E+00  0.93827000000E+00 0. -1.
     999902    2    1    2    0    0 -0.12193024369E-01  0.11610150331E-02 -0.63712373303E-02  0.10301238251E+01  0.10300313028E+01 0.  0.
     999903    2    3    3    0    0 -0.47773665880E-02 -0.98617385192E-01  0.87767341508E-01  0.13946519628E+00  0.44712669849E-01 0.  0.
         14    1    1    2    0    0  0.12193024369E-01 -0.11610150331E-02  0.63712373303E-02  0.13806174861E-01  0.00000000000E+00 0. -1.
     999901    1    3    3    0    0 -0.74156577808E-02  0.99778400225E-01 -0.94138578839E-01  0.89065862886E+00  0.88000000000E+00 0. -1.
        -11    1    4    4    0    0  0.26217472283E-02 -0.37455606615E-01  0.75221856274E-02  0.38296741677E-01  0.51100000000E-03 0.  1.
         11    1    4    4    0    0 -0.73991138163E-02 -0.61161778577E-01  0.80245155881E-01  0.10116845461E+00  0.51100000000E-03 0. -1.
</event>
<event>
 8    1  0.1993226E+004  0.1043930E+01  0.7957747E-01            NaN
         13   -1    0    0    0    0  0.00000000000E+00  0.00000000000E+00  0.74505805969E-08  0.10566000000E+00  0.10566000000E+00 0. -1.
     999900   -1    0    0    0    0 -0.00000000000E+00 -0.00000000000E+00 -0.74505805969E-08  0.93827000000E+00  0.93827000000E+00 0.  1.
     999902    2    1    2    0    0  0.48406933557E-02 -0.60622510955E-02 -0.76580411375E-02  0.10330291379E+01  0.10329716216E+01 0.  0.
     999903    2    3    3    0    0  0.25372054955E-01  0.13088847353E+00  0.17674625601E-01  0.14183960599E+00  0.45061599629E-01 0.  0.
         14    1    1    2    0    0 -0.48406933557E-02  0.60622510955E-02  0.76580411375E-02  0.10900862102E-01  0.00000000000E+00 0. -1.
     999901    1    3    3    0    0 -0.20531361599E-01 -0.13695072462E+00 -0.25332666738E-01  0.89118953191E+00  0.88000000000E+00 0.  1.
        -11    1    4    4    0    0  0.32759996877E-01  0.54003208343E-01  0.31411803568E-02  0.63243118533E-01  0.51100000000E-03 0. -1.
         11    1    4    4    0    0 -0.73879419219E-02  0.76885265185E-01  0.14533445244E-01  0.78596487454E-01  0.51100000000E-03 0.  1.
</event>
<event>
 8    1  0.1993226E+004  0.1043930E+01  0.7957747E-01            NaN
         13   -1    0    0    0    0  0.00000000000E+00  0.00000000000E+00  0.74505805969E-08  0.10566000000E+00  0.10566000000E+00 0.  1.
     999900   -1    0    0    0    0 -0.00000000000E+00 -0.00000000000E+00 -0.74505805969E-08  0.93827000000E+00  0.93827000000E+00 0. -1.
     999902    2    1    2    0    0  0.77744605087E-02  0.57874373446E-02  0.10511380228E-01  0.10296322456E+01  0.10295329695E+01 0.  0.
     999903    2    3    3    0    0 -0.61697810698E-01  0.30151951026E-01  0.11399334390E+00  0.14051552501E+00  0.45103994492E-01 0.  0.
         14    1    1    2    0    0 -0.77744605087E-02 -0.57874373446E-02 -0.10511380228E-01  0.14297754422E-01  0.00000000000E+00 0. -1.
     999901    1    3    3    0    0  0.69472271207E-01 -0.24364513681E-01 -0.10348196367E+00  0.88911672057E+00  0.88000000000E+00 0. -1.
        -11    1    4    4    0    0 -0.40873070478E-01  0.41652870335E-01  0.81654270969E-01  0.10036558467E+00  0.51100000000E-03 0.  1.
         11    1    4    4    0    0 -0.20824740220E-01 -0.11500919309E-01  0.32339072929E-01  0.40149940338E-01  0.51100000000E-03 0. -1.
</event>
<event>
 8    1  0.1993226E+004  0.1043930E+01  0.7957747E-01            NaN
         13   -1    0    0    0    0  0.00000000000E+00  0.00000000000E+00  0.74505805969E-08  0.10566000000E+00  0.10566000000E+00 0.  1.
     999900   -1    0    0    0    0 -0.00000000000E+00 -0.00000000000E+00 -0.74505805969E-08  0.93827000000E+00  0.93827000000E+00 0.  1.
     999902    2    1    2    0    0  0.12110316390E-01  0.54880526575E-02  0.76023968272E-02  0.10286141611E+01  0.10285001300E+01 0.  0.
     999903    2    3    3    0    0  0.69432323548E-01  0.73273805017E-01 -0.84419915809E-01  0.13937357114E+00  0.45917013110E-01 0.  0.
         14    1    1    2    0    0 -0.12110316390E-01 -0.54880526575E-02 -0.76023968272E-02  0.15315838944E-01  0.00000000000E+00 0.  1.
     999901    1    3    3    0    0 -0.57322007158E-01 -0.67785752359E-01  0.92022312636E-01  0.88924058991E+00  0.88000000000E+00 0. -1.
        -11    1    4    4    0    0  0.90330332657E-02  0.67832127099E-02 -0.35139942911E-01  0.36914555035E-01  0.51100000000E-03 0.  1.
         11    1    4    4    0    0  0.60399290282E-01  0.66490592307E-01 -0.49279972898E-01  0.10245901611E+00  0.51100000000E-03 0. -1.
</event>
<event>
 8    1  0.1993226E+004  0.1043930E+01  0.7957747E-01            NaN
         13   -1    0    0    0    0  0.00000000000E+00  0.00000000000E+00  0.74505805969E-08  0.10566000000E+00  0.10566000000E+00 0.  1.
     999900   -1    0    0    0    0 -0.00000000000E+00 -0.00000000000E+00 -0.74505805969E-08  0.93827000000E+00  0.93827000000E+00 0.  1.
     999902    2    1    2    0    0  0.43143042164E-02  0.94033222341E-02 -0.95867699706E-02  0.10298253253E+01  0.10297287307E+01 0.  0.
     999903    2    3    3    0    0  0.32535570731E-01  0.12228144886E+00  0.42369669045E-01  0.14064739996E+00  0.44443066536E-01 0.  0.
         14    1    1    2    0    0 -0.43143042164E-02 -0.94033222341E-02  0.95867699706E-02  0.14104674700E-01  0.00000000000E+00 0.  1.
     999901    1    3    3    0    0 -0.28221266515E-01 -0.11287812663E+00 -0.51956439015E-01  0.88917792534E+00  0.88000000000E+00 0.  1.
        -11    1    4    4    0    0  0.12807745210E-01  0.22022014477E-01 -0.80229944452E-02  0.26713985473E-01  0.51100000000E-03 0. -1.
         11    1    4    4    0    0  0.19727825521E-01  0.10025943438E+00  0.50392663490E-01  0.11393341449E+00  0.51100000000E-03 0.  1.
</event>
<event>
 8    1  0.1993226E+004  0.1043930E+01  0.7957747E-01            NaN
         13   -1    0    0    0    0  0.00000000000E+00  0.00000000000E+00  0.74505805969E-08  0.10566000000E+00  0.10566000000E+00 0.  1.
     999900   -1    0    0    0    0 -0.00000000000E+00 -0.00000000000E+00 -0.74505805969E-08  0.93827000000E+00  0.93827000000E+00 0. -1.
     999902    2    1    2    0    0  0.68255432427E-02 -0.11547188697E-01  0.20553099968E-02  0.10303598155E+01  0.10302704497E+01 0.  0.
     999903    2    3    3    0    0  0.37880452773E-01  0.22693151906E-01 -0.12530954427E+00  0.13998988430E+00  0.44099636920E-01 0.  0.
         14    1    1    2    0    0 -0.68255432427E-02  0.11547188697E-01 -0.20553099968E-02  0.13570184470E-01  0.00000000000E+00 0. -1.
     999901    1    3    3    0    0 -0.31054909531E-01 -0.34240340603E-01  0.12736485427E+00  0.89036993123E+00  0.88000000000E+00 0.  1.
        -11    1    4    4    0    0  0.71402567463E-02 -0.12797480107E-01 -0.40135811988E-01  0.42730589610E-01  0.51100000000E-03 0.  1.
         11    1    4    4    0    0  0.30740196027E-01  0.35490632013E-01 -0.85173732282E-01  0.97259294694E-01  0.51100000000E-03 0. -1.
</event>
<event>
 8    1  0.1993226E+004  0.1043930E+01  0.7957747E-01            NaN
         13   -1    0    0    0    0  0.00000000000E+00  0.00000000000E+00  0.74505805969E-08  0.10566000000E+00  0.10566000000E+00 0.  1.
     999900   -1    0    0    0    0 -0.00000000000E+00 -0.00000000000E+00 -0.74505805969E-08  0.93827000000E+00  0.93827000000E+00 0. -1.
     999902    2    1    2    0    0 -0.12758296836E-01 -0.51572467518E-02 -0.33078514483E-02  0.10297767949E+01  0.10296795298E+01 0.  0.
     999903    2    3    3    0    0  0.22069221678E-01  0.32394658486E-01  0.12550847811E+00  0.13892509663E+00  0.44847964842E-01 0.  0.
         14    1    1    2    0    0  0.12758296836E-01  0.51572467518E-02  0.33078514483E-02  0.14153205058E-01  0.00000000000E+00 0. -1.
     999901    1    3    3    0    0 -0.34827518514E-01 -0.37551905238E-01 -0.12881632956E+00  0.89085169832E+00  0.88000000000E+00 0. -1.
        -11    1    4    4    0    0  0.93374309168E-02  0.13520850357E-01  0.63713876992E-02  0.17631129082E-01  0.51100000000E-03 0. -1.
         11    1    4    4    0    0  0.12731790761E-01  0.18873808129E-01  0.11913709041E+00  0.12129396754E+00  0.51100000000E-03 0.  1.
</event>
<event>
 8    1  0.1993226E+004  0.1043930E+01  0.7957747E-01            NaN
         13   -1    0    0    0    0  0.00000000000E+00  0.00000000000E+00  0.74505805969E-08  0.10566000000E+00  0.10566000000E+00 0.  1.
     999900   -1    0    0    0    0 -0.00000000000E+00 -0.00000000000E+00 -0.74505805969E-08  0.93827000000E+00  0.93827000000E+00 0. -1.
     999902    2    1    2    0    0 -0.22016860957E-02 -0.94636064633E-02  0.68175935131E-02  0.10320604233E+01  0.10319921659E+01 0.  0.
     999903    2    3    3    0    0 -0.92502075720E-02  0.12885552312E-01 -0.13202049294E+00  0.14086730128E+00  0.46503572065E-01 0.  0.
         14    1    1    2    0    0  0.22016860957E-02  0.94636064633E-02 -0.68175935131E-02  0.11869576668E-01  0.00000000000E+00 0. -1.
     999901    1    3    3    0    0  0.70485214763E-02 -0.22349158775E-01  0.13883808645E+00  0.89119312206E+00  0.88000000000E+00 0.  1.
        -11    1    4    4    0    0 -0.27818361198E-01  0.60361852857E-02 -0.64494912401E-01  0.70499302118E-01  0.51100000000E-03 0. -1.
         11    1    4    4    0    0  0.18568153626E-01  0.68493670262E-02 -0.67525580535E-01  0.70367999157E-01  0.51100000000E-03 0.  1.
</event>
<event>
 8    1  0.1993226E+004  0.1043930E+01  0.7957747E-01            NaN
         13   -1    0    0    0    0  0.00000000000E+00  0.00000000000E+00  0.74505805969E-08  0.10566000000E+00  0.10566000000E+00 0. -1.
     999900   -1    0    0    0    0 -0.00000000000E+00 -0.00000000000E+00 -0.74505805969E-08  0.93827000000E+00  0.93827000000E+00 0.  1.
     999902    2    1    2    0    0 -0.16304385882E-01 -0.32989459905E-02  0.28660210693E-02  0.10270501268E+01  0.10269114045E+01 0.  0.
     999903    2    3    3    0    0 -0.88067284083E-01 -0.71426948657E-01  0.67148562673E-01  0.13917424385E+00  0.44753605022E-01 0.  0.
         14    1    1    2    0    0  0.16304385882E-01  0.32989459905E-02 -0.28660210693E-02  0.16879873235E-01  0.00000000000E+00 0. -1.
     999901    1    3    3    0    0  0.71762898200E-01  0.68128002666E-01 -0.64282541604E-01  0.88787588291E+00  0.88000000000E+00 0.  1.
        -11    1    4    4    0    0 -0.77053273836E-01 -0.37288036387E-01  0.52526621876E-01  0.10043361884E+00  0.51100000000E-03 0. -1.
         11    1    4    4    0    0 -0.11014010247E-01 -0.34138912269E-01  0.14621940797E-01  0.38740625012E-01  0.51100000000E-03 0.  1.
</event>
<event>
 8    1  0.1993226E+004  0.1043930E+01  0.7957747E-01            NaN
         13   -1    0    0    0    0  0.00000000000E+00  0.00000000000E+00  0.74505805969E-08  0.10566000000E+00  0.10566000000E+00 0. -1.
     999900   -1    0    0    0    0 -0.00000000000E+00 -0.00000000000E+00 -0.74505805969E-08  0.93827000000E+00  0.93827000000E+00 0. -1.
     999902    2    1    2    0    0 -0.13601244391E-01  0.93748538471E-03  0.42120067289E-02  0.10296606718E+01  0.10295617928E+01 0.  0.
     999903    2    3    3    0    0 -0.11375688392E+00  0.15109716199E-01  0.69831788379E-01  0.14143887513E+00  0.44266743353E-01 0.  0.
         14    1    1    2    0    0  0.13601244391E-01 -0.93748538471E-03 -0.42120067289E-02  0.14269328243E-01  0.00000000000E+00 0. -1.
     999901    1    3    3    0    0  0.10015563953E+00 -0.14172230814E-01 -0.65619781650E-01  0.88822179663E+00  0.88000000000E+00 0. -1.
        -11    1    4    4    0    0 -0.52116837126E-01 -0.23471888486E-02  0.54737638716E-01  0.75618411916E-01  0.51100000000E-03 0. -1.
         11    1    4    4    0    0 -0.61640046796E-01  0.17456905047E-01  0.15094149663E-01  0.65820463216E-01  0.51100000000E-03 0.  1.
</event>
<event>
 8    1  0.1993226E+004  0.1043930E+01  0.7957747E-01            NaN
         13   -1    0    0    0    0  0.00000000000E+00  0.00000000000E+00  0.74505805969E-08  0.10566000000E+00  0.10566000000E+00 0. -1.
     999900   -1    0    0    0    0 -0.00000000000E+00 -0.00000000000E+00 -0.74505805969E-08  0.93827000000E+00  0.93827000000E+00 0.  1.
     999902    2    1    2    0    0 -0.10932954616E-01  0.74093149833E-02 -0.15347750791E-02  0.10306340239E+01  0.10305482562E+01 0.  0.
     999903    2    3    3    0    0  0.39133035958E-01 -0.65007529641E-01  0.10817139993E+00  0.13946274542E+00  0.44625465668E-01 0.  0.
         14    1    1    2    0    0  0.10932954616E-01 -0.74093149833E-02  0.15347750791E-02  0.13295976071E-01  0.00000000000E+00 0. -1.
     999901    1    3    3    0    0 -0.50065990573E-01  0.72416844624E-01 -0.10970617500E+00  0.89117127850E+00  0.88000000000E+00 0.  1.
        -11    1    4    4    0    0  0.29424702121E-01 -0.17479384957E-01  0.69322116263E-01  0.77312087784E-01  0.51100000000E-03 0.  1.
         11    1    4    4    0    0  0.97083338364E-02 -0.47528144683E-01  0.38849283663E-01  0.62150657639E-01  0.51100000000E-03 0. -1.
</event>
<event>
 8    1  0.1993226E+004  0.1043930E+01  0.7957747E-01            NaN
         13   -1    0    0    0    0  0.00000000000E+00  0.00000000000E+00  0.74505805969E-08  0.10566000000E+00  0.10566000000E+00 0. -1.
     999900   -1    0    0    0    0 -0.00000000000E+00 -0.00000000000E+00 -0.74505805969E-08  0.93827000000E+00  0.93827000000E+00 0.  1.
     999902    2    1    2    0    0 -0.25256225819E-02 -0.10715195613E-01  0.94418720167E-02  0.10294267889E+01  0.10293246186E+01 0.  0.
     999903    2    3    3    0    0  0.48759814066E-01 -0.10224788611E+00  0.70146652551E-01  0.14111743968E+00  0.46491173748E-01 0.  0.
         14    1    1    2    0    0  0.25256225819E-02  0.10715195613E-01 -0.94418720167E-02  0.14503211149E-01  0.00000000000E+00 0.  1.
     999901    1    3    3    0    0 -0.51285436648E-01  0.91532690496E-01 -0.60704780534E-01  0.88830934917E+00  0.88000000000E+00 0.  1.
        -11    1    4    4    0    0  0.16841474910E-01 -0.77445712908E-01  0.31802874586E-01  0.85399986405E-01  0.51100000000E-03 0.  1.
         11    1    4    4    0    0  0.31918339156E-01 -0.24802173202E-01  0.38343777965E-01  0.55717453277E-01  0.51100000000E-03 0. -1.
</event>
<event>
 8    1  0.1993226E+004  0.1043930E+01  0.7957747E-01            NaN
         13   -1    0    0    0    0  0.00000000000E+00  0.00000000000E+00  0.74505805969E-08  0.10566000000E+00  0.10566000000E+00 0. -1.
     999900   -1    0    0    0    0 -0.00000000000E+00 -0.00000000000E+00 -0.74505805969E-08  0.93827000000E+00  0.93827000000E+00 0. -1.
     999902    2    1    2    0    0  0.70889841759E-02  0.10866780742E-01  0.52241690434E-02  0.10299431289E+01  0.10298481520E+01 0.  0.
     999903    2    3    3    0    0 -0.50669467978E-02  0.11385285248E+00 -0.68261716694E-01  0.14081205139E+00  0.46692889015E-01 0.  0.
         14    1    1    2    0    0 -0.70889841759E-02 -0.10866780742E-01 -0.52241690434E-02  0.13986871077E-01  0.00000000000E+00 0.  1.
     999901    1    3    3    0    0  0.12155930974E-01 -0.10298607173E+00  0.73485885738E-01  0.88913107753E+00  0.88000000000E+00 0.  1.
        -11    1    4    4    0    0  0.10110274200E-01  0.29469918814E-01  0.93388275322E-04  0.31160288858E-01  0.51100000000E-03 0.  1.
         11    1    4    4    0    0 -0.15177220998E-01  0.84382933661E-01 -0.68355104970E-01  0.10965176253E+00  0.51100000000E-03 0. -1.
</event>
<event>
 8    1  0.1993226E+004  0.1043930E+01  0.7957747E-01            NaN
         13   -1    0    0    0    0  0.00000000000E+00  0.00000000000E+00  0.74505805969E-08  0.10566000000E+00  0.10566000000E+00 0.  1.
     999900   -1    0    0    0    0 -0.00000000000E+00 -0.00000000000E+00 -0.74505805969E-08  0.93827000000E+00  0.93827000000E+00 0. -1.
     999902    2    1    2    0    0  0.86259835610E-02 -0.52018352723E-02 -0.97821086475E-02  0.10298887632E+01  0.10297930414E+01 0.  0.
     999903    2    3    3    0    0  0.96589508716E-01  0.12539041686E-01  0.89692649956E-01  0.13974970207E+00  0.44703993235E-01 0.  0.
         14    1    1    2    0    0 -0.86259835610E-02  0.52018352723E-02  0.97821086475E-02  0.14041236847E-01  0.00000000000E+00 0.  1.
     999901    1    3    3    0    0 -0.87963525155E-01 -0.17740876958E-01 -0.99474758603E-01  0.89013906109E+00  0.88000000000E+00 0. -1.
        -11    1    4    4    0    0  0.61478291583E-01 -0.67106834719E-02  0.74725777428E-01  0.96999054335E-01  0.51100000000E-03 0. -1.
         11    1    4    4    0    0  0.35111217133E-01  0.19249725157E-01  0.14966872528E-01  0.42750647732E-01  0.51100000000E-03 0.  1.
</event>
<event>
 8    1  0.1993226E+004  0.1043930E+01  0.7957747E-01            NaN
         13   -1    0    0    0    0  0.00000000000E+00  0.00000000000E+00  0.74505805969E-08  0.10566000000E+00  0.10566000000E+00 0.  1.
     999900   -1    0    0    0    0 -0.00000000000E+00 -0.00000000000E+00 -0.74505805969E-08  0.93827000000E+00  0.93827000000E+00 0.  1.
     999902    2    1    2    0    0  0.56615701514E-02  0.18754351535E-01 -0.90072198323E-02  0.10223682494E+01  0.10221408554E+01 0.  0.
     999903    2    3    3    0    0  0.42967716142E-01  0.11840850180E+00  0.21853316612E-01  0.13542119865E+00  0.44660224671E-01 0.  0.
         14    1    1    2    0    0 -0.56615701514E-02 -0.18754351535E-01  0.90072198323E-02  0.21561750559E-01  0.00000000000E+00 0.  1.
     999901    1    3    3    0    0 -0.37306145991E-01 -0.99654150268E-01 -0.30860536445E-01  0.88694705079E+00  0.88000000000E+00 0.  1.
        -11    1    4    4    0    0  0.87104054328E-02  0.85781200638E-01  0.11464471145E-01  0.86982646346E-01  0.51100000000E-03 0.  1.
         11    1    4    4    0    0  0.34257310709E-01  0.32627301164E-01  0.10388845468E-01  0.48438552305E-01  0.51100000000E-03 0. -1.
</event>
<event>
 8    1  0.2274228E+004  0.1043930E+01  0.7957747E-01            NaN
         13   -1    0    0    0    0  0.00000000000E+00  0.00000000000E+00  0.74505805969E-08  0.10566000000E+00  0.10566000000E+00 0. -1.
     999900   -1    0    0    0    0 -0.00000000000E+00 -0.00000000000E+00 -0.74505805969E-08  0.93827000000E+00  0.93827000000E+00 0.  1.
     999902    2    1    2    0    0 -0.21707323642E-02 -0.17576915478E-02 -0.18888097087E-01  0.10248364993E+01  0.10246586205E+01 0.  0.
     999903    2    3    3    0    0 -0.85347134550E-01 -0.40138338827E-01  0.82723265696E-01  0.13426575137E+00  0.47842801799E-01 0.  0.
         14    1    1    2    0    0  0.21707323642E-02  0.17576915478E-02  0.18888097087E-01  0.19093500731E-01  0.00000000000E+00 0. -1.
     999901    1    3    3    0    0  0.83176402186E-01  0.38380647279E-01 -0.10161136278E+00  0.89057074790E+00  0.88000000000E+00 0.  1.
        -11    1    4    4    0    0 -0.62289932006E-01 -0.42582531215E-02  0.41668077870E-01  0.75064360274E-01  0.51100000000E-03 0. -1.
         11    1    4    4    0    0 -0.23057202545E-01 -0.35880085705E-01  0.41055187826E-01  0.59201391097E-01  0.51100000000E-03 0.  1.
</event>
<event>
 8    1  0.1993226E+004  0.1043930E+01  0.7957747E-01            NaN
         13   -1    0    0    0    0  0.00000000000E+00  0.00000000000E+00  0.74505805969E-08  0.10566000000E+00  0.10566000000E+00 0. -1.
     999900   -1    0    0    0    0 -0.00000000000E+00 -0.00000000000E+00 -0.74505805969E-08  0.93827000000E+00  0.93827000000E+00 0. -1.
     999902    2    1    2    0    0 -0.92108153705E-02 -0.66432026696E-02  0.62264226357E-02  0.10309785676E+01  0.10308972147E+01 0.  0.
     999903    2    3    3    0    0 -0.13191218763E-01 -0.13097009610E+00 -0.26042588420E-01  0.14164493557E+00  0.45364050063E-01 0.  0.
         14    1    1    2    0    0  0.92108153705E-02  0.66432026696E-02 -0.62264226357E-02  0.12951432366E-01  0.00000000000E+00 0.  1.
     999901    1    3    3    0    0  0.39804033922E-02  0.12432689343E+00  0.32269011055E-01  0.88933363206E+00  0.88000000000E+00 0.  1.
        -11    1    4    4    0    0 -0.24574032139E-01 -0.92283020230E-01 -0.32337162131E-01  0.10082654439E+00  0.51100000000E-03 0. -1.
         11    1    4    4    0    0  0.11382813377E-01 -0.38687075866E-01  0.62945737113E-02  0.40818391181E-01  0.51100000000E-03 0.  1.
</event>
<event>
 8    1  0.1993226E+004  0.1043930E+01  0.7957747E-01            NaN
         13   -1    0    0    0    0  0.00000000000E+00  0.00000000000E+00  0.74505805969E-08  0.10566000000E+00  0.10566000000E+00 0.  1.
     999900   -1    0    0    0    0 -0.00000000000E+00 -0.00000000000E+00 -0.74505805969E-08  0.93827000000E+00  0.93827000000E+00 0. -1.
     999902    2    1    2    0    0 -0.51628404016E-02 -0.38642126164E-02 -0.12988152360E-01  0.10294289945E+01  0.10293268555E+01 0.  0.
     999903    2    3    3    0    0 -0.58425959273E-01  0.30030850014E-01 -0.11649595676E+00  0.14111615503E+00  0.45022401098E-01 0.  0.
         14    1    1    2    0    0  0.51628404016E-02  0.38642126164E-02  0.12988152360E-01  0.14501005547E-01  0.00000000000E+00 0.  1.
     999901    1    3    3    0    0  0.53263118871E-01 -0.33895062631E-01  0.10350780440E+00  0.88831283942E+00  0.88000000000E+00 0.  1.
        -11    1    4    4    0    0 -0.27362822020E-01  0.27102878869E-01 -0.28974877701E-01  0.48198493033E-01  0.51100000000E-03 0.  1.
         11    1    4    4    0    0 -0.31063137252E-01  0.29279711452E-02 -0.87521079060E-01  0.92917662002E-01  0.51100000000E-03 0. -1.
</event>
<event>
 8    1  0.1993226E+004  0.1043930E+01  0.7957747E-01            NaN
         13   -1    0    0    0    0  0.00000000000E+00  0.00000000000E+00  0.74505805969E-08  0.10566000000E+00  0.10566000000E+00 0. -1.
     999900   -1    0    0    0    0 -0.00000000000E+00 -0.00000000000E+00 -0.74505805969E-08  0.93827000000E+00  0.93827000000E+00 0.  1.
     999902    2    1    2    0    0 -0.10876748536E-01 -0.45662511657E-02 -0.87338121751E-02  0.10292523373E+01  0.10291476765E+01 0.  0.
     999903    2    3    3    0    0  0.11129826266E+00  0.53868998557E-01  0.38602881499E-01  0.13763460844E+00  0.46518068575E-01 0.  0.
         14    1    1    2    0    0  0.10876748536E-01  0.45662511657E-02  0.87338121751E-02  0.14677662741E-01  0.00000000000E+00 0. -1.
     999901    1    3    3    0    0 -0.12217501120E+00 -0.58435249723E-01 -0.47336693674E-01  0.89161772882E+00  0.88000000000E+00 0.  1.
        -11    1    4    4    0    0  0.54944516716E-01  0.20719096855E-01 -0.51718682604E-02  0.58950744134E-01  0.51100000000E-03 0.  1.
         11    1    4    4    0    0  0.56353745946E-01  0.33149901703E-01  0.43774749759E-01  0.78683864309E-01  0.51100000000E-03 0. -1.
</event>
<event>
 8    1  0.1993226E+004  0.1043930E+01  0.7957747E-01            NaN
         13   -1    0    0    0    0  0.00000000000E+00  0.00000000000E+00  0.74505805969E-08  0.10566000000E+00  0.10566000000E+00 0.  1.
     999900   -1    0    0    0    0 -0.00000000000E+00 -0.00000000000E+00 -0.74505805969E-08  0.93827000000E+00  0.93827000000E+00 0.  1.
     999902    2    1    2    0    0  0.83197930214E-02 -0.54599982490E-02  0.79271730024E-02  0.10312071619E+01  0.10311286730E+01 0.  0.
     999903    2    3    3    0    0 -0.56811828135E-01 -0.68676320755E-01  0.10063394006E+00  0.14169438734E+00  0.44789381132E-01 0.  0.
         14    1    1    2    0    0 -0.83197930214E-02  0.54599982490E-02 -0.79271730024E-02  0.12722838072E-01  0.00000000000E+00 0. -1.
     999901    1    3    3    0    0  0.65131621157E-01  0.63216322506E-01 -0.92706767055E-01  0.88951277459E+00  0.88000000000E+00 0.  1.
        -11    1    4    4    0    0 -0.46344193121E-01 -0.22561212264E-01  0.61997045379E-01  0.80626839772E-01  0.51100000000E-03 0.  1.
         11    1    4    4    0    0 -0.10467635014E-01 -0.46115108491E-01  0.38636894679E-01  0.61067547563E-01  0.51100000000E-03 0. -1.
</event>
<event>
 8    1  0.1993226E+004  0.1043930E+01  0.7957747E-01            NaN
         13   -1    0    0    0    0  0.00000000000E+00  0.00000000000E+00  0.74505805969E-08  0.10566000000E+00  0.10566000000E+00 0.  1.
     999900   -1    0    0    0    0 -0.00000000000E+00 -0.00000000000E+00 -0.74505805969E-08  0.93827000000E+00  0.93827000000E+00 0.  1.
     999902    2    1    2    0    0  0.21122299034E-02  0.12072657706E-01  0.99311095770E-02  0.10281554155E+01  0.10280343967E+01 0.  0.
     999903    2    3    3    0    0  0.39311695758E-01  0.11685701048E+00  0.49678830899E-01  0.14026834936E+00  0.44791218666E-01 0.  0.
         14    1    1    2    0    0 -0.21122299034E-02 -0.12072657706E-01 -0.99311095770E-02  0.15774584517E-01  0.00000000000E+00 0. -1.
     999901    1    3    3    0    0 -0.37199465854E-01 -0.10478435278E+00 -0.39747721322E-01  0.88788706613E+00  0.88000000000E+00 0.  1.
        -11    1    4    4    0    0  0.21750947221E-01  0.12397998437E-01  0.12661647140E-01  0.28060514956E-01  0.51100000000E-03 0.  1.
         11    1    4    4    0    0  0.17560748536E-01  0.10445901204E+00  0.37017183758E-01  0.11220783440E+00  0.51100000000E-03 0. -1.
</event>
<event>
 8    1  0.1993226E+004  0.1043930E+01  0.7957747E-01            NaN
         13   -1    0    0    0    0  0.00000000000E+00  0.00000000000E+00  0.74505805969E-08  0.10566000000E+00  0.10566000000E+00 0. -1.
     999900   -1    0    0    0    0 -0.00000000000E+00 -0.00000000000E+00 -0.74505805969E-08  0.93827000000E+00  0.93827000000E+00 0. -1.
     999902    2    1    2    0    0  0.13454969114E-01 -0.14515510756E-01 -0.74449322894E-02  0.10227837648E+01  0.10225651404E+01 0.  0.
     999903    2    3    3    0    0  0.11198970765E+00 -0.27350659747E-01 -0.54940663508E-01  0.13591867910E+00  0.46536626577E-01 0.  0.
         14    1    1    2    0    0 -0.13454969114E-01  0.14515510756E-01  0.74449322894E-02  0.21146235201E-01  0.00000000000E+00 0. -1.
     999901    1    3    3    0    0 -0.98534738538E-01  0.12835148991E-01  0.47495731218E-01  0.88686508570E+00  0.88000000000E+00 0.  1.
        -11    1    4    4    0    0  0.27561413864E-01 -0.21573363241E-01 -0.33869193772E-01  0.48707545036E-01  0.51100000000E-03 0.  1.
         11    1    4    4    0    0  0.84428293788E-01 -0.57772965063E-02 -0.21071469736E-01  0.87211134064E-01  0.51100000000E-03 0. -1.
</event>
<event>
 8    1  0.1993226E+004  0.1043930E+01  0.7957747E-01            NaN
         13   -1    0    0    0    0  0.00000000000E+00  0.00000000000E+00  0.74505805969E-08  0.10566000000E+00  0.10566000000E+00 0.  1.
     999900   -1    0    0    0    0 -0.00000000000E+00 -0.00000000000E+00 -0.74505805969E-08  0.93827000000E+00  0.93827000000E+00 0.  1.
     999902    2    1    2    0    0 -0.21925438715E-03 -0.13214926002E-01  0.58261134186E-02  0.10294861107E+01  0.10293847804E+01 0.  0.
     999903    2    3    3    0    0  0.61266512923E-01  0.22915946207E-01 -0.11374200618E+00  0.13854140153E+00  0.44471898670E-01 0.  0.
         14    1    1    2    0    0  0.21925438715E-03  0.13214926002E-01 -0.58261134186E-02  0.14443889341E-01  0.00000000000E+00 0. -1.
     999901    1    3    3    0    0 -0.61485767310E-01 -0.36130872209E-01  0.11956811960E+00  0.89094470913E+00  0.88000000000E+00 0. -1.
        -11    1    4    4    0    0  0.42328117362E-01  0.11474919015E-01 -0.33182622013E-01  0.54997189114E-01  0.51100000000E-03 0.  1.
         11    1    4    4    0    0  0.18938395561E-01  0.11441027192E-01 -0.80559384164E-01  0.83544212412E-01  0.51100000000E-03 0. -1.
</event>
<event>
 8    1  0.1993226E+004  0.1043930E+01  0.7957747E-01            NaN
         13   -1    0    0    0    0  0.00000000000E+00  0.00000000000E+00  0.74505805969E-08  0.10566000000E+00  0.10566000000E+00 0. -1.
     999900   -1    0    0    0    0 -0.00000000000E+00 -0.00000000000E+00 -0.74505805969E-08  0.93827000000E+00  0.93827000000E+00 0.  1.
     999902    2    1    2    0    0  0.73244012590E-02  0.79356374868E-02 -0.77681255773E-02  0.10306271818E+01  0.10305413252E+01 0.  0.
     999903    2    3    3    0    0 -0.10780863055E+00  0.49875888812E-01 -0.60263985597E-01  0.14058762372E+00  0.44975847718E-01 0.  0.
         14    1    1    2    0    0 -0.73244012590E-02 -0.79356374868E-02  0.77681255773E-02  0.13302818164E-01  0.00000000000E+00 0. -1.
     999901    1    3    3    0    0  0.11513303180E+00 -0.41940251325E-01  0.52495860019E-01  0.89003955812E+00  0.88000000000E+00 0.  1.
        -11    1    4    4    0    0 -0.40619649472E-01  0.16127106911E-01 -0.47097332177E-01  0.64253088017E-01  0.51100000000E-03 0.  1.
         11    1    4    4    0    0 -0.67188981074E-01  0.33748781901E-01 -0.13166653420E-01  0.76334535702E-01  0.51100000000E-03 0. -1.
</event>
<event>
 8    1  0.1993226E+004  0.1043930E+01  0.7957747E-01            NaN
         13   -1    0    0    0    0  0.00000000000E+00  0.00000000000E+00  0.74505805969E-08  0.10566000000E+00  0.10566000000E+00 0. -1.
     999900   -1    0    0    0    0 -0.00000000000E+00 -0.00000000000E+00 -0.74505805969E-08  0.93827000000E+00  0.93827000000E+00 0. -1.
     999902    2    1    2    0    0 -0.11900639247E-01  0.17710657441E-02 -0.53014251128E-02  0.10307821106E+01  0.10306982548E+01 0.  0.
     999903    2    3    3    0    0  0.65068186859E-01 -0.83738420007E-01  0.79311099830E-01  0.13926915400E+00  0.43123714745E-01 0.  0.
         14    1    1    2    0    0  0.11900639247E-01 -0.17710657441E-02  0.53014251128E-02  0.13147889434E-01  0.00000000000E+00 0. -1.
     999901    1    3    3    0    0 -0.76968826105E-01  0.85509485751E-01 -0.84612524943E-01  0.89151295656E+00  0.88000000000E+00 0. -1.
        -11    1    4    4    0    0  0.66276700534E-01 -0.67372360755E-01  0.78452928647E-01  0.12282816925E+00  0.51100000000E-03 0.  1.
         11    1    4    4    0    0 -0.12085136752E-02 -0.16366059252E-01  0.85817118301E-03  0.16440984749E-01  0.51100000000E-03 0. -1.
</event>
<event>
 8    1  0.1993226E+004  0.1043930E+01  0.7957747E-01            NaN
         13   -1    0    0    0    0  0.00000000000E+00  0.00000000000E+00  0.74505805969E-08  0.10566000000E+00  0.10566000000E+00 0.  1.
     999900   -1    0    0    0    0 -0.00000000000E+00 -0.00000000000E+00 -0.74505805969E-08  0.93827000000E+00  0.93827000000E+00 0. -1.
     999902    2    1    2    0    0  0.12022220334E-01  0.30798475998E-02  0.85686807555E-02  0.10288488352E+01  0.10287382972E+01 0.  0.
     999903    2    3    3    0    0  0.92721519645E-01 -0.57416011458E-02 -0.93628744842E-01  0.13922278526E+00  0.44569001396E-01 0.  0.
         14    1    1    2    0    0 -0.12022220334E-01 -0.30798475998E-02 -0.85686807555E-02  0.15081164838E-01  0.00000000000E+00 0. -1.
     999901    1    3    3    0    0 -0.80699299311E-01  0.88214487455E-02  0.10219742560E+00  0.88962604990E+00  0.88000000000E+00 0.  1.
        -11    1    4    4    0    0  0.51303769352E-01 -0.24027706989E-01 -0.62034860388E-01  0.84011859146E-01  0.51100000000E-03 0. -1.
         11    1    4    4    0    0  0.41417750293E-01  0.18286105843E-01 -0.31593884454E-01  0.55210926112E-01  0.51100000000E-03 0.  1.
</event>
<event>
 8    1  0.1993226E+004  0.1043930E+01  0.7957747E-01            NaN
         13   -1    0    0    0    0  0.00000000000E+00  0.00000000000E+00  0.74505805969E-08  0.10566000000E+00  0.10566000000E+00 0. -1.
     999900   -1    0    0    0    0 -0.00000000000E+00 -0.00000000000E+00 -0.74505805969E-08  0.93827000000E+00  0.93827000000E+00 0. -1.
     999902    2    1    2    0    0  0.68386965252E-02  0.67304052932E-03 -0.11716261864E-01  0.10303472335E+01  0.10302577008E+01 0.  0.
     999903    2    3    3    0    0  0.10723617683E+00  0.49648843414E-01 -0.63971264709E-01  0.14174784759E+00  0.45116785293E-01 0.  0.
         14    1    1    2    0    0 -0.68386965252E-02 -0.67304052932E-03  0.11716261864E-01  0.13582766500E-01  0.00000000000E+00 0. -1.
     999901    1    3    3    0    0 -0.10039748030E+00 -0.48975802885E-01  0.52255002845E-01  0.88859938591E+00  0.88000000000E+00 0. -1.
        -11    1    4    4    0    0  0.22241411341E-01  0.23183578077E-01 -0.10278124930E-04  0.32131291563E-01  0.51100000000E-03 0. -1.
         11    1    4    4    0    0  0.84994765485E-01  0.26465265337E-01 -0.63960986584E-01  0.10961655603E+00  0.51100000000E-03 0.  1.
</event>
<event>
 8    1  0.1993226E+004  0.1043930E+01  0.7957747E-01            NaN
         13   -1    0    0    0    0  0.00000000000E+00  0.00000000000E+00  0.74505805969E-08  0.10566000000E+00  0.10566000000E+00 0.  1.
     999900   -1    0    0    0    0 -0.00000000000E+00 -0.00000000000E+00 -0.74505805969E-08  0.93827000000E+00  0.93827000000E+00 0.  1.
     999902    2    1    2    0    0 -0.96665481960E-02  0.87567027123E-02 -0.10603643754E-02  0.10308438864E+01  0.10307608218E+01 0.  0.
     999903    2    3    3    0    0  0.23107115146E-01  0.12818716997E+00  0.32371382018E-01  0.14154335723E+00  0.44952489221E-01 0.  0.
         14    1    1    2    0    0  0.96665481960E-02 -0.87567027123E-02  0.10603643754E-02  0.13086113595E-01  0.00000000000E+00 0. -1.
     999901    1    3    3    0    0 -0.32773663342E-01 -0.11943046726E+00 -0.33431746394E-01  0.88930052917E+00  0.88000000000E+00 0. -1.
        -11    1    4    4    0    0  0.85089333581E-02  0.11446981204E+00  0.16469955394E-01  0.11596232305E+00  0.51100000000E-03 0.  1.
         11    1    4    4    0    0  0.14598181788E-01  0.13717357930E-01  0.15901426625E-01  0.25581034182E-01  0.51100000000E-03 0. -1.
</event>
<event>
 8    1  0.1993226E+004  0.1043930E+01  0.7957747E-01            NaN
         13   -1    0    0    0    0  0.00000000000E+00  0.00000000000E+00  0.74505805969E-08  0.10566000000E+00  0.10566000000E+00 0.  1.
     999900   -1    0    0    0    0 -0.00000000000E+00 -0.00000000000E+00 -0.74505805969E-08  0.93827000000E+00  0.93827000000E+00 0. -1.
     999902    2    1    2    0    0 -0.11726442165E-01  0.63254036022E-02  0.11889954519E-01  0.10260724751E+01  0.10259170693E+01 0.  0.
     999903    2    3    3    0    0  0.63326059634E-01  0.96349541217E-01 -0.56606623635E-01  0.13566301616E+00  0.43666007285E-01 0.  0.
         14    1    1    2    0    0  0.11726442165E-01 -0.63254036022E-02 -0.11889954519E-01  0.17857524886E-01  0.00000000000E+00 0. -1.
     999901    1    3    3    0    0 -0.75052501799E-01 -0.90024137615E-01  0.68496578154E-01  0.89040945896E+00  0.88000000000E+00 0.  1.
        -11    1    4    4    0    0  0.17503394606E-01  0.11292029877E-01 -0.27997257558E-01  0.34899660646E-01  0.51100000000E-03 0. -1.
         11    1    4    4    0    0  0.45822665029E-01  0.85057511340E-01 -0.28609366078E-01  0.10076335551E+00  0.51100000000E-03 0.  1.
</event>
<event>
 7    1  0.1993226E+004  0.1043930E+01  0.7957747E-01            NaN
         13   -1    0    0    0    0  0.00000000000E+00  0.00000000000E+00  0.74505805969E-08  0.10566000000E+00  0.10566000000E+00 0.  1.
     999900   -1    0    0    0    0 -0.00000000000E+00 -0.00000000000E+00 -0.74505805969E-08  0.93827000000E+00  0.93827000000E+00 0. -1.
     999902    2    1    2    0    0 -0.52343156862E-02 -0.10969923376E-01  0.73588587806E-02  0.10297211970E+01  0.10296231609E+01 0.  0.
         14    1    1    2    0    0  0.52343156862E-02  0.10969923376E-01 -0.73588587806E-02  0.14208802980E-01  0.00000000000E+00 0. -1.
     999901    1    3    3    0    0 -0.12673921151E+00 -0.28677446353E-01 -0.50986128012E-01  0.89100213743E+00  0.88000000000E+00 0.  1.
        -11    1    3    3    0    0  0.80967724290E-01  0.10883367127E-01  0.24000012375E-01  0.85149760843E-01  0.51100000000E-03 0. -1.
         11    1    3    3    0    0  0.40537171532E-01  0.68241558502E-02  0.34344974418E-01  0.53569298742E-01  0.51100000000E-03 0.  1.
</event>
<event>
 8    1  0.1993226E+004  0.1043930E+01  0.7957747E-01            NaN
         13   -1    0    0    0    0  0.00000000000E+00  0.00000000000E+00  0.74505805969E-08  0.10566000000E+00  0.10566000000E+00 0. -1.
     999900   -1    0    0    0    0 -0.00000000000E+00 -0.00000000000E+00 -0.74505805969E-08  0.93827000000E+00  0.93827000000E+00 0.  1.
     999902    2    1    2    0    0 -0.12047761947E-01  0.78578436284E-02 -0.30844616242E-03  0.10295428733E+01  0.10294423435E+01 0.  0.
     999903    2    3    3    0    0 -0.97887881175E-01 -0.61638432364E-01 -0.63749386650E-01  0.14037302940E+00  0.47531773159E-01 0.  0.
         14    1    1    2    0    0  0.12047761947E-01 -0.78578436284E-02  0.30844616242E-03  0.14387126657E-01  0.00000000000E+00 0.  1.
     999901    1    3    3    0    0  0.85840119229E-01  0.69496275992E-01  0.63440940488E-01  0.88916984394E+00  0.88000000000E+00 0. -1.
        -11    1    4    4    0    0 -0.20480869282E-01  0.27934007308E-02  0.89562625159E-03  0.20696191959E-01  0.51100000000E-03 0. -1.
         11    1    4    4    0    0 -0.77407011893E-01 -0.64431833094E-01 -0.64645012902E-01  0.11967683744E+00  0.51100000000E-03 0.  1.
</event>
<event>
 8    1  0.1993226E+004  0.1043930E+01  0.7957747E-01            NaN
         13   -1    0    0    0    0  0.00000000000E+00  0.00000000000E+00  0.74505805969E-08  0.10566000000E+00  0.10566000000E+00 0.  1.
     999900   -1    0    0    0    0 -0.00000000000E+00 -0.00000000000E+00 -0.74505805969E-08  0.93827000000E+00  0.93827000000E+00 0.  1.
     999902    2    1    2    0    0 -0.10247205456E-01  0.17554142696E-02  0.30314587385E-02  0.10331005752E+01  0.10330438142E+01 0.  0.
     999903    2    3    3    0    0  0.17911410407E-01 -0.43960651389E-01 -0.12644083518E+00  0.14200802044E+00  0.43882064377E-01 0.  0.
         14    1    1    2    0    0  0.10247205456E-01 -0.17554142696E-02 -0.30314587385E-02  0.10829424776E-01  0.00000000000E+00 0.  1.
     999901    1    3    3    0    0 -0.28158615862E-01  0.45716065659E-01  0.12947229392E+00  0.89109255479E+00  0.88000000000E+00 0. -1.
        -11    1    4    4    0    0  0.26031317434E-02 -0.45620118081E-01 -0.11169758362E+00  0.12068381323E+00  0.51100000000E-03 0. -1.
         11    1    4    4    0    0  0.15308278663E-01  0.16594666922E-02 -0.14743251559E-01  0.21324207204E-01  0.51100000000E-03 0.  1.
</event>
<event>
 8    1  0.1993226E+004  0.1043930E+01  0.7957747E-01            NaN
         13   -1    0    0    0    0  0.00000000000E+00  0.00000000000E+00  0.74505805969E-08  0.10566000000E+00  0.10566000000E+00 0. -1.
     999900   -1    0    0    0    0 -0.00000000000E+00 -0.00000000000E+00 -0.74505805969E-08  0.93827000000E+00  0.93827000000E+00 0.  1.
     999902    2    1    2    0    0 -0.11520641653E-01 -0.46208097918E-02 -0.76739331782E-02  0.10293366345E+01  0.10292331809E+01 0.  0.
     999903    2    3    3    0    0  0.12219630880E+00 -0.43115717216E-01  0.16592387309E-01  0.13807296133E+00  0.44698236865E-01 0.  0.
         14    1    1    2    0    0  0.11520641653E-01  0.46208097918E-02  0.76739331782E-02  0.14593365536E-01  0.00000000000E+00 0. -1.
     999901    1    3    3    0    0 -0.13371695045E+00  0.38494907425E-01 -0.24266320488E-01  0.89126367313E+00  0.88000000000E+00 0.  1.
        -11    1    4    4    0    0  0.71883452647E-01 -0.47280883833E-01  0.45037132905E-02  0.86158326904E-01  0.51100000000E-03 0.  1.
         11    1    4    4    0    0  0.50312856153E-01  0.41651666170E-02  0.12088674019E-01  0.51914634427E-01  0.51100000000E-03 0. -1.
</event>
<event>
 8    1  0.1993226E+004  0.1043930E+01  0.7957747E-01            NaN
         13   -1    0    0    0    0  0.00000000000E+00  0.00000000000E+00  0.74505805969E-08  0.10566000000E+00  0.10566000000E+00 0.  1.
     999900   -1    0    0    0    0 -0.00000000000E+00 -0.00000000000E+00 -0.74505805969E-08  0.93827000000E+00  0.93827000000E+00 0. -1.
     999902    2    1    2    0    0 -0.11099969133E-01  0.83115086428E-02  0.16429818018E-02  0.10299661223E+01  0.10298714596E+01 0.  0.
     999903    2    3    3    0    0 -0.61481510752E-03  0.11200029051E+00  0.72886565990E-01  0.14095715148E+00  0.44855590302E-01 0.  0.
         14    1    1    2    0    0  0.11099969133E-01 -0.83115086428E-02 -0.16429818018E-02  0.13963877681E-01  0.00000000000E+00 0.  1.
     999901    1    3    3    0    0 -0.10485154026E-01 -0.10368878186E+00 -0.71243584188E-01  0.88900897084E+00  0.88000000000E+00 0. -1.
        -11    1    4    4    0    0 -0.27299140201E-02  0.82563409027E-01  0.27983107176E-01  0.87220893993E-01  0.51100000000E-03 0. -1.
         11    1    4    4    0    0  0.21150989126E-02  0.29436881480E-01  0.44903458814E-01  0.53736257491E-01  0.51100000000E-03 0.  1.
</event>
<event>
 8    1  0.1993226E+004  0.1043930E+01  0.7957747E-01            NaN
         13   -1    0    0    0    0  0.00000000000E+00  0.00000000000E+00  0.74505805969E-08  0.10566000000E+00  0.10566000000E+00 0. -1.
     999900   -1    0    0    0    0 -0.00000000000E+00 -0.00000000000E+00 -0.74505805969E-08  0.93827000000E+00  0.93827000000E+00 0.  1.
     999902    2    1    2    0    0  0.21765492397E-02  0.20739743183E-02 -0.13770304461E-01  0.10298353194E+01  0.10297388626E+01 0.  0.
     999903    2    3    3    0    0  0.11252940911E+00 -0.70203081607E-01 -0.38713613504E-02  0.13994784586E+00  0.44486756913E-01 0.  0.
         14    1    1    2    0    0 -0.21765492397E-02 -0.20739743183E-02  0.13770304461E-01  0.14094680593E-01  0.00000000000E+00 0. -1.
     999901    1    3    3    0    0 -0.11035285987E+00  0.72277055926E-01 -0.98989431110E-02  0.88988747354E+00  0.88000000000E+00 0.  1.
        -11    1    4    4    0    0  0.34659300696E-01 -0.55599581645E-02  0.12821008507E-01  0.37374050352E-01  0.51100000000E-03 0.  1.
         11    1    4    4    0    0  0.77870108416E-01 -0.64643123443E-01 -0.16692369857E-01  0.10257379551E+00  0.51100000000E-03 0. -1.
</event>
<event>
 8    1  0.1993226E+004  0.1043930E+01  0.7957747E-01            NaN
         13   -1    0    0    0    0  0.00000000000E+00  0.00000000000E+00  0.74505805969E-08  0.10566000000E+00  0.10566000000E+00 0. -1.
     999900   -1    0    0    0    0 -0.00000000000E+00 -0.00000000000E+00 -0.74505805969E-08  0.93827000000E+00  0.93827000000E+00 0. -1.
     999902    2    1    2    0    0  0.38416973505E-03 -0.13305255992E-01 -0.45829893035E-02  0.10298523150E+01  0.10297560923E+01 0.  0.
     999903    2    3    3    0    0  0.10808038214E+00  0.73826899169E-01  0.14263073520E-01  0.13881603029E+00  0.43984940084E-01 0.  0.
         14    1    1    2    0    0 -0.38416973505E-03  0.13305255992E-01  0.45829893035E-02  0.14077684979E-01  0.00000000000E+00 0.  1.
     999901    1    3    3    0    0 -0.10769621240E+00 -0.87132155161E-01 -0.18846062823E-01  0.89103628473E+00  0.88000000000E+00 0.  1.
        -11    1    4    4    0    0  0.81976653102E-01  0.57706493021E-01 -0.84976343639E-02  0.10061153960E+00  0.51100000000E-03 0. -1.
         11    1    4    4    0    0  0.26103729037E-01  0.16120406148E-01  0.22760707884E-01  0.38204490683E-01  0.51100000000E-03 0.  1.
</event>
<event>
 8    1  0.1993226E+004  0.1043930E+01  0.7957747E-01            NaN
         13   -1    0    0    0    0  0.00000000000E+00  0.00000000000E+00  0.74505805969E-08  0.10566000000E+00  0.10566000000E+00 0. -1.
     999900   -1    0    0    0    0 -0.00000000000E+00 -0.00000000000E+00 -0.74505805969E-08  0.93827000000E+00  0.93827000000E+00 0.  1.
     999902    2    1    2    0    0 -0.76742952069E-02 -0.26376470890E-02  0.10860607555E-01  0.10303725376E+01  0.10302833404E+01 0.  0.
     999903    2    3    3    0    0 -0.14510791388E-01 -0.11559928929E+00  0.66271665193E-01  0.14139702865E+00  0.45026962500E-01 0.  0.
         14    1    1    2    0    0  0.76742952069E-02  0.26376470890E-02 -0.10860607555E-01  0.13557462357E-01  0.00000000000E+00 0. -1.
     999901    1    3    3    0    0  0.68364961816E-02  0.11296164220E+00 -0.55411057638E-01  0.88897550900E+00  0.88000000000E+00 0.  1.
        -11    1    4    4    0    0 -0.25821124707E-01 -0.87338451702E-01  0.63074308146E-01  0.11078522057E+00  0.51100000000E-03 0.  1.
         11    1    4    4    0    0  0.11310333319E-01 -0.28260837585E-01  0.31973570467E-02  0.30611808079E-01  0.51100000000E-03 0. -1.
</event>
<event>
 8    1  0.1993226E+004  0.1043930E+01  0.7957747E-01            NaN
         13   -1    0    0    0    0  0.00000000000E+00  0.00000000000E+00  0.74505805969E-08  0.10566000000E+00  0.10566000000E+00 0. -1.
     999900   -1    0    0    0    0 -0.00000000000E+00 -0.00000000000E+00 -0.74505805969E-08  0.93827000000E+00  0.93827000000E+00 0. -1.
     999902    2    1    2    0    0  0.11642146334E-01 -0.38145352246E-02  0.55543795423E-02  0.10304785546E+01  0.10303907561E+01 0.  0.
     999903    2    3    3    0    0 -0.11128695242E-01 -0.10077482005E-01  0.13220766245E+00  0.14109742722E+00  0.46949062367E-01 0.  0.
         14    1    1    2    0    0 -0.11642146334E-01  0.38145352246E-02 -0.55543795423E-02  0.13451445363E-01  0.00000000000E+00 0.  1.
     999901    1    3    3    0    0  0.22770841577E-01  0.62629467804E-02 -0.12665328291E+00  0.88938112741E+00  0.88000000000E+00 0. -1.
        -11    1    4    4    0    0  0.14722478593E-01  0.89059181713E-02  0.45940357098E-01  0.49059599322E-01  0.51100000000E-03 0.  1.
         11    1    4    4    0    0 -0.25851173836E-01 -0.18983400176E-01  0.86267305353E-01  0.92037827901E-01  0.51100000000E-03 0. -1.
</event>
<event>
 8    1  0.1993226E+004  0.1043930E+01  0.7957747E-01            NaN
         13   -1    0    0    0    0  0.00000000000E+00  0.00000000000E+00  0.74505805969E-08  0.10566000000E+00  0.10566000000E+00 0. -1.
     999900   -1    0    0    0    0 -0.00000000000E+00 -0.00000000000E+00 -0.74505805969E-08  0.93827000000E+00  0.93827000000E+00 0.  1.
     999902    2    1    2    0    0 -0.69240406472E-02  0.11081808659E-01 -0.71721340902E-02  0.10290240170E+01  0.10289160506E+01 0.  0.
     999903    2    3    3    0    0 -0.79049578973E-01  0.91409083818E-01 -0.56632072314E-01  0.14104831355E+00  0.45639660388E-01 0.  0.
         14    1    1    2    0    0  0.69240406472E-02 -0.11081808659E-01  0.71721340902E-02  0.14905983009E-01  0.00000000000E+00 0. -1.
     999901    1    3    3    0    0  0.72125538326E-01 -0.80327275159E-01  0.49459938224E-01  0.88797570344E+00  0.88000000000E+00 0.  1.
        -11    1    4    4    0    0 -0.63177128604E-01  0.50474862612E-01 -0.53641379354E-01  0.97039785832E-01  0.51100000000E-03 0. -1.
         11    1    4    4    0    0 -0.15872450369E-01  0.40934221206E-01 -0.29906929595E-02  0.44008527717E-01  0.51100000000E-03 0.  1.
</event>
<event>
 8    1  0.1993226E+004  0.1043930E+01  0.7957747E-01            NaN
         13   -1    0    0    0    0  0.00000000000E+00  0.00000000000E+00  0.74505805969E-08  0.10566000000E+00  0.10566000000E+00 0. -1.
     999900   -1    0    0    0    0 -0.00000000000E+00 -0.00000000000E+00 -0.74505805969E-08  0.93827000000E+00  0.93827000000E+00 0. -1.
     999902    2    1    2    0    0  0.16981136303E-02 -0.12126077817E-01 -0.71353706321E-02  0.10297582370E+01  0.10296607149E+01 0.  0.
     999903    2    3    3    0    0  0.61259345793E-01 -0.86330424643E-01 -0.82708170260E-01  0.14140860226E+00  0.44159955822E-01 0.  0.
         14    1    1    2    0    0 -0.16981136303E-02  0.12126077817E-01  0.71353706321E-02  0.14171763024E-01  0.00000000000E+00 0. -1.
     999901    1    3    3    0    0 -0.59561232162E-01  0.74204346826E-01  0.75572799627E-01  0.88834963472E+00  0.88000000000E+00 0.  1.
        -11    1    4    4    0    0  0.37652758999E-01 -0.18979490355E-01 -0.40630388028E-01  0.58558012831E-01  0.51100000000E-03 0. -1.
         11    1    4    4    0    0  0.23606586794E-01 -0.67350934289E-01 -0.42077782231E-01  0.82850589425E-01  0.51100000000E-03 0.  1.
</event>
<event>
 8    1  0.1993226E+004  0.1043930E+01  0.7957747E-01            NaN
         13   -1    0    0    0    0  0.00000000000E+00  0.00000000000E+00  0.74505805969E-08  0.10566000000E+00  0.10566000000E+00 0. -1.
     999900   -1    0    0    0    0 -0.00000000000E+00 -0.00000000000E+00 -0.74505805969E-08  0.93827000000E+00  0.93827000000E+00 0.  1.
     999902    2    1    2    0    0 -0.12708969034E-01  0.69258225951E-02 -0.18961749279E-02  0.10293327266E+01  0.10292292172E+01 0.  0.
     999903    2    3    3    0    0 -0.12232122139E+00  0.43043470093E-01  0.32877213408E-01  0.14111624458E+00  0.44918390461E-01 0.  0.
         14    1    1    2    0    0  0.12708969034E-01 -0.69258225951E-02  0.18961749279E-02  0.14597273440E-01  0.00000000000E+00 0.  1.
     999901    1    3    3    0    0  0.10961225236E+00 -0.36117647498E-01 -0.34773388336E-01  0.88821648198E+00  0.88000000000E+00 0.  1.
        -11    1    4    4    0    0 -0.67133925387E-01  0.40152562358E-01  0.35245186111E-01  0.85800212510E-01  0.51100000000E-03 0. -1.
         11    1    4    4    0    0 -0.55187296006E-01  0.28909077345E-02 -0.23679727026E-02  0.55316032068E-01  0.51100000000E-03 0.  1.
</event>
<event>
 8    1  0.1993226E+004  0.1043930E+01  0.7957747E-01            NaN
         13   -1    0    0    0    0  0.00000000000E+00  0.00000000000E+00  0.74505805969E-08  0.10566000000E+00  0.10566000000E+00 0. -1.
     999900   -1    0    0    0    0 -0.00000000000E+00 -0.00000000000E+00 -0.74505805969E-08  0.93827000000E+00  0.93827000000E+00 0. -1.
     999902    2    1    2    0    0 -0.47056855114E-02 -0.12483892064E-01  0.86927719738E-02  0.10280065795E+01  0.10278832483E+01 0.  0.
     999903    2    3    3    0    0 -0.36831340376E-01  0.41957027172E-01 -0.11633552070E+00  0.13692412235E+00  0.45796529798E-01 0.  0.
         14    1    1    2    0    0  0.47056855114E-02  0.12483892064E-01 -0.86927719738E-02  0.15923420543E-01  0.00000000000E+00 0.  1.
     999901    1    3    3    0    0  0.32125654865E-01 -0.54440919236E-01  0.12502829268E+00  0.89108245710E+00  0.88000000000E+00 0.  1.
        -11    1    4    4    0    0 -0.26575782489E-01  0.54271148224E-02 -0.79654014974E-01  0.84147186600E-01  0.51100000000E-03 0.  1.
         11    1    4    4    0    0 -0.10255557887E-01  0.36529912349E-01 -0.36681505731E-01  0.52776935753E-01  0.51100000000E-03 0. -1.
</event>
<event>
 8    1  0.1993226E+004  0.1043930E+01  0.7957747E-01            NaN
         13   -1    0    0    0    0  0.00000000000E+00  0.00000000000E+00  0.74505805969E-08  0.10566000000E+00  0.10566000000E+00 0. -1.
     999900   -1    0    0    0    0 -0.00000000000E+00 -0.00000000000E+00 -0.74505805969E-08  0.93827000000E+00  0.93827000000E+00 0.  1.
     999902    2    1    2    0    0  0.76913069758E-02  0.63246729156E-03  0.12216093383E-01  0.10294804618E+01  0.10293790517E+01 0.  0.
     999903    2    3    3    0    0 -0.10945457822E+00  0.12452765258E-01 -0.69774746728E-01  0.13786093768E+00  0.44740885099E-01 0.  0.
         14    1    1    2    0    0 -0.76913069758E-02 -0.63246729156E-03 -0.12216093383E-01  0.14449538242E-01  0.00000000000E+00 0.  1.
     999901    1    3    3    0    0  0.11714588520E+00 -0.11820297967E-01  0.81990840111E-01  0.89161952408E+00  0.88000000000E+00 0. -1.
        -11    1    4    4    0    0 -0.51863185603E-01  0.93207613837E-02 -0.79234042233E-02  0.53288911315E-01  0.51100000000E-03 0.  1.
         11    1    4    4    0    0 -0.57591392619E-01  0.31320038746E-02 -0.61851342504E-01  0.84572026360E-01  0.51100000000E-03 0. -1.
</event>
<event>
 8    1  0.1993226E+004  0.1043930E+01  0.7957747E-01            NaN
         13   -1    0    0    0    0  0.00000000000E+00  0.00000000000E+00  0.74505805969E-08  0.10566000000E+00  0.10566000000E+00 0. -1.
     999900   -1    0    0    0    0 -0.00000000000E+00 -0.00000000000E+00 -0.74505805969E-08  0.93827000000E+00  0.93827000000E+00 0. -1.
     999902    2    1    2    0    0  0.17810533931E-02  0.13391968860E-01  0.67757490008E-02  0.10288161734E+01  0.10287051525E+01 0.  0.
     999903    2    3    3    0    0  0.57557780292E-02  0.20918648018E-01  0.12996511632E+00  0.14019473003E+00  0.47884361232E-01 0.  0.
         14    1    1    2    0    0 -0.17810533931E-02 -0.13391968860E-01 -0.67757490008E-02  0.15113826639E-01  0.00000000000E+00 0.  1.
     999901    1    3    3    0    0 -0.39747246361E-02 -0.75266791576E-02 -0.12318936732E+00  0.88862144334E+00  0.88000000000E+00 0. -1.
        -11    1    4    4    0    0 -0.81538790167E-02  0.29482057518E-01  0.11110139034E+00  0.11523652856E+00  0.51100000000E-03 0. -1.
         11    1    4    4    0    0  0.13909657046E-01 -0.85634095002E-02  0.18863725987E-01  0.24958201468E-01  0.51100000000E-03 0.  1.
</event>
<event>
 8    1  0.2199237E+004  0.1043930E+01  0.7957747E-01            NaN
         13   -1    0    0    0    0  0.00000000000E+00  0.00000000000E+00  0.74505805969E-08  0.10566000000E+00  0.10566000000E+00 0. -1.
     999900   -1    0    0    0    0 -0.00000000000E+00 -0.00000000000E+00 -0.74505805969E-08  0.93827000000E+00  0.93827000000E+00 0. -1.
     999902    2    1    2    0    0  0.45358236349E-02 -0.63799301560E-02  0.11730361311E-01  0.10298275682E+01  0.10297310046E+01 0.  0.
     999903    2    3    3    0    0 -0.58232520638E-02 -0.92016955404E-01  0.97067042467E-01  0.14150141210E+00  0.45821485649E-01 0.  0.
         14    1    1    2    0    0 -0.45358236349E-02  0.63799301560E-02 -0.11730361311E-01  0.14102431752E-01  0.00000000000E+00 0.  1.
     999901    1    3    3    0    0  0.10359075699E-01  0.85637025248E-01 -0.85336681156E-01  0.88832615615E+00  0.88000000000E+00 0. -1.
        -11    1    4    4    0    0  0.84848458037E-02 -0.19600572201E-01  0.48886812314E-01  0.53351256575E-01  0.51100000000E-03 0. -1.
         11    1    4    4    0    0 -0.14308097867E-01 -0.72416383203E-01  0.48180230153E-01  0.88150155527E-01  0.51100000000E-03 0.  1.
</event>
<event>
 8    1  0.1993226E+004  0.1043930E+01  0.7957747E-01            NaN
         13   -1    0    0    0    0  0.00000000000E+00  0.00000000000E+00  0.74505805969E-08  0.10566000000E+00  0.10566000000E+00 0.  1.
     999900   -1    0    0    0    0 -0.00000000000E+00 -0.00000000000E+00 -0.74505805969E-08  0.93827000000E+00  0.93827000000E+00 0. -1.
     999902    2    1    2    0    0 -0.52623539590E-02 -0.28321229577E-02 -0.11684561316E-01  0.10308058900E+01  0.10307223393E+01 0.  0.
     999903    2    3    3    0    0 -0.56775121791E-01  0.17556161495E-01  0.11435762143E+00  0.14010061934E+00  0.54944378231E-01 0.  0.
         14    1    1    2    0    0  0.52623539590E-02  0.28321229577E-02  0.11684561316E-01  0.13124109980E-01  0.00000000000E+00 0.  1.
     999901    1    3    3    0    0  0.51512767832E-01 -0.20388284452E-01 -0.12604218274E+00  0.89070527068E+00  0.88000000000E+00 0. -1.
        -11    1    4    4    0    0 -0.15954821795E-01  0.78299795569E-02  0.89660973599E-01  0.91406871876E-01  0.51100000000E-03 0.  1.
         11    1    4    4    0    0 -0.40820299996E-01  0.97261819376E-02  0.24696647828E-01  0.48693747460E-01  0.51100000000E-03 0. -1.
</event>
<event>
 8    1  0.1993226E+004  0.1043930E+01  0.7957747E-01            NaN
         13   -1    0    0    0    0  0.00000000000E+00  0.00000000000E+00  0.74505805969E-08  0.10566000000E+00  0.10566000000E+00 0.  1.
     999900   -1    0    0    0    0 -0.00000000000E+00 -0.00000000000E+00 -0.74505805969E-08  0.93827000000E+00  0.93827000000E+00 0.  1.
     999902    2    1    2    0    0 -0.11545579333E-01 -0.17646989377E-02  0.64626325907E-02  0.10305815849E+01  0.10304951349E+01 0.  0.
     999903    2    3    3    0    0  0.52360507206E-02  0.87803712322E-03 -0.13205562330E+00  0.13958443883E+00  0.44910363424E-01 0.  0.
         14    1    1    2    0    0  0.11545579333E-01  0.17646989377E-02 -0.64626325907E-02  0.13348415055E-01  0.00000000000E+00 0.  1.
     999901    1    3    3    0    0 -0.16781630053E-01 -0.26427360609E-02  0.13851825589E+00  0.89099714611E+00  0.88000000000E+00 0. -1.
        -11    1    4    4    0    0 -0.13918532933E-01  0.42396330170E-02 -0.10637746031E+00  0.10736910743E+00  0.51100000000E-03 0.  1.
         11    1    4    4    0    0  0.19154583654E-01 -0.33615958938E-02 -0.25678162989E-01  0.32215331403E-01  0.51100000000E-03 0. -1.
</event>
<event>
 8    1  0.1993226E+004  0.1043930E+01  0.7957747E-01            NaN
         13   -1    0    0    0    0  0.00000000000E+00  0.00000000000E+00  0.74505805969E-08  0.10566000000E+00  0.10566000000E+00 0. -1.
     999900   -1    0    0    0    0 -0.00000000000E+00 -0.00000000000E+00 -0.74505805969E-08  0.93827000000E+00  0.93827000000E+00 0. -1.
     999902    2    1    2    0    0 -0.10891709406E-01 -0.81910576823E-02 -0.19185203374E-02  0.10301676063E+01  0.10300756737E+01 0.  0.
     999903    2    3    3    0    0  0.59715950295E-01 -0.84612967216E-01  0.81856701618E-01  0.14008668995E+00  0.46887228108E-01 0.  0.
         14    1    1    2    0    0  0.10891709406E-01  0.81910576823E-02  0.19185203374E-02  0.13762393688E-01  0.00000000000E+00 0.  1.
     999901    1    3    3    0    0 -0.70607659701E-01  0.76421909533E-01 -0.83775221955E-01  0.89008091637E+00  0.88000000000E+00 0. -1.
        -11    1    4    4    0    0  0.30975860623E-01 -0.18991564267E-01  0.49681037974E-01  0.61552011420E-01  0.51100000000E-03 0. -1.
         11    1    4    4    0    0  0.28740089672E-01 -0.65621402949E-01  0.32175663644E-01  0.78534678526E-01  0.51100000000E-03 0.  1.
</event>
<event>
 8    1  0.1993226E+004  0.1043930E+01  0.7957747E-01            NaN
         13   -1    0    0    0    0  0.00000000000E+00  0.00000000000E+00  0.74505805969E-08  0.10566000000E+00  0.10566000000E+00 0.  1.
     999900   -1    0    0    0    0 -0.00000000000E+00 -0.00000000000E+00 -0.74505805969E-08  0.93827000000E+00  0.93827000000E+00 0. -1.
     999902    2    1    2    0    0 -0.82087994874E-02  0.83519551857E-02 -0.81547917110E-02  0.10296597452E+01  0.10295608533E+01 0.  0.
     999903    2    3    3    0    0  0.99949617978E-02 -0.63251939626E-01  0.11375471762E+00  0.13818881289E+00  0.45335472865E-01 0.  0.
         14    1    1    2    0    0  0.82087994874E-02 -0.83519551857E-02  0.81547917110E-02  0.14270254808E-01  0.00000000000E+00 0.  1.
     999901    1    3    3    0    0 -0.18203761285E-01  0.71603894812E-01 -0.12190950933E+00  0.89147093230E+00  0.88000000000E+00 0. -1.
        -11    1    4    4    0    0  0.19856017388E-01 -0.20410686492E-01  0.72524235854E-01  0.77915874228E-01  0.51100000000E-03 0.  1.
         11    1    4    4    0    0 -0.98610555898E-02 -0.42841253134E-01  0.41230481762E-01  0.60272938660E-01  0.51100000000E-03 0. -1.
</event>
<event>
 8    1  0.1993226E+004  0.1043930E+01  0.7957747E-01            NaN
         13   -1    0    0    0    0  0.00000000000E+00  0.00000000000E+00  0.74505805969E-08  0.10566000000E+00  0.10566000000E+00 0. -1.
     999900   -1    0    0    0    0 -0.00000000000E+00 -0.00000000000E+00 -0.74505805969E-08  0.93827000000E+00  0.93827000000E+00 0. -1.
     999902    2    1    2    0    0 -0.49050778305E-02 -0.11921557101E-01 -0.47533924848E-02  0.10301903474E+01  0.10300987205E+01 0.  0.
     999903    2    3    3    0    0 -0.34176473147E-01  0.12686082396E+00  0.32074682258E-02  0.13879776324E+00  0.44641138603E-01 0.  0.
         14    1    1    2    0    0  0.49050778305E-02  0.11921557101E-01  0.47533924848E-02  0.13739652556E-01  0.00000000000E+00 0. -1.
     999901    1    3    3    0    0  0.29271395316E-01 -0.13878238106E+00 -0.79608607106E-02  0.89139258421E+00  0.88000000000E+00 0.  1.
        -11    1    4    4    0    0  0.43624188100E-02  0.42108427301E-01 -0.13011034778E-01  0.44291065630E-01  0.51100000000E-03 0. -1.
         11    1    4    4    0    0 -0.38538891956E-01  0.84752396655E-01  0.16218503004E-01  0.94506697607E-01  0.51100000000E-03 0.  1.
</event>
<event>
 8    1  0.1993226E+004  0.1043930E+01  0.7957747E-01            NaN
         13   -1    0    0    0    0  0.00000000000E+00  0.00000000000E+00  0.74505805969E-08  0.10566000000E+00  0.10566000000E+00 0.  1.
     999900   -1    0    0    0    0 -0.00000000000E+00 -0.00000000000E+00 -0.74505805969E-08  0.93827000000E+00  0.93827000000E+00 0.  1.
     999902    2    1    2    0    0  0.75498993272E-02  0.11380850453E-01 -0.54805860885E-02  0.10292139693E+01  0.10291087566E+01 0.  0.
     999903    2    3    3    0    0  0.35270575215E-02 -0.12110833065E+00  0.47685038956E-01  0.13770056496E+00  0.44809761906E-01 0.  0.
         14    1    1    2    0    0 -0.75498993272E-02 -0.11380850453E-01  0.54805860885E-02  0.14716030741E-01  0.00000000000E+00 0. -1.
     999901    1    3    3    0    0  0.40228418056E-02  0.13248918110E+00 -0.53165625045E-01  0.89151340430E+00  0.88000000000E+00 0. -1.
        -11    1    4    4    0    0  0.17590732926E-01 -0.73523608634E-01  0.11923479651E-01  0.76534863948E-01  0.51100000000E-03 0. -1.
         11    1    4    4    0    0 -0.14063675404E-01 -0.47584722013E-01  0.35761559305E-01  0.61165701009E-01  0.51100000000E-03 0.  1.
</event>
<event>
 8    1  0.1993226E+004  0.1043930E+01  0.7957747E-01            NaN
         13   -1    0    0    0    0  0.00000000000E+00  0.00000000000E+00  0.74505805969E-08  0.10566000000E+00  0.10566000000E+00 0. -1.
     999900   -1    0    0    0    0 -0.00000000000E+00 -0.00000000000E+00 -0.74505805969E-08  0.93827000000E+00  0.93827000000E+00 0. -1.
     999902    2    1    2    0    0 -0.11922051578E-01 -0.30448530449E-02 -0.42428099919E-02  0.10309143217E+01  0.10308321546E+01 0.  0.
     999903    2    3    3    0    0  0.36691666416E-01 -0.10681256213E+00 -0.71332538695E-01  0.14095248957E+00  0.44989681326E-01 0.  0.
         14    1    1    2    0    0  0.11922051578E-01  0.30448530449E-02  0.42428099919E-02  0.13015678259E-01  0.00000000000E+00 0.  1.
     999901    1    3    3    0    0 -0.48613717995E-01  0.10376770909E+00  0.67089728703E-01  0.88996183217E+00  0.88000000000E+00 0.  1.
        -11    1    4    4    0    0  0.28626852171E-01 -0.26732317372E-01 -0.35444728010E-01  0.52827107833E-01  0.51100000000E-03 0. -1.
         11    1    4    4    0    0  0.80648142457E-02 -0.80080244759E-01 -0.35887810685E-01  0.88125381736E-01  0.51100000000E-03 0.  1.
</event>
<event>
 8    1  0.1993226E+004  0.1043930E+01  0.7957747E-01            NaN
         13   -1    0    0    0    0  0.00000000000E+00  0.00000000000E+00  0.74505805969E-08  0.10566000000E+00  0.10566000000E+00 0.  1.
     999900   -1    0    0    0    0 -0.00000000000E+00 -0.00000000000E+00 -0.74505805969E-08  0.93827000000E+00  0.93827000000E+00 0.  1.
     999902    2    1    2    0    0 -0.39946946012E-02  0.69497833675E-02  0.10134898578E-01  0.10310081873E+01  0.10309272084E+01 0.  0.
     999903    2    3    3    0    0  0.83250550046E-01  0.24444583645E-01  0.10269163428E+00  0.14169128650E+00  0.44751057724E-01 0.  0.
         14    1    1    2    0    0  0.39946946012E-02 -0.69497833675E-02 -0.10134898578E-01  0.12921812682E-01  0.00000000000E+00 0. -1.
     999901    1    3    3    0    0 -0.87245244647E-01 -0.17494800277E-01 -0.92556735702E-01  0.88931690081E+00  0.88000000000E+00 0.  1.
        -11    1    4    4    0    0  0.67165675477E-01  0.56190013292E-03  0.59231657797E-01  0.89555536403E-01  0.51100000000E-03 0.  1.
         11    1    4    4    0    0  0.16084874568E-01  0.23882683512E-01  0.43459976483E-01  0.52135750100E-01  0.51100000000E-03 0. -1.
</event>
<event>
 8    1  0.1993226E+004  0.1043930E+01  0.7957747E-01            NaN
         13   -1    0    0    0    0  0.00000000000E+00  0.00000000000E+00  0.74505805969E-08  0.10566000000E+00  0.10566000000E+00 0.  1.
     999900   -1    0    0    0    0 -0.00000000000E+00 -0.00000000000E+00 -0.74505805969E-08  0.93827000000E+00  0.93827000000E+00 0. -1.
     999902    2    1    2    0    0 -0.80797584774E-02  0.50130201595E-02  0.10122159412E-01  0.10300422003E+01  0.10299485732E+01 0.  0.
     999903    2    3    3    0    0 -0.87270991905E-01 -0.91726328623E-01  0.41257429833E-01  0.14066086586E+00  0.45313996496E-01 0.  0.
         14    1    1    2    0    0  0.80797584774E-02 -0.50130201595E-02 -0.10122159412E-01  0.13887799658E-01  0.00000000000E+00 0. -1.
     999901    1    3    3    0    0  0.79191233428E-01  0.96739348782E-01 -0.31135270421E-01  0.88938133448E+00  0.88000000000E+00 0. -1.
        -11    1    4    4    0    0 -0.46450327101E-01 -0.17585598479E-01  0.11890896556E-01  0.51073874961E-01  0.51100000000E-03 0.  1.
         11    1    4    4    0    0 -0.40820664805E-01 -0.74140730144E-01  0.29366533277E-01  0.89586990903E-01  0.51100000000E-03 0. -1.
</event>
<event>
 8    1  0.1993226E+004  0.1043930E+01  0.7957747E-01            NaN
         13   -1    0    0    0    0  0.00000000000E+00  0.00000000000E+00  0.74505805969E-08  0.10566000000E+00  0.10566000000E+00 0. -1.
     999900   -1    0    0    0    0 -0.00000000000E+00 -0.00000000000E+00 -0.74505805969E-08  0.93827000000E+00  0.93827000000E+00 0. -1.
     999902    2    1    2    0    0 -0.46160372643E-02  0.95877403164E-02 -0.81058629553E-02  0.10305532448E+01  0.10304664249E+01 0.  0.
     999903    2    3    3    0    0  0.30375716687E-01  0.10324296124E+00 -0.80641430527E-01  0.14192670246E+00  0.45369101205E-01 0.  0.
         14    1    1    2    0    0  0.46160372643E-02 -0.95877403164E-02  0.81058629553E-02  0.13376755162E-01  0.00000000000E+00 0. -1.
     999901    1    3    3    0    0 -0.34991753951E-01 -0.93655220926E-01  0.72535567572E-01  0.88862654238E+00  0.88000000000E+00 0.  1.
        -11    1    4    4    0    0 -0.21049998358E-02  0.70934795782E-01 -0.49789759909E-01  0.86691738878E-01  0.51100000000E-03 0.  1.
         11    1    4    4    0    0  0.32480716523E-01  0.32308165461E-01 -0.30851670618E-01  0.55234963585E-01  0.51100000000E-03 0. -1.
</event>
<event>
 8    1  0.1993226E+004  0.1043930E+01  0.7957747E-01            NaN
         13   -1    0    0    0    0  0.00000000000E+00  0.00000000000E+00  0.74505805969E-08  0.10566000000E+00  0.10566000000E+00 0. -1.
     999900   -1    0    0    0    0 -0.00000000000E+00 -0.00000000000E+00 -0.74505805969E-08  0.93827000000E+00  0.93827000000E+00 0. -1.
     999902    2    1    2    0    0 -0.20661261338E-02 -0.86246112170E-02 -0.10328332097E-01  0.10303165052E+01  0.10302265643E+01 0.  0.
     999903    2    3    3    0    0 -0.55348706499E-01 -0.10519518526E+00 -0.62853550057E-01  0.14187753284E+00  0.45267640300E-01 0.  0.
         14    1    1    2    0    0  0.20661261338E-02  0.86246112170E-02  0.10328332097E-01  0.13613494766E-01  0.00000000000E+00 0.  1.
     999901    1    3    3    0    0  0.53282580366E-01  0.96570574040E-01  0.52525217960E-01  0.88843897239E+00  0.88000000000E+00 0.  1.
        -11    1    4    4    0    0 -0.84416671550E-02 -0.86071770227E-02  0.68355713581E-02  0.13868359580E-01  0.51100000000E-03 0.  1.
         11    1    4    4    0    0 -0.46907039344E-01 -0.96588008234E-01 -0.69689121416E-01  0.12800917326E+00  0.51100000000E-03 0. -1.
</event>
<event>
 8    1  0.1993226E+004  0.1043930E+01  0.7957747E-01            NaN
         13   -1    0    0    0    0  0.00000000000E+00  0.00000000000E+00  0.74505805969E-08  0.10566000000E+00  0.10566000000E+00 0.  1.
     999900   -1    0    0    0    0 -0.00000000000E+00 -0.00000000000E+00 -0.74505805969E-08  0.93827000000E+00  0.93827000000E+00 0. -1.
     999902    2    1    2    0    0 -0.19489618250E-02 -0.10262026904E-01  0.13534411966E-02  0.10333972201E+01  0.10333435417E+01 0.  0.
     999903    2    3    3    0    0  0.34462881095E-01  0.99063261046E-01 -0.84004599621E-01  0.14178977512E+00  0.45236574907E-01 0.  0.
         14    1    1    2    0    0  0.19489618250E-02  0.10262026904E-01 -0.13534411966E-02  0.10532779854E-01  0.00000000000E+00 0. -1.
     999901    1    3    3    0    0 -0.36411842920E-01 -0.10932528795E+00  0.85358040818E-01  0.89160744502E+00  0.88000000000E+00 0. -1.
        -11    1    4    4    0    0  0.99465580896E-02  0.85701790686E-01 -0.64644873475E-01  0.10780979423E+00  0.51100000000E-03 0. -1.
         11    1    4    4    0    0  0.24516323006E-01  0.13361470360E-01 -0.19359726147E-01  0.33979980891E-01  0.51100000000E-03 0.  1.
</event>
<event>
 7    1  0.2591668E+004  0.1043930E+01  0.7957747E-01            NaN
         13   -1    0    0    0    0  0.00000000000E+00  0.00000000000E+00  0.74505805969E-08  0.10566000000E+00  0.10566000000E+00 0. -1.
     999900   -1    0    0    0    0 -0.00000000000E+00 -0.00000000000E+00 -0.74505805969E-08  0.93827000000E+00  0.93827000000E+00 0. -1.
     999903    2    1    2    0    0 -0.32267725798E-01  0.19317733799E-01  0.56796615459E-01  0.81431580135E-01  0.44619118640E-01 0.  0.
         14    1    1    2    0    0  0.97100417581E-02 -0.68617134147E-01  0.32072233646E-01  0.76362452688E-01  0.00000000000E+00 0. -1.
     999901    1    1    2    0    0  0.22557684040E-01  0.49299400348E-01 -0.88868849106E-01  0.88613596718E+00  0.88000000000E+00 0.  1.
        -11    1    3    3    0    0 -0.77077302216E-02  0.28201039160E-01  0.42690442663E-01  0.51744011544E-01  0.51100000000E-03 0.  1.
         11    1    3    3    0    0 -0.24559995577E-01 -0.88833053609E-02  0.14106172796E-01  0.29687568591E-01  0.51100000000E-03 0. -1.
</event>
<event>
 8    1  0.1993226E+004  0.1043930E+01  0.7957747E-01            NaN
         13   -1    0    0    0    0  0.00000000000E+00  0.00000000000E+00  0.74505805969E-08  0.10566000000E+00  0.10566000000E+00 0. -1.
     999900   -1    0    0    0    0 -0.00000000000E+00 -0.00000000000E+00 -0.74505805969E-08  0.93827000000E+00  0.93827000000E+00 0. -1.
     999902    2    1    2    0    0 -0.11954023188E-01  0.45690921882E-02 -0.56394808505E-02  0.10299450432E+01  0.10298500924E+01 0.  0.
     999903    2    3    3    0    0 -0.91825450618E-01  0.77291779163E-01  0.58896092206E-01  0.14099460904E+00  0.44774966145E-01 0.  0.
         14    1    1    2    0    0  0.11954023188E-01 -0.45690921882E-02  0.56394808505E-02  0.13984956849E-01  0.00000000000E+00 0.  1.
     999901    1    3    3    0    0  0.79871427431E-01 -0.72722686974E-01 -0.64535573057E-01  0.88895043411E+00  0.88000000000E+00 0. -1.
        -11    1    4    4    0    0 -0.35898490247E-01  0.51981921442E-01  0.13390818117E-01  0.64578610156E-01  0.51100000000E-03 0.  1.
         11    1    4    4    0    0 -0.55926960371E-01  0.25309857720E-01  0.45505274090E-01  0.76415998882E-01  0.51100000000E-03 0. -1.
</event>
<event>
 8    1  0.1993226E+004  0.1043930E+01  0.7957747E-01            NaN
         13   -1    0    0    0    0  0.00000000000E+00  0.00000000000E+00  0.74505805969E-08  0.10566000000E+00  0.10566000000E+00 0. -1.
     999900   -1    0    0    0    0 -0.00000000000E+00 -0.00000000000E+00 -0.74505805969E-08  0.93827000000E+00  0.93827000000E+00 0.  1.
     999902    2    1    2    0    0  0.12948602454E-01 -0.38985072559E-02 -0.22074985457E-02  0.10302282587E+01  0.10301371401E+01 0.  0.
     999903    2    3    3    0    0 -0.11992173958E+00  0.28104670248E-01  0.43526304309E-01  0.13850503266E+00  0.46021829526E-01 0.  0.
         14    1    1    2    0    0 -0.12948602454E-01  0.38985072559E-02  0.22074985457E-02  0.13701741282E-01  0.00000000000E+00 0. -1.
     999901    1    3    3    0    0  0.13287034203E+00 -0.32003177504E-01 -0.45733802855E-01  0.89172322605E+00  0.88000000000E+00 0.  1.
        -11    1    4    4    0    0 -0.92917716524E-01  0.38405590936E-02  0.19653887699E-01  0.95052555783E-01  0.51100000000E-03 0.  1.
         11    1    4    4    0    0 -0.27004023055E-01  0.24264111154E-01  0.23872416610E-01  0.43452476880E-01  0.51100000000E-03 0. -1.
</event>
<event>
 8    1  0.1993226E+004  0.1043930E+01  0.7957747E-01            NaN
         13   -1    0    0    0    0  0.00000000000E+00  0.00000000000E+00  0.74505805969E-08  0.10566000000E+00  0.10566000000E+00 0.  1.
     999900   -1    0    0    0    0 -0.00000000000E+00 -0.00000000000E+00 -0.74505805969E-08  0.93827000000E+00  0.93827000000E+00 0. -1.
     999902    2    1    2    0    0  0.20317659574E-02  0.16580747007E-02  0.13994519108E-01  0.10296918874E+01  0.10295934436E+01 0.  0.
     999903    2    3    3    0    0  0.18787644404E-01 -0.95779299711E-01 -0.87257010283E-01  0.13838572589E+00  0.44834957901E-01 0.  0.
         14    1    1    2    0    0 -0.20317659574E-02 -0.16580747007E-02 -0.13994519108E-01  0.14238112574E-01  0.00000000000E+00 0. -1.
     999901    1    3    3    0    0 -0.16755878446E-01  0.97437374412E-01  0.10125152939E+00  0.89130616154E+00  0.88000000000E+00 0.  1.
        -11    1    4    4    0    0  0.29481190629E-01 -0.46524707617E-01 -0.32469817611E-01  0.63939339975E-01  0.51100000000E-03 0. -1.
         11    1    4    4    0    0 -0.10693546225E-01 -0.49254592094E-01 -0.54787192673E-01  0.74446385911E-01  0.51100000000E-03 0.  1.
</event>
<event>
 8    1  0.1993226E+004  0.1043930E+01  0.7957747E-01            NaN
         13   -1    0    0    0    0  0.00000000000E+00  0.00000000000E+00  0.74505805969E-08  0.10566000000E+00  0.10566000000E+00 0.  1.
     999900   -1    0    0    0    0 -0.00000000000E+00 -0.00000000000E+00 -0.74505805969E-08  0.93827000000E+00  0.93827000000E+00 0. -1.
     999902    2    1    2    0    0  0.74625204824E-02  0.25605078041E-02  0.11682049348E-01  0.10298333448E+01  0.10297368607E+01 0.  0.
     999903    2    3    3    0    0  0.88200823842E-01 -0.47649580436E-01 -0.85862025354E-01  0.13935337693E+00  0.44690137851E-01 0.  0.
         14    1    1    2    0    0 -0.74625204824E-02 -0.25605078041E-02 -0.11682049348E-01  0.14096655246E-01  0.00000000000E+00 0. -1.
     999901    1    3    3    0    0 -0.80738303359E-01  0.50210088240E-01  0.97544074702E-01  0.89047996783E+00  0.88000000000E+00 0.  1.
        -11    1    4    4    0    0  0.59858331959E-01 -0.11017562553E-01 -0.33618416402E-01  0.69533198056E-01  0.51100000000E-03 0. -1.
         11    1    4    4    0    0  0.28342491883E-01 -0.36632017883E-01 -0.52243608952E-01  0.69820178872E-01  0.51100000000E-03 0.  1.
</event>
<event>
 8    1  0.1993226E+004  0.1043930E+01  0.7957747E-01            NaN
         13   -1    0    0    0    0  0.00000000000E+00  0.00000000000E+00  0.74505805969E-08  0.10566000000E+00  0.10566000000E+00 0.  1.
     999900   -1    0    0    0    0 -0.00000000000E+00 -0.00000000000E+00 -0.74505805969E-08  0.93827000000E+00  0.93827000000E+00 0.  1.
     999902    2    1    2    0    0 -0.40200228277E-02  0.33002548584E-02 -0.13367009964E-01  0.10295867360E+01  0.10294868226E+01 0.  0.
     999903    2    3    3    0    0  0.12786906947E-01 -0.31459022554E-01  0.12561539996E+00  0.13784305621E+00  0.45478614181E-01 0.  0.
         14    1    1    2    0    0  0.40200228277E-02 -0.33002548584E-02  0.13367009964E-01  0.14343263961E-01  0.00000000000E+00 0.  1.
     999901    1    3    3    0    0 -0.16806929774E-01  0.34759277413E-01 -0.13898240992E+00  0.89174367983E+00  0.88000000000E+00 0.  1.
        -11    1    4    4    0    0  0.11559811510E-01 -0.27866522969E-01  0.31392021749E-01  0.43541847630E-01  0.51100000000E-03 0. -1.
         11    1    4    4    0    0  0.12270954368E-02 -0.35924995856E-02  0.94223378211E-01  0.94301208576E-01  0.51100000000E-03 0.  1.
</event>
<event>
 7    1  0.1993226E+004  0.1043930E+01  0.7957747E-01            NaN
         13   -1    0    0    0    0  0.00000000000E+00  0.00000000000E+00  0.74505805969E-08  0.10566000000E+00  0.10566000000E+00 0. -1.
     999900   -1    0    0    0    0 -0.00000000000E+00 -0.00000000000E+00 -0.74505805969E-08  0.93827000000E+00  0.93827000000E+00 0.  1.
     999903    2    1    2    0    0 -0.43196879580E-01  0.10496269736E+00 -0.10238070122E-01  0.12275427019E+00  0.45614192161E-01 0.  0.
         14    1    1    2    0    0 -0.98164596122E-02  0.20541420125E-01  0.20495095267E-01  0.30632690872E-01  0.00000000000E+00 0. -1.
     999901    1    1    2    0    0  0.53013339192E-01 -0.12550411749E+00 -0.10257025145E-01  0.89054303894E+00  0.88000000000E+00 0. -1.
        -11    1    3    3    0    0 -0.75853274379E-02  0.76114607162E-01 -0.62654841537E-02  0.76749514842E-01  0.51100000000E-03 0. -1.
         11    1    3    3    0    0 -0.35611552142E-01  0.28848090201E-01 -0.39725859683E-02  0.46004755347E-01  0.51100000000E-03 0.  1.
</event>
<event>
 8    1  0.1993226E+004  0.1043930E+01  0.7957747E-01            NaN
         13   -1    0    0    0    0  0.00000000000E+00  0.00000000000E+00  0.74505805969E-08  0.10566000000E+00  0.10566000000E+00 0.  1.
     999900   -1    0    0    0    0 -0.00000000000E+00 -0.00000000000E+00 -0.74505805969E-08  0.93827000000E+00  0.93827000000E+00 0. -1.
     999902    2    1    2    0    0  0.10384865689E-01  0.62319348452E-02  0.58062988615E-02  0.10304988588E+01  0.10304113268E+01 0.  0.
     999903    2    3    3    0    0 -0.35772562133E-01 -0.55758913284E-01  0.11529015401E+00  0.14035275398E+00  0.44925976072E-01 0.  0.
         14    1    1    2    0    0 -0.10384865689E-01 -0.62319348452E-02 -0.58062988615E-02  0.13431141194E-01  0.00000000000E+00 0. -1.
     999901    1    3    3    0    0  0.46157427822E-01  0.61990848129E-01 -0.10948385515E+00  0.89014610482E+00  0.88000000000E+00 0. -1.
        -11    1    4    4    0    0 -0.29605551961E-01 -0.63495807950E-01  0.98899580898E-01  0.12120063761E+00  0.51100000000E-03 0.  1.
         11    1    4    4    0    0 -0.61670101720E-02  0.77368946662E-02  0.16390573114E-01  0.19152116373E-01  0.51100000000E-03 0. -1.
</event>
<event>
 8    1  0.1993226E+004  0.1043930E+01  0.7957747E-01            NaN
         13   -1    0    0    0    0  0.00000000000E+00  0.00000000000E+00  0.74505805969E-08  0.10566000000E+00  0.10566000000E+00 0. -1.
     999900   -1    0    0    0    0 -0.00000000000E+00 -0.00000000000E+00 -0.74505805969E-08  0.93827000000E+00  0.93827000000E+00 0. -1.
     999902    2    1    2    0    0  0.12563050086E-01  0.52082890588E-02  0.25961978632E-02  0.10300845406E+01  0.10299914874E+01 0.  0.
     999903    2    3    3    0    0 -0.77647867626E-01 -0.46708846008E-01  0.95516562528E-01  0.13909206435E+00  0.44858455220E-01 0.  0.
         14    1    1    2    0    0 -0.12563050086E-01 -0.52082890588E-02 -0.25961978632E-02  0.13845459390E-01  0.00000000000E+00 0.  1.
     999901    1    3    3    0    0  0.90210917712E-01  0.51917135067E-01 -0.92920364665E-01  0.89099247626E+00  0.88000000000E+00 0. -1.
        -11    1    4    4    0    0 -0.32604449118E-01  0.38680815361E-02  0.24604978088E-01  0.41032648279E-01  0.51100000000E-03 0. -1.
         11    1    4    4    0    0 -0.45043418508E-01 -0.50576927544E-01  0.70911584440E-01  0.98059416067E-01  0.51100000000E-03 0.  1.
</event>
<event>
 8    1  0.1993226E+004  0.1043930E+01  0.7957747E-01            NaN
         13   -1    0    0    0    0  0.00000000000E+00  0.00000000000E+00  0.74505805969E-08  0.10566000000E+00  0.10566000000E+00 0. -1.
     999900   -1    0    0    0    0 -0.00000000000E+00 -0.00000000000E+00 -0.74505805969E-08  0.93827000000E+00  0.93827000000E+00 0.  1.
     999902    2    1    2    0    0 -0.37536425882E-02 -0.25898565786E-01  0.92841575069E-05  0.10177608267E+01  0.10174243337E+01 0.  0.
     999903    2    3    3    0    0  0.85827616094E-01 -0.87227471863E-01  0.11249826064E-01  0.13101825621E+00  0.45433614660E-01 0.  0.
         14    1    1    2    0    0  0.37536425882E-02  0.25898565786E-01 -0.92841575069E-05  0.26169173252E-01  0.00000000000E+00 0.  1.
     999901    1    3    3    0    0 -0.89581258682E-01  0.61328906076E-01 -0.11240541907E-01  0.88674257054E+00  0.88000000000E+00 0.  1.
        -11    1    4    4    0    0  0.38503058219E-01 -0.61650642464E-01  0.22434736982E-01  0.76071451628E-01  0.51100000000E-03 0.  1.
         11    1    4    4    0    0  0.47324557875E-01 -0.25576829399E-01 -0.11184910918E-01  0.54946804579E-01  0.51100000000E-03 0. -1.
</event>
<event>
 8    1  0.1993226E+004  0.1043930E+01  0.7957747E-01            NaN
         13   -1    0    0    0    0  0.00000000000E+00  0.00000000000E+00  0.74505805969E-08  0.10566000000E+00  0.10566000000E+00 0.  1.
     999900   -1    0    0    0    0 -0.00000000000E+00 -0.00000000000E+00 -0.74505805969E-08  0.93827000000E+00  0.93827000000E+00 0. -1.
     999902    2    1    2    0    0  0.77532305015E-02  0.32193058818E-02 -0.11443855745E-01  0.10297371022E+01  0.10296392870E+01 0.  0.
     999903    2    3    3    0    0 -0.61376529243E-01  0.99840635138E-01  0.59408461812E-01  0.13893148039E+00  0.45137125984E-01 0.  0.
         14    1    1    2    0    0 -0.77532305015E-02 -0.32193058818E-02  0.11443855745E-01  0.14192897797E-01  0.00000000000E+00 0.  1.
     999901    1    3    3    0    0  0.69129759744E-01 -0.96621329256E-01 -0.70852317557E-01  0.89080562181E+00  0.88000000000E+00 0. -1.
        -11    1    4    4    0    0 -0.20408634135E-01  0.20646078296E-01 -0.42908850940E-02  0.29350395434E-01  0.51100000000E-03 0.  1.
         11    1    4    4    0    0 -0.40967895107E-01  0.79194556842E-01  0.63699346906E-01  0.10958108496E+00  0.51100000000E-03 0. -1.
</event>
<event>
 8    1  0.1993226E+004  0.1043930E+01  0.7957747E-01            NaN
         13   -1    0    0    0    0  0.00000000000E+00  0.00000000000E+00  0.74505805969E-08  0.10566000000E+00  0.10566000000E+00 0.  1.
     999900   -1    0    0    0    0 -0.00000000000E+00 -0.00000000000E+00 -0.74505805969E-08  0.93827000000E+00  0.93827000000E+00 0.  1.
     999902    2    1    2    0    0 -0.93598963942E-02 -0.50532527579E-02 -0.85179926008E-02  0.10303028498E+01  0.10302127271E+01 0.  0.
     999903    2    3    3    0    0 -0.12492447255E+00 -0.42468974850E-01  0.22573608443E-01  0.14141489559E+00  0.45594596501E-01 0.  0.
         14    1    1    2    0    0  0.93598963942E-02  0.50532527579E-02  0.85179926008E-02  0.13627150175E-01  0.00000000000E+00 0.  1.
     999901    1    3    3    0    0  0.11556457616E+00  0.37415722092E-01 -0.31091601043E-01  0.88888795423E+00  0.88000000000E+00 0. -1.
        -11    1    4    4    0    0 -0.65022540169E-01  0.81992121017E-03  0.37001806719E-02  0.65134902002E-01  0.51100000000E-03 0. -1.
         11    1    4    4    0    0 -0.59901932384E-01 -0.43288896061E-01  0.18873427771E-01  0.76279993591E-01  0.51100000000E-03 0.  1.
</event>
<event>
 8    1  0.1993226E+004  0.1043930E+01  0.7957747E-01            NaN
         13   -1    0    0    0    0  0.00000000000E+00  0.00000000000E+00  0.74505805969E-08  0.10566000000E+00  0.10566000000E+00 0.  1.
     999900   -1    0    0    0    0 -0.00000000000E+00 -0.00000000000E+00 -0.74505805969E-08  0.93827000000E+00  0.93827000000E+00 0.  1.
     999902    2    1    2    0    0  0.12446823163E-01  0.34758010888E-02 -0.41908611000E-02  0.10303444225E+01  0.10302548525E+01 0.  0.
     999903    2    3    3    0    0  0.16867454401E-01  0.30335153889E-01  0.12808865022E+00  0.14004175712E+00  0.44724253393E-01 0.  0.
         14    1    1    2    0    0 -0.12446823163E-01 -0.34758010888E-02  0.41908611000E-02  0.13585577530E-01  0.00000000000E+00 0.  1.
     999901    1    3    3    0    0 -0.44206312375E-02 -0.26859352800E-01 -0.13227951132E+00  0.89030266535E+00  0.88000000000E+00 0.  1.
        -11    1    4    4    0    0  0.29749118933E-01  0.28652548128E-01  0.77635109150E-01  0.87940035736E-01  0.51100000000E-03 0. -1.
         11    1    4    4    0    0 -0.12881664532E-01  0.16826057609E-02  0.50453541074E-01  0.52101721384E-01  0.51100000000E-03 0.  1.
</event>
<event>
 8    1  0.1993226E+004  0.1043930E+01  0.7957747E-01            NaN
         13   -1    0    0    0    0  0.00000000000E+00  0.00000000000E+00  0.74505805969E-08  0.10566000000E+00  0.10566000000E+00 0. -1.
     999900   -1    0    0    0    0 -0.00000000000E+00 -0.00000000000E+00 -0.74505805969E-08  0.93827000000E+00  0.93827000000E+00 0.  1.
     999902    2    1    2    0    0 -0.15472265030E-01 -0.16080404673E-01  0.66113102188E-03  0.10216049581E+01  0.10213609954E+01 0.  0.
     999903    2    3    3    0    0  0.10341892783E+00  0.28021981689E-01  0.59528174534E-01  0.13056878321E+00  0.44987748276E-01 0.  0.
         14    1    1    2    0    0  0.15472265030E-01  0.16080404673E-01 -0.66113102188E-03  0.22325041855E-01  0.00000000000E+00 0. -1.
     999901    1    3    3    0    0 -0.11889119286E+00 -0.44102386363E-01 -0.58867043512E-01  0.89103617493E+00  0.88000000000E+00 0. -1.
        -11    1    4    4    0    0  0.18706512004E-01 -0.45529589617E-02  0.28996715666E-01  0.34809965054E-01  0.51100000000E-03 0. -1.
         11    1    4    4    0    0  0.84712415828E-01  0.32574940651E-01  0.30531458868E-01  0.95758818160E-01  0.51100000000E-03 0.  1.
</event>
<event>
 8    1  0.1993226E+004  0.1043930E+01  0.7957747E-01            NaN
         13   -1    0    0    0    0  0.00000000000E+00  0.00000000000E+00  0.74505805969E-08  0.10566000000E+00  0.10566000000E+00 0. -1.
     999900   -1    0    0    0    0 -0.00000000000E+00 -0.00000000000E+00 -0.74505805969E-08  0.93827000000E+00  0.93827000000E+00 0. -1.
     999902    2    1    2    0    0  0.57893466155E-02  0.11341930377E-01 -0.46079201494E-02  0.10303878862E+01  0.10302988921E+01 0.  0.
     999903    2    3    3    0    0 -0.11184861763E-01 -0.12736825907E+00  0.31627682836E-01  0.13862465564E+00  0.43228581715E-01 0.  0.
         14    1    1    2    0    0 -0.57893466155E-02 -0.11341930377E-01  0.46079201494E-02  0.13542113831E-01  0.00000000000E+00 0. -1.
     999901    1    3    3    0    0  0.16974208378E-01  0.13871018945E+00 -0.36235602985E-01  0.89176323053E+00  0.88000000000E+00 0. -1.
        -11    1    4    4    0    0 -0.19516498976E-01 -0.50611646706E-01  0.28674701140E-01  0.61359042700E-01  0.51100000000E-03 0. -1.
         11    1    4    4    0    0  0.83316372132E-02 -0.76756612366E-01  0.29529816950E-02  0.77265612936E-01  0.51100000000E-03 0.  1.
</event>
<event>
 8    1  0.1993226E+004  0.1043930E+01  0.7957747E-01            NaN
         13   -1    0    0    0    0  0.00000000000E+00  0.00000000000E+00  0.74505805969E-08  0.10566000000E+00  0.10566000000E+00 0. -1.
     999900   -1    0    0    0    0 -0.00000000000E+00 -0.00000000000E+00 -0.74505805969E-08  0.93827000000E+00  0.93827000000E+00 0. -1.
     999902    2    1    2    0    0  0.34845970492E-02  0.27024757055E-02  0.12302231276E-01  0.10308613089E+01  0.10307784668E+01 0.  0.
     999903    2    3    3    0    0 -0.34929174844E-01  0.12346214800E+00  0.39470520770E-01  0.14136896368E+00  0.44320566785E-01 0.  0.
         14    1    1    2    0    0 -0.34845970492E-02 -0.27024757055E-02 -0.12302231276E-01  0.13068691055E-01  0.00000000000E+00 0.  1.
     999901    1    3    3    0    0  0.38413771894E-01 -0.12075967229E+00 -0.27168289494E-01  0.88949234526E+00  0.88000000000E+00 0.  1.
        -11    1    4    4    0    0 -0.42018644394E-01  0.12058482024E+00  0.39611028747E-01  0.13369951410E+00  0.51100000000E-03 0. -1.
         11    1    4    4    0    0  0.70894695499E-02  0.28773277513E-02 -0.14050797746E-03  0.76694495877E-02  0.51100000000E-03 0.  1.
</event>
<event>
 8    1  0.1993226E+004  0.1043930E+01  0.7957747E-01            NaN
         13   -1    0    0    0    0  0.00000000000E+00  0.00000000000E+00  0.74505805969E-08  0.10566000000E+00  0.10566000000E+00 0. -1.
     999900   -1    0    0    0    0 -0.00000000000E+00 -0.00000000000E+00 -0.74505805969E-08  0.93827000000E+00  0.93827000000E+00 0. -1.
     999902    2    1    2    0    0  0.10897885368E-01  0.26667233343E-02  0.80253865350E-02  0.10301357205E+01  0.10300433585E+01 0.  0.
     999903    2    3    3    0    0  0.65345847429E-02 -0.24881609720E-01  0.13114576126E+00  0.14112696026E+00  0.45341073180E-01 0.  0.
         14    1    1    2    0    0 -0.10897885368E-01 -0.26667233343E-02 -0.80253865350E-02  0.13794279535E-01  0.00000000000E+00 0.  1.
     999901    1    3    3    0    0  0.43633006256E-02  0.27548333054E-01 -0.12312037472E+00  0.88900876020E+00  0.88000000000E+00 0. -1.
        -11    1    4    4    0    0  0.17786637619E-01 -0.25956487772E-01  0.49200535983E-01  0.58404260095E-01  0.51100000000E-03 0. -1.
         11    1    4    4    0    0 -0.11252052876E-01  0.10748780517E-02  0.81945225274E-01  0.82722700167E-01  0.51100000000E-03 0.  1.
</event>
<event>
 7    1  0.3269964E+004  0.1043930E+01  0.7957747E-01            NaN
         13   -1    0    0    0    0  0.00000000000E+00  0.00000000000E+00  0.74505805969E-08  0.10566000000E+00  0.10566000000E+00 0.  1.
     999900   -1    0    0    0    0 -0.00000000000E+00 -0.00000000000E+00 -0.74505805969E-08  0.93827000000E+00  0.93827000000E+00 0. -1.
     999903    2    1    2    0    0 -0.53864667907E-01  0.52470560575E-01 -0.10505992238E-01  0.87834424464E-01  0.44158216362E-01 0.  0.
         14    1    1    2    0    0 -0.21350856651E-01 -0.62542129346E-01  0.30086687689E-01  0.72612573285E-01  0.00000000000E+00 0.  1.
     999901    1    1    2    0    0  0.75215524559E-01  0.10071568772E-01 -0.19580695451E-01  0.88348300225E+00  0.88000000000E+00 0. -1.
        -11    1    3    3    0    0 -0.27993534364E-01  0.91640292022E-02  0.12973426480E-01  0.32189879047E-01  0.51100000000E-03 0.  1.
         11    1    3    3    0    0 -0.25871133543E-01  0.43306531372E-01 -0.23479418719E-01  0.55644545417E-01  0.51100000000E-03 0. -1.
</event>
<event>
 8    1  0.1993226E+004  0.1043930E+01  0.7957747E-01            NaN
         13   -1    0    0    0    0  0.00000000000E+00  0.00000000000E+00  0.74505805969E-08  0.10566000000E+00  0.10566000000E+00 0.  1.
     999900   -1    0    0    0    0 -0.00000000000E+00 -0.00000000000E+00 -0.74505805969E-08  0.93827000000E+00  0.93827000000E+00 0. -1.
     999902    2    1    2    0    0 -0.52139083783E-02 -0.42641089158E-02  0.11336297782E-01  0.10307436771E+01  0.10306593272E+01 0.  0.
     999903    2    3    3    0    0 -0.43464697081E-01  0.93080392567E-01  0.86567430301E-01  0.14136254497E+00  0.44003519849E-01 0.  0.
         14    1    1    2    0    0  0.52139083783E-02  0.42641089158E-02 -0.11336297782E-01  0.13186322946E-01  0.00000000000E+00 0. -1.
     999901    1    3    3    0    0  0.38250788703E-01 -0.97344501483E-01 -0.75231132519E-01  0.88938113208E+00  0.88000000000E+00 0. -1.
        -11    1    4    4    0    0  0.16767705421E-02  0.42031784439E-01  0.21947782245E-01  0.47449433390E-01  0.51100000000E-03 0.  1.
         11    1    4    4    0    0 -0.45141467623E-01  0.51048608128E-01  0.64619648056E-01  0.93913111581E-01  0.51100000000E-03 0. -1.
</event>
