<event>
 8    1  0.2929965E+004  0.1043930E+01  0.7957747E-01            NaN
         13   -1    0    0    0    0  0.00000000000E+00  0.00000000000E+00  0.74505805969E-08  0.10566000000E+00  0.10566000000E+00 0.  1.
     999900   -1    0    0    0    0 -0.00000000000E+00 -0.00000000000E+00 -0.74505805969E-08  0.93827000000E+00  0.93827000000E+00 0. -1.
     999902    2    1    2    0    0 -0.41814955369E-02  0.20092372978E-02  0.12426556331E-01  0.10306657156E+01  0.10305803588E+01 0.  0.
     999903    2    3    3    0    0 -0.98884734144E-01  0.38161579790E-01  0.83178877168E-01  0.14202541365E+00  0.44922107005E-01 0.  0.
         14    1    1    2    0    0  0.41814955369E-02 -0.20092372978E-02 -0.12426556331E-01  0.13264284439E-01  0.00000000000E+00 0. -1.
     999901    1    3    3    0    0  0.94703238607E-01 -0.36152342492E-01 -0.70752320837E-01  0.88864030191E+00  0.88000000000E+00 0. -1.
        -11    1    4    4    0    0 -0.56945240318E-01  0.13633033337E-01  0.19068759372E-01  0.61583266379E-01  0.51100000000E-03 0.  1.
         11    1    4    4    0    0 -0.41939493825E-01  0.24528546453E-01  0.64110117795E-01  0.80442147275E-01  0.51100000000E-03 0. -1.
</event>
<event>
 8    1  0.2929965E+004  0.1043930E+01  0.7957747E-01            NaN
         13   -1    0    0    0    0  0.00000000000E+00  0.00000000000E+00  0.74505805969E-08  0.10566000000E+00  0.10566000000E+00 0.  1.
     999900   -1    0    0    0    0 -0.00000000000E+00 -0.00000000000E+00 -0.74505805969E-08  0.93827000000E+00  0.93827000000E+00 0.  1.
     999902    2    1    2    0    0  0.52071898458E-02  0.13361511517E-02  0.12353128271E-01  0.10304578100E+01  0.10303697386E+01 0.  0.
     999903    2    3    3    0    0  0.90546856312E-01  0.94242375325E-01 -0.25818892979E-01  0.14064236373E+00  0.45092136200E-01 0.  0.
         14    1    1    2    0    0 -0.52071898458E-02 -0.13361511517E-02 -0.12353128271E-01  0.13472190025E-01  0.00000000000E+00 0. -1.
     999901    1    3    3    0    0 -0.85339666466E-01 -0.92906224173E-01  0.38172021250E-01  0.88981544624E+00  0.88000000000E+00 0. -1.
        -11    1    4    4    0    0  0.81483085185E-01  0.91391313070E-01 -0.35075584088E-01  0.12736727600E+00  0.51100000000E-03 0. -1.
         11    1    4    4    0    0  0.90637711275E-02  0.28510622553E-02  0.92566911086E-02  0.13275087733E-01  0.51100000000E-03 0.  1.
</event>
<event>
 8    1  0.2929965E+004  0.1043930E+01  0.7957747E-01            NaN
         13   -1    0    0    0    0  0.00000000000E+00  0.00000000000E+00  0.74505805969E-08  0.10566000000E+00  0.10566000000E+00 0. -1.
     999900   -1    0    0    0    0 -0.00000000000E+00 -0.00000000000E+00 -0.74505805969E-08  0.93827000000E+00  0.93827000000E+00 0.  1.
     999902    2    1    2    0    0  0.82779338674E-02  0.94331565577E-02  0.88894557502E-02  0.10285504338E+01  0.10284354447E+01 0.  0.
     999903    2    3    3    0    0 -0.86058223884E-01 -0.75196942519E-01  0.62205977294E-01  0.13787416504E+00  0.45597189746E-01 0.  0.
         14    1    1    2    0    0 -0.82779338674E-02 -0.94331565577E-02 -0.88894557502E-02  0.15379566161E-01  0.00000000000E+00 0.  1.
     999901    1    3    3    0    0  0.94336157751E-01  0.84630099077E-01 -0.53316521544E-01  0.89067626880E+00  0.88000000000E+00 0.  1.
        -11    1    4    4    0    0 -0.20933446302E-01 -0.51922594018E-02  0.30059886358E-01  0.37000359736E-01  0.51100000000E-03 0.  1.
         11    1    4    4    0    0 -0.65124777582E-01 -0.70004683117E-01  0.32146090937E-01  0.10087380531E+00  0.51100000000E-03 0. -1.
</event>
<event>
 8    1  0.2929965E+004  0.1043930E+01  0.7957747E-01            NaN
         13   -1    0    0    0    0  0.00000000000E+00  0.00000000000E+00  0.74505805969E-08  0.10566000000E+00  0.10566000000E+00 0. -1.
     999900   -1    0    0    0    0 -0.00000000000E+00 -0.00000000000E+00 -0.74505805969E-08  0.93827000000E+00  0.93827000000E+00 0. -1.
     999902    2    1    2    0    0  0.30461891003E-02  0.12623371400E-01 -0.14979452301E-02  0.10308581748E+01  0.10307752927E+01 0.  0.
     999903    2    3    3    0    0 -0.15905295363E-01 -0.65090133170E-01  0.11247666519E+00  0.13990993874E+00  0.49336466129E-01 0.  0.
         14    1    1    2    0    0 -0.30461891003E-02 -0.12623371400E-01  0.14979452301E-02  0.13071825177E-01  0.00000000000E+00 0. -1.
     999901    1    3    3    0    0  0.18951484464E-01  0.77713504570E-01 -0.11397461042E+00  0.89094823608E+00  0.88000000000E+00 0. -1.
        -11    1    4    4    0    0  0.87703753179E-02 -0.56289253698E-01  0.78921645084E-01  0.97335947876E-01  0.51100000000E-03 0.  1.
         11    1    4    4    0    0 -0.24675670681E-01 -0.88008794727E-02  0.33555020105E-01  0.42573990866E-01  0.51100000000E-03 0. -1.
</event>
<event>
 8    1  0.2929965E+004  0.1043930E+01  0.7957747E-01            NaN
         13   -1    0    0    0    0  0.00000000000E+00  0.00000000000E+00  0.74505805969E-08  0.10566000000E+00  0.10566000000E+00 0.  1.
     999900   -1    0    0    0    0 -0.00000000000E+00 -0.00000000000E+00 -0.74505805969E-08  0.93827000000E+00  0.93827000000E+00 0.  1.
     999902    2    1    2    0    0  0.49606105004E-02 -0.53163842373E-02 -0.11961112095E-01  0.10299321501E+01  0.10298370231E+01 0.  0.
     999903    2    3    3    0    0 -0.11935390448E+00 -0.45240478615E-01  0.32335712768E-01  0.13919636405E+00  0.45143925658E-01 0.  0.
         14    1    1    2    0    0 -0.49606105004E-02  0.53163842373E-02  0.11961112095E-01  0.13997849850E-01  0.00000000000E+00 0.  1.
     999901    1    3    3    0    0  0.12431451498E+00  0.39924094377E-01 -0.44296824863E-01  0.89073578610E+00  0.88000000000E+00 0.  1.
        -11    1    4    4    0    0 -0.64604498317E-01 -0.40908859643E-01  0.20936456924E-02  0.76497846200E-01  0.51100000000E-03 0. -1.
         11    1    4    4    0    0 -0.54749406166E-01 -0.43316189721E-02  0.30242067076E-01  0.62698517849E-01  0.51100000000E-03 0.  1.
</event>
<event>
 8    1  0.2929965E+004  0.1043930E+01  0.7957747E-01            NaN
         13   -1    0    0    0    0  0.00000000000E+00  0.00000000000E+00  0.74505805969E-08  0.10566000000E+00  0.10566000000E+00 0.  1.
     999900   -1    0    0    0    0 -0.00000000000E+00 -0.00000000000E+00 -0.74505805969E-08  0.93827000000E+00  0.93827000000E+00 0. -1.
     999902    2    1    2    0    0  0.91966251423E-02  0.62204243648E-02  0.87368642722E-02  0.10298018582E+01  0.10297049397E+01 0.  0.
     999903    2    3    3    0    0  0.21265407761E-01 -0.23845568363E-01  0.12978604242E+00  0.14092474467E+00  0.44660252520E-01 0.  0.
         14    1    1    2    0    0 -0.91966251423E-02 -0.62204243648E-02 -0.87368642722E-02  0.14128141796E-01  0.00000000000E+00 0.  1.
     999901    1    3    3    0    0 -0.12068782618E-01  0.30065992728E-01 -0.12104917815E+00  0.88887711353E+00  0.88000000000E+00 0. -1.
        -11    1    4    4    0    0  0.91168885130E-02 -0.36336122837E-01  0.90087574089E-01  0.97567738548E-01  0.51100000000E-03 0. -1.
         11    1    4    4    0    0  0.12148519248E-01  0.12490554474E-01  0.39698468333E-01  0.43357006123E-01  0.51100000000E-03 0.  1.
</event>
<event>
 8    1  0.2929965E+004  0.1043930E+01  0.7957747E-01            NaN
         13   -1    0    0    0    0  0.00000000000E+00  0.00000000000E+00  0.74505805969E-08  0.10566000000E+00  0.10566000000E+00 0. -1.
     999900   -1    0    0    0    0 -0.00000000000E+00 -0.00000000000E+00 -0.74505805969E-08  0.93827000000E+00  0.93827000000E+00 0.  1.
     999902    2    1    2    0    0 -0.58764720693E-02 -0.13136562916E-01 -0.69436883219E-03  0.10295222119E+01  0.10294213911E+01 0.  0.
     999903    2    3    3    0    0  0.97687334786E-02  0.15147825244E-01  0.13056131783E+00  0.13920045303E+00  0.44784189698E-01 0.  0.
         14    1    1    2    0    0  0.58764720693E-02  0.13136562916E-01  0.69436883219E-03  0.14407788078E-01  0.00000000000E+00 0. -1.
     999901    1    3    3    0    0 -0.15645205548E-01 -0.28284388160E-01 -0.13125568667E+00  0.89032175889E+00  0.88000000000E+00 0.  1.
        -11    1    4    4    0    0  0.19190422552E-01 -0.78276221734E-02  0.82932020259E-01  0.85484063379E-01  0.51100000000E-03 0. -1.
         11    1    4    4    0    0 -0.94216890733E-02  0.22975447417E-01  0.47629297574E-01  0.53716389653E-01  0.51100000000E-03 0.  1.
</event>
<event>
 8    1  0.2929965E+004  0.1043930E+01  0.7957747E-01            NaN
         13   -1    0    0    0    0  0.00000000000E+00  0.00000000000E+00  0.74505805969E-08  0.10566000000E+00  0.10566000000E+00 0. -1.
     999900   -1    0    0    0    0 -0.00000000000E+00 -0.00000000000E+00 -0.74505805969E-08  0.93827000000E+00  0.93827000000E+00 0. -1.
     999902    2    1    2    0    0  0.73425493141E-03 -0.13293230024E-01 -0.52576052968E-02  0.10296159681E+01  0.10295164643E+01 0.  0.
     999903    2    3    3    0    0 -0.82366523334E-01 -0.94955717455E-01  0.44091245799E-01  0.14056601998E+00  0.44876893550E-01 0.  0.
         14    1    1    2    0    0 -0.73425493141E-03  0.13293230024E-01  0.52576052968E-02  0.14314031865E-01  0.00000000000E+00 0.  1.
     999901    1    3    3    0    0  0.83100778265E-01  0.81662487432E-01 -0.49348851096E-01  0.88904994815E+00  0.88000000000E+00 0. -1.
        -11    1    4    4    0    0 -0.15001895773E-01 -0.47972745570E-01  0.25464415284E-01  0.56348369640E-01  0.51100000000E-03 0.  1.
         11    1    4    4    0    0 -0.67364627561E-01 -0.46982971885E-01  0.18626830515E-01  0.84217650345E-01  0.51100000000E-03 0. -1.
</event>
<event>
 8    1  0.2929965E+004  0.1043930E+01  0.7957747E-01            NaN
         13   -1    0    0    0    0  0.00000000000E+00  0.00000000000E+00  0.74505805969E-08  0.10566000000E+00  0.10566000000E+00 0.  1.
     999900   -1    0    0    0    0 -0.00000000000E+00 -0.00000000000E+00 -0.74505805969E-08  0.93827000000E+00  0.93827000000E+00 0.  1.
     999902    2    1    2    0    0  0.19237448767E-02 -0.96769863066E-02  0.95567868788E-02  0.10301940241E+01  0.10301024465E+01 0.  0.
     999903    2    3    3    0    0  0.11208936178E-01 -0.12441480978E+00  0.48869194517E-01  0.14182673052E+00  0.46064500158E-01 0.  0.
         14    1    1    2    0    0 -0.19237448767E-02  0.96769863066E-02 -0.95567868788E-02  0.13735975895E-01  0.00000000000E+00 0. -1.
     999901    1    3    3    0    0 -0.92851913008E-02  0.11473782347E+00 -0.39312407638E-01  0.88836729358E+00  0.88000000000E+00 0.  1.
        -11    1    4    4    0    0 -0.87621118870E-02 -0.84197574666E-01  0.47125847899E-01  0.96887113929E-01  0.51100000000E-03 0. -1.
         11    1    4    4    0    0  0.19971048065E-01 -0.40217235115E-01  0.17433466181E-02  0.44939616593E-01  0.51100000000E-03 0.  1.
</event>
<event>
 8    1  0.2929965E+004  0.1043930E+01  0.7957747E-01            NaN
         13   -1    0    0    0    0  0.00000000000E+00  0.00000000000E+00  0.74505805969E-08  0.10566000000E+00  0.10566000000E+00 0.  1.
     999900   -1    0    0    0    0 -0.00000000000E+00 -0.00000000000E+00 -0.74505805969E-08  0.93827000000E+00  0.93827000000E+00 0.  1.
     999902    2    1    2    0    0 -0.37367404934E-02  0.12356893349E-01 -0.47988251946E-03  0.10310115508E+01  0.10309306143E+01 0.  0.
     999903    2    3    3    0    0  0.79467037133E-01  0.10186425229E+00 -0.37446140175E-01  0.14179788686E+00  0.44867487313E-01 0.  0.
         14    1    1    2    0    0  0.37367404934E-02 -0.12356893349E-01  0.47988251946E-03  0.12918449210E-01  0.00000000000E+00 0.  1.
     999901    1    3    3    0    0 -0.83203777627E-01 -0.89507358945E-01  0.36966257655E-01  0.88921366393E+00  0.88000000000E+00 0.  1.
        -11    1    4    4    0    0  0.32805716762E-01  0.55811030846E-01  0.29179418895E-02  0.64806340140E-01  0.51100000000E-03 0.  1.
         11    1    4    4    0    0  0.46661320371E-01  0.46053221447E-01 -0.40364082064E-01  0.76991546720E-01  0.51100000000E-03 0. -1.
</event>
<event>
 8    1  0.2929965E+004  0.1043930E+01  0.7957747E-01            NaN
         13   -1    0    0    0    0  0.00000000000E+00  0.00000000000E+00  0.74505805969E-08  0.10566000000E+00  0.10566000000E+00 0. -1.
     999900   -1    0    0    0    0 -0.00000000000E+00 -0.00000000000E+00 -0.74505805969E-08  0.93827000000E+00  0.93827000000E+00 0.  1.
     999902    2    1    2    0    0  0.64794422063E-02 -0.11394816195E-01  0.45248807387E-02  0.10300627886E+01  0.10299694407E+01 0.  0.
     999903    2    3    3    0    0 -0.54288293156E-01 -0.83294313639E-01 -0.88643783706E-01  0.14015118878E+00  0.43582953865E-01 0.  0.
         14    1    1    2    0    0 -0.64794422063E-02  0.11394816195E-01 -0.45248807387E-02  0.13867211440E-01  0.00000000000E+00 0.  1.
     999901    1    3    3    0    0  0.60767735362E-01  0.71899497444E-01  0.93168664445E-01  0.88991159978E+00  0.88000000000E+00 0.  1.
        -11    1    4    4    0    0 -0.11989371631E-01 -0.27165256664E-02 -0.28564859745E-01  0.31102039757E-01  0.51100000000E-03 0.  1.
         11    1    4    4    0    0 -0.42298921525E-01 -0.80577787972E-01 -0.60078923962E-01  0.10904914902E+00  0.51100000000E-03 0. -1.
</event>
<event>
 8    1  0.2929965E+004  0.1043930E+01  0.7957747E-01            NaN
         13   -1    0    0    0    0  0.00000000000E+00  0.00000000000E+00  0.74505805969E-08  0.10566000000E+00  0.10566000000E+00 0.  1.
     999900   -1    0    0    0    0 -0.00000000000E+00 -0.00000000000E+00 -0.74505805969E-08  0.93827000000E+00  0.93827000000E+00 0. -1.
     999902    2    1    2    0    0  0.40380653051E-02 -0.11539277625E-01  0.66302640433E-02  0.10300224013E+01  0.10299285053E+01 0.  0.
     999903    2    3    3    0    0  0.13146855071E+00  0.19712621155E-01  0.23273102283E-02  0.14028439203E+00  0.44740663997E-01 0.  0.
         14    1    1    2    0    0 -0.40380653051E-02  0.11539277625E-01 -0.66302640433E-02  0.13907598671E-01  0.00000000000E+00 0. -1.
     999901    1    3    3    0    0 -0.12743048540E+00 -0.31251898780E-01  0.43029538150E-02  0.88973800930E+00  0.88000000000E+00 0.  1.
        -11    1    4    4    0    0  0.54604351449E-01  0.21327616270E-01  0.18977873871E-01  0.61619179081E-01  0.51100000000E-03 0. -1.
         11    1    4    4    0    0  0.76864199259E-01 -0.16149951156E-02 -0.16650563643E-01  0.78665212945E-01  0.51100000000E-03 0.  1.
</event>
<event>
 8    1  0.2929965E+004  0.1043930E+01  0.7957747E-01            NaN
         13   -1    0    0    0    0  0.00000000000E+00  0.00000000000E+00  0.74505805969E-08  0.10566000000E+00  0.10566000000E+00 0.  1.
     999900   -1    0    0    0    0 -0.00000000000E+00 -0.00000000000E+00 -0.74505805969E-08  0.93827000000E+00  0.93827000000E+00 0. -1.
     999902    2    1    2    0    0  0.69055808993E-02 -0.13411358484E-01  0.25489452311E-02  0.10286313495E+01  0.10285175762E+01 0.  0.
     999903    2    3    3    0    0 -0.21453638033E-01 -0.10603834461E+00 -0.70350314057E-01  0.14031929522E+00  0.55099444747E-01 0.  0.
         14    1    1    2    0    0 -0.69055808993E-02  0.13411358484E-01 -0.25489452311E-02  0.15298650454E-01  0.00000000000E+00 0. -1.
     999901    1    3    3    0    0  0.28359218932E-01  0.92626986122E-01  0.72899259288E-01  0.88831205433E+00  0.88000000000E+00 0.  1.
        -11    1    4    4    0    0 -0.21426769900E-01 -0.88107528474E-01 -0.28927660013E-01  0.95179376321E-01  0.51100000000E-03 0.  1.
         11    1    4    4    0    0 -0.26868133582E-04 -0.17930816132E-01 -0.41422654044E-01  0.45139918898E-01  0.51100000000E-03 0. -1.
</event>
<event>
 8    1  0.2929965E+004  0.1043930E+01  0.7957747E-01            NaN
         13   -1    0    0    0    0  0.00000000000E+00  0.00000000000E+00  0.74505805969E-08  0.10566000000E+00  0.10566000000E+00 0. -1.
     999900   -1    0    0    0    0 -0.00000000000E+00 -0.00000000000E+00 -0.74505805969E-08  0.93827000000E+00  0.93827000000E+00 0.  1.
     999902    2    1    2    0    0 -0.22942715069E-02  0.13439523485E-01 -0.41301396773E-02  0.10296842102E+01  0.10295856595E+01 0.  0.
     999903    2    3    3    0    0 -0.33449142034E-01 -0.10314600249E+00  0.72252370513E-01  0.13817027386E+00  0.45963861920E-01 0.  0.
         14    1    1    2    0    0  0.22942715069E-02 -0.13439523485E-01  0.41301396773E-02  0.14245789799E-01  0.00000000000E+00 0. -1.
     999901    1    3    3    0    0  0.31154870527E-01  0.11658552597E+00 -0.76382510191E-01  0.89151393634E+00  0.88000000000E+00 0. -1.
        -11    1    4    4    0    0 -0.17136947393E-01 -0.39169962649E-01  0.35812134097E-02  0.42907425352E-01  0.51100000000E-03 0.  1.
         11    1    4    4    0    0 -0.16312194641E-01 -0.63976039837E-01  0.68671157104E-01  0.95262848510E-01  0.51100000000E-03 0. -1.
</event>
<event>
 8    1  0.2929965E+004  0.1043930E+01  0.7957747E-01            NaN
         13   -1    0    0    0    0  0.00000000000E+00  0.00000000000E+00  0.74505805969E-08  0.10566000000E+00  0.10566000000E+00 0. -1.
     999900   -1    0    0    0    0 -0.00000000000E+00 -0.00000000000E+00 -0.74505805969E-08  0.93827000000E+00  0.93827000000E+00 0. -1.
     999902    2    1    2    0    0 -0.54014800365E-02 -0.62788410787E-02 -0.12568049829E-01  0.10288782324E+01  0.10287681281E+01 0.  0.
     999903    2    3    3    0    0 -0.12830656643E+00 -0.11076609670E-01 -0.31549556710E-01  0.14012124847E+00  0.45313612449E-01 0.  0.
         14    1    1    2    0    0  0.54014800365E-02  0.62788410787E-02  0.12568049829E-01  0.15051767616E-01  0.00000000000E+00 0. -1.
     999901    1    3    3    0    0  0.12290508640E+00  0.47977685911E-02  0.18981506881E-01  0.88875698391E+00  0.88000000000E+00 0. -1.
        -11    1    4    4    0    0 -0.51095193249E-01 -0.15325089030E-01 -0.33090670282E-01  0.62776036094E-01  0.51100000000E-03 0. -1.
         11    1    4    4    0    0 -0.77211373185E-01  0.42484793598E-02  0.15411135720E-02  0.77345212380E-01  0.51100000000E-03 0.  1.
</event>
<event>
 8    1  0.2929965E+004  0.1043930E+01  0.7957747E-01            NaN
         13   -1    0    0    0    0  0.00000000000E+00  0.00000000000E+00  0.74505805969E-08  0.10566000000E+00  0.10566000000E+00 0.  1.
     999900   -1    0    0    0    0 -0.00000000000E+00 -0.00000000000E+00 -0.74505805969E-08  0.93827000000E+00  0.93827000000E+00 0. -1.
     999902    2    1    2    0    0  0.71220927912E-02  0.52114978821E-02 -0.11664686456E-01  0.10293030104E+01  0.10291990761E+01 0.  0.
     999903    2    3    3    0    0 -0.69868807917E-01 -0.62019366336E-01 -0.93685658264E-01  0.13959798749E+00  0.44525761385E-01 0.  0.
         14    1    1    2    0    0 -0.71220927912E-02 -0.52114978821E-02  0.11664686456E-01  0.14626989643E-01  0.00000000000E+00 0.  1.
     999901    1    3    3    0    0  0.76990900709E-01  0.67230864218E-01  0.82020971808E-01  0.88970502287E+00  0.88000000000E+00 0.  1.
        -11    1    4    4    0    0 -0.32647612064E-02 -0.24354414213E-02  0.49945375564E-02  0.64650264542E-02  0.51100000000E-03 0. -1.
         11    1    4    4    0    0 -0.66604046711E-01 -0.59583924915E-01 -0.98680195820E-01  0.13313296104E+00  0.51100000000E-03 0.  1.
</event>
<event>
 8    1  0.2929965E+004  0.1043930E+01  0.7957747E-01            NaN
         13   -1    0    0    0    0  0.00000000000E+00  0.00000000000E+00  0.74505805969E-08  0.10566000000E+00  0.10566000000E+00 0. -1.
     999900   -1    0    0    0    0 -0.00000000000E+00 -0.00000000000E+00 -0.74505805969E-08  0.93827000000E+00  0.93827000000E+00 0.  1.
     999902    2    1    2    0    0 -0.49033645947E-02  0.80081586902E-02  0.81412112684E-02  0.10315020915E+01  0.10314272208E+01 0.  0.
     999903    2    3    3    0    0 -0.34927414483E-01 -0.71252918431E-02  0.13034567673E+00  0.14242144479E+00  0.44979755734E-01 0.  0.
         14    1    1    2    0    0  0.49033645947E-02 -0.80081586902E-02 -0.81412112684E-02  0.12427908548E-01  0.00000000000E+00 0.  1.
     999901    1    3    3    0    0  0.30024049888E-01  0.15133450533E-01 -0.12220446546E+00  0.88908064667E+00  0.88000000000E+00 0.  1.
        -11    1    4    4    0    0 -0.52831961025E-02 -0.22009573698E-01  0.37243618465E-01  0.43585338508E-01  0.51100000000E-03 0. -1.
         11    1    4    4    0    0 -0.29644218381E-01  0.14884281855E-01  0.93102058267E-01  0.98836106278E-01  0.51100000000E-03 0.  1.
</event>
<event>
 8    1  0.2929965E+004  0.1043930E+01  0.7957747E-01            NaN
         13   -1    0    0    0    0  0.00000000000E+00  0.00000000000E+00  0.74505805969E-08  0.10566000000E+00  0.10566000000E+00 0. -1.
     999900   -1    0    0    0    0 -0.00000000000E+00 -0.00000000000E+00 -0.74505805969E-08  0.93827000000E+00  0.93827000000E+00 0.  1.
     999902    2    1    2    0    0 -0.86100829444E-02 -0.31338413235E-03 -0.10608234361E-01  0.10302637505E+01  0.10301731065E+01 0.  0.
     999903    2    3    3    0    0  0.72234091336E-01 -0.10644130659E+00  0.29324668044E-01  0.13931282421E+00  0.44728191708E-01 0.  0.
         14    1    1    2    0    0  0.86100829444E-02  0.31338413235E-03  0.10608234361E-01  0.13666249455E-01  0.00000000000E+00 0. -1.
     999901    1    3    3    0    0 -0.80844174281E-01  0.10612792246E+00 -0.39932902405E-01  0.89095092633E+00  0.88000000000E+00 0.  1.
        -11    1    4    4    0    0  0.46080787028E-01 -0.97529849766E-01  0.17607664199E-01  0.10929685031E+00  0.51100000000E-03 0. -1.
         11    1    4    4    0    0  0.26153304308E-01 -0.89114568261E-02  0.11717003845E-01  0.30015973899E-01  0.51100000000E-03 0.  1.
</event>
<event>
 8    1  0.2929965E+004  0.1043930E+01  0.7957747E-01            NaN
         13   -1    0    0    0    0  0.00000000000E+00  0.00000000000E+00  0.74505805969E-08  0.10566000000E+00  0.10566000000E+00 0. -1.
     999900   -1    0    0    0    0 -0.00000000000E+00 -0.00000000000E+00 -0.74505805969E-08  0.93827000000E+00  0.93827000000E+00 0. -1.
     999902    2    1    2    0    0  0.12749705350E-01  0.18040842056E-02  0.53225424082E-02  0.10299966169E+01  0.10299023700E+01 0.  0.
     999903    2    3    3    0    0  0.16565034258E-01  0.11797944021E+00 -0.56646080743E-01  0.14019249222E+00  0.47451108931E-01 0.  0.
         14    1    1    2    0    0 -0.12749705350E-01 -0.18040842056E-02 -0.53225424082E-02  0.13933383079E-01  0.00000000000E+00 0. -1.
     999901    1    3    3    0    0 -0.38153289076E-02 -0.11617535601E+00  0.61968623151E-01  0.88980412470E+00  0.88000000000E+00 0.  1.
        -11    1    4    4    0    0 -0.12226193592E-01  0.41756729660E-01 -0.51826156680E-02  0.43820370922E-01  0.51100000000E-03 0. -1.
         11    1    4    4    0    0  0.28791227849E-01  0.76222710553E-01 -0.51463465075E-01  0.96372121299E-01  0.51100000000E-03 0.  1.
</event>
<event>
 8    1  0.2929965E+004  0.1043930E+01  0.7957747E-01            NaN
         13   -1    0    0    0    0  0.00000000000E+00  0.00000000000E+00  0.74505805969E-08  0.10566000000E+00  0.10566000000E+00 0.  1.
     999900   -1    0    0    0    0 -0.00000000000E+00 -0.00000000000E+00 -0.74505805969E-08  0.93827000000E+00  0.93827000000E+00 0. -1.
     999902    2    1    2    0    0  0.13256434179E-02  0.14702986465E-02 -0.17161943274E-01  0.10266542538E+01  0.10265088921E+01 0.  0.
     999903    2    3    3    0    0  0.18948376816E-01  0.10126043178E+00  0.76261816977E-01  0.13592610766E+00  0.45247386519E-01 0.  0.
         14    1    1    2    0    0 -0.13256434179E-02 -0.14702986465E-02  0.17161943274E-01  0.17275746164E-01  0.00000000000E+00 0.  1.
     999901    1    3    3    0    0 -0.17622733398E-01 -0.99790133138E-01 -0.93423760251E-01  0.89072814617E+00  0.88000000000E+00 0. -1.
        -11    1    4    4    0    0  0.12679864041E-01  0.74893022776E-01  0.77854934062E-01  0.10877221930E+00  0.51100000000E-03 0. -1.
         11    1    4    4    0    0  0.62685127753E-02  0.26367409008E-01 -0.15931170851E-02  0.27153888363E-01  0.51100000000E-03 0.  1.
</event>
<event>
 8    1  0.2929965E+004  0.1043930E+01  0.7957747E-01            NaN
         13   -1    0    0    0    0  0.00000000000E+00  0.00000000000E+00  0.74505805969E-08  0.10566000000E+00  0.10566000000E+00 0.  1.
     999900   -1    0    0    0    0 -0.00000000000E+00 -0.00000000000E+00 -0.74505805969E-08  0.93827000000E+00  0.93827000000E+00 0. -1.
     999902    2    1    2    0    0  0.79319733724E-02  0.80526024794E-02 -0.15689985939E-01  0.10245925682E+01  0.10244100715E+01 0.  0.
     999903    2    3    3    0    0  0.69882795420E-01  0.10784593698E+00 -0.97046017913E-02  0.13676801418E+00  0.45792566959E-01 0.  0.
         14    1    1    2    0    0 -0.79319733724E-02 -0.80526024794E-02  0.15689985939E-01  0.19337431759E-01  0.00000000000E+00 0.  1.
     999901    1    3    3    0    0 -0.61950822047E-01 -0.99793334502E-01 -0.59853841478E-02  0.88782455406E+00  0.88000000000E+00 0.  1.
        -11    1    4    4    0    0  0.70471092223E-01  0.10458148012E+00  0.41053480994E-03  0.12611062796E+00  0.51100000000E-03 0.  1.
         11    1    4    4    0    0 -0.58829680362E-03  0.32644568575E-02 -0.10115136601E-01  0.10657386226E-01  0.51100000000E-03 0. -1.
</event>
<event>
 8    1  0.2929965E+004  0.1043930E+01  0.7957747E-01            NaN
         13   -1    0    0    0    0  0.00000000000E+00  0.00000000000E+00  0.74505805969E-08  0.10566000000E+00  0.10566000000E+00 0.  1.
     999900   -1    0    0    0    0 -0.00000000000E+00 -0.00000000000E+00 -0.74505805969E-08  0.93827000000E+00  0.93827000000E+00 0. -1.
     999902    2    1    2    0    0  0.27152074300E-02  0.81977370995E-02 -0.11952484375E-01  0.10291842505E+01  0.10290786094E+01 0.  0.
     999903    2    3    3    0    0 -0.11650902367E+00 -0.59671329517E-01 -0.26128495645E-02  0.13850593807E+00  0.45189022298E-01 0.  0.
         14    1    1    2    0    0 -0.27152074300E-02 -0.81977370995E-02  0.11952484375E-01  0.14745749479E-01  0.00000000000E+00 0.  1.
     999901    1    3    3    0    0  0.11922423110E+00  0.67869066616E-01 -0.93396348110E-02  0.89067831245E+00  0.88000000000E+00 0.  1.
        -11    1    4    4    0    0 -0.89779260106E-01 -0.45165173675E-01 -0.21401113779E-01  0.10275445124E+00  0.51100000000E-03 0. -1.
         11    1    4    4    0    0 -0.26729763564E-01 -0.14506155842E-01  0.18788264214E-01  0.35751486832E-01  0.51100000000E-03 0.  1.
</event>
<event>
 8    1  0.2929965E+004  0.1043930E+01  0.7957747E-01            NaN
         13   -1    0    0    0    0  0.00000000000E+00  0.00000000000E+00  0.74505805969E-08  0.10566000000E+00  0.10566000000E+00 0.  1.
     999900   -1    0    0    0    0 -0.00000000000E+00 -0.00000000000E+00 -0.74505805969E-08  0.93827000000E+00  0.93827000000E+00 0.  1.
     999902    2    1    2    0    0 -0.28371757821E-02  0.16003611829E-01 -0.20549638185E-02  0.10275474473E+01  0.10274168425E+01 0.  0.
     999903    2    3    3    0    0 -0.43407795732E-01 -0.71499977908E-01 -0.99330723151E-01  0.13694909403E+00  0.43496876017E-01 0.  0.
         14    1    1    2    0    0  0.28371757821E-02 -0.16003611829E-01  0.20549638185E-02  0.16382552740E-01  0.00000000000E+00 0. -1.
     999901    1    3    3    0    0  0.40570619950E-01  0.87503589736E-01  0.97275759332E-01  0.89059835323E+00  0.88000000000E+00 0. -1.
        -11    1    4    4    0    0 -0.16195656595E-01 -0.31614507111E-02 -0.37063790520E-01  0.40574373092E-01  0.51100000000E-03 0. -1.
         11    1    4    4    0    0 -0.27212139137E-01 -0.68338527197E-01 -0.62266932631E-01  0.96374720939E-01  0.51100000000E-03 0.  1.
</event>
<event>
 8    1  0.2929965E+004  0.1043930E+01  0.7957747E-01            NaN
         13   -1    0    0    0    0  0.00000000000E+00  0.00000000000E+00  0.74505805969E-08  0.10566000000E+00  0.10566000000E+00 0. -1.
     999900   -1    0    0    0    0 -0.00000000000E+00 -0.00000000000E+00 -0.74505805969E-08  0.93827000000E+00  0.93827000000E+00 0. -1.
     999902    2    1    2    0    0  0.37440751528E-02  0.40505465937E-02  0.12022790456E-01  0.10307022823E+01  0.10306173985E+01 0.  0.
     999903    2    3    3    0    0 -0.85794565729E-01 -0.61292537186E-01  0.82101808507E-01  0.14098437438E+00  0.44926653974E-01 0.  0.
         14    1    1    2    0    0 -0.37440751528E-02 -0.40505465937E-02 -0.12022790456E-01  0.13227717748E-01  0.00000000000E+00 0.  1.
     999901    1    3    3    0    0  0.89538640882E-01  0.65343083780E-01 -0.70079018050E-01  0.88971790787E+00  0.88000000000E+00 0. -1.
        -11    1    4    4    0    0 -0.40257386690E-01 -0.43038305109E-01  0.67897787136E-01  0.89907305091E-01  0.51100000000E-03 0.  1.
         11    1    4    4    0    0 -0.45537179039E-01 -0.18254232077E-01  0.14204021371E-01  0.51077069294E-01  0.51100000000E-03 0. -1.
</event>
<event>
 8    1  0.2929965E+004  0.1043930E+01  0.7957747E-01            NaN
         13   -1    0    0    0    0  0.00000000000E+00  0.00000000000E+00  0.74505805969E-08  0.10566000000E+00  0.10566000000E+00 0.  1.
     999900   -1    0    0    0    0 -0.00000000000E+00 -0.00000000000E+00 -0.74505805969E-08  0.93827000000E+00  0.93827000000E+00 0.  1.
     999902    2    1    2    0    0  0.44261126235E-02 -0.10543191650E-01 -0.89185803068E-02  0.10294286057E+01  0.10293264612E+01 0.  0.
     999903    2    3    3    0    0 -0.29097316378E-01  0.10891954532E+00  0.63868559877E-01  0.13774865546E+00  0.46748026330E-01 0.  0.
         14    1    1    2    0    0 -0.44261126235E-02  0.10543191650E-01  0.89185803068E-02  0.14501394340E-01  0.00000000000E+00 0.  1.
     999901    1    3    3    0    0  0.33523429001E-01 -0.11946273697E+00 -0.72787140184E-01  0.89167995020E+00  0.88000000000E+00 0.  1.
        -11    1    4    4    0    0 -0.38385740715E-01  0.10340979121E+00  0.62683683308E-01  0.12687220059E+00  0.51100000000E-03 0.  1.
         11    1    4    4    0    0  0.92884243368E-02  0.55097541179E-02  0.11848765692E-02  0.10876454872E-01  0.51100000000E-03 0. -1.
</event>
<event>
 8    1  0.2929965E+004  0.1043930E+01  0.7957747E-01            NaN
         13   -1    0    0    0    0  0.00000000000E+00  0.00000000000E+00  0.74505805969E-08  0.10566000000E+00  0.10566000000E+00 0. -1.
     999900   -1    0    0    0    0 -0.00000000000E+00 -0.00000000000E+00 -0.74505805969E-08  0.93827000000E+00  0.93827000000E+00 0.  1.
     999902    2    1    2    0    0 -0.70216597140E-02 -0.16433776092E-02 -0.11309992145E-01  0.10305165621E+01  0.10304292622E+01 0.  0.
     999903    2    3    3    0    0  0.65972288557E-01  0.55151636152E-01  0.98599459907E-01  0.13886983957E+00  0.46571804996E-01 0.  0.
         14    1    1    2    0    0  0.70216597140E-02  0.16433776092E-02  0.11309992145E-01  0.13413437942E-01  0.00000000000E+00 0. -1.
     999901    1    3    3    0    0 -0.72993948271E-01 -0.56795013761E-01 -0.10990945205E+00  0.89164672249E+00  0.88000000000E+00 0.  1.
        -11    1    4    4    0    0  0.18875166520E-01  0.30662255560E-01  0.69638315714E-01  0.78397716572E-01  0.51100000000E-03 0.  1.
         11    1    4    4    0    0  0.47097122037E-01  0.24489380592E-01  0.28961144193E-01  0.60472122998E-01  0.51100000000E-03 0. -1.
</event>
<event>
 8    1  0.2929965E+004  0.1043930E+01  0.7957747E-01            NaN
         13   -1    0    0    0    0  0.00000000000E+00  0.00000000000E+00  0.74505805969E-08  0.10566000000E+00  0.10566000000E+00 0.  1.
     999900   -1    0    0    0    0 -0.00000000000E+00 -0.00000000000E+00 -0.74505805969E-08  0.93827000000E+00  0.93827000000E+00 0.  1.
     999902    2    1    2    0    0  0.63832443798E-02  0.77176594499E-03  0.75077002422E-02  0.10340453152E+01  0.10339980691E+01 0.  0.
     999903    2    3    3    0    0  0.59015368172E-01 -0.12291971142E+00 -0.65977496240E-02  0.14372588611E+00  0.44961437950E-01 0.  0.
         14    1    1    2    0    0 -0.63832443798E-02 -0.77176594499E-03 -0.75077002422E-02  0.98846848414E-02  0.00000000000E+00 0. -1.
     999901    1    3    3    0    0 -0.52632123792E-01  0.12369147736E+00  0.14105449866E-01  0.89031942905E+00  0.88000000000E+00 0. -1.
        -11    1    4    4    0    0  0.57476911948E-01 -0.71181447779E-01  0.39431743787E-03  0.91492133663E-01  0.51100000000E-03 0. -1.
         11    1    4    4    0    0  0.15384562236E-02 -0.51738263638E-01 -0.69920670618E-02  0.52233752446E-01  0.51100000000E-03 0.  1.
</event>
<event>
 8    1  0.2929965E+004  0.1043930E+01  0.7957747E-01            NaN
         13   -1    0    0    0    0  0.00000000000E+00  0.00000000000E+00  0.74505805969E-08  0.10566000000E+00  0.10566000000E+00 0.  1.
     999900   -1    0    0    0    0 -0.00000000000E+00 -0.00000000000E+00 -0.74505805969E-08  0.93827000000E+00  0.93827000000E+00 0.  1.
     999902    2    1    2    0    0 -0.11366130548E-01  0.39920334104E-02  0.60300433940E-02  0.10304583009E+01  0.10303702360E+01 0.  0.
     999903    2    3    3    0    0  0.11135927324E+00  0.57523866157E-01  0.42078526105E-01  0.13960103117E+00  0.44810296033E-01 0.  0.
         14    1    1    2    0    0  0.11366130548E-01 -0.39920334104E-02 -0.60300433940E-02  0.13471699140E-01  0.00000000000E+00 0.  1.
     999901    1    3    3    0    0 -0.12272540379E+00 -0.53531832746E-01 -0.36048482711E-01  0.89085726969E+00  0.88000000000E+00 0. -1.
        -11    1    4    4    0    0  0.34674733509E-01  0.42211881644E-02  0.28789948690E-01  0.45268950065E-01  0.51100000000E-03 0.  1.
         11    1    4    4    0    0  0.76684539732E-01  0.53302677992E-01  0.13288577415E-01  0.94332081106E-01  0.51100000000E-03 0. -1.
</event>
<event>
 8    1  0.2929965E+004  0.1043930E+01  0.7957747E-01            NaN
         13   -1    0    0    0    0  0.00000000000E+00  0.00000000000E+00  0.74505805969E-08  0.10566000000E+00  0.10566000000E+00 0. -1.
     999900   -1    0    0    0    0 -0.00000000000E+00 -0.00000000000E+00 -0.74505805969E-08  0.93827000000E+00  0.93827000000E+00 0.  1.
     999902    2    1    2    0    0  0.40476711602E-02  0.19009918883E-02 -0.12666882992E-01  0.10304969312E+01  0.10304093740E+01 0.  0.
     999903    2    3    3    0    0  0.13574207081E-01 -0.68842562735E-01 -0.11461497488E+00  0.14174003598E+00  0.45056495554E-01 0.  0.
         14    1    1    2    0    0 -0.40476711602E-02 -0.19009918883E-02  0.12666882992E-01  0.13433068775E-01  0.00000000000E+00 0. -1.
     999901    1    3    3    0    0 -0.95265359209E-02  0.70743554623E-01  0.10194809189E+00  0.88875689525E+00  0.88000000000E+00 0. -1.
        -11    1    4    4    0    0  0.21820627171E-01 -0.64707530412E-01 -0.76610527245E-01  0.10262864253E+00  0.51100000000E-03 0. -1.
         11    1    4    4    0    0 -0.82464200904E-02 -0.41350323232E-02 -0.38004447632E-01  0.39111393448E-01  0.51100000000E-03 0.  1.
</event>
<event>
 8    1  0.2929965E+004  0.1043930E+01  0.7957747E-01            NaN
         13   -1    0    0    0    0  0.00000000000E+00  0.00000000000E+00  0.74505805969E-08  0.10566000000E+00  0.10566000000E+00 0.  1.
     999900   -1    0    0    0    0 -0.00000000000E+00 -0.00000000000E+00 -0.74505805969E-08  0.93827000000E+00  0.93827000000E+00 0.  1.
     999902    2    1    2    0    0 -0.12822532196E-01 -0.90613273005E-05 -0.54648915227E-02  0.10299914759E+01  0.10298971590E+01 0.  0.
     999903    2    3    3    0    0 -0.78186955458E-01 -0.56568501391E-01 -0.93339353583E-01  0.14140079447E+00  0.44370647908E-01 0.  0.
         14    1    1    2    0    0  0.12822532196E-01  0.90613273005E-05  0.54648915227E-02  0.13938524075E-01  0.00000000000E+00 0.  1.
     999901    1    3    3    0    0  0.65364423262E-01  0.56559440064E-01  0.87874462060E-01  0.88859068146E+00  0.88000000000E+00 0. -1.
        -11    1    4    4    0    0 -0.11517968707E-01 -0.31093276909E-01 -0.41840789842E-01  0.53388840478E-01  0.51100000000E-03 0.  1.
         11    1    4    4    0    0 -0.66668986751E-01 -0.25475224483E-01 -0.51498563741E-01  0.88011953991E-01  0.51100000000E-03 0. -1.
</event>
<event>
 8    1  0.2929965E+004  0.1043930E+01  0.7957747E-01            NaN
         13   -1    0    0    0    0  0.00000000000E+00  0.00000000000E+00  0.74505805969E-08  0.10566000000E+00  0.10566000000E+00 0.  1.
     999900   -1    0    0    0    0 -0.00000000000E+00 -0.00000000000E+00 -0.74505805969E-08  0.93827000000E+00  0.93827000000E+00 0.  1.
     999902    2    1    2    0    0  0.10601074370E-01  0.45237327802E-02  0.23931984386E-02  0.10321582399E+01  0.10320911093E+01 0.  0.
     999903    2    3    3    0    0  0.13390673851E+00 -0.22532656380E-01 -0.45668881754E-02  0.14312237013E+00  0.44993567805E-01 0.  0.
         14    1    1    2    0    0 -0.10601074370E-01 -0.45237327802E-02 -0.23931984386E-02  0.11771760056E-01  0.00000000000E+00 0. -1.
     999901    1    3    3    0    0 -0.12330566414E+00  0.27056389160E-01  0.69600866140E-02  0.88903586981E+00  0.88000000000E+00 0. -1.
        -11    1    4    4    0    0  0.35615243762E-01 -0.24696700768E-01 -0.10600805496E-01  0.44620744225E-01  0.51100000000E-03 0.  1.
         11    1    4    4    0    0  0.98291494746E-01  0.21640443880E-02  0.60339173203E-02  0.98501625909E-01  0.51100000000E-03 0. -1.
</event>
<event>
 8    1  0.2929965E+004  0.1043930E+01  0.7957747E-01            NaN
         13   -1    0    0    0    0  0.00000000000E+00  0.00000000000E+00  0.74505805969E-08  0.10566000000E+00  0.10566000000E+00 0.  1.
     999900   -1    0    0    0    0 -0.00000000000E+00 -0.00000000000E+00 -0.74505805969E-08  0.93827000000E+00  0.93827000000E+00 0.  1.
     999902    2    1    2    0    0 -0.12696893180E-01 -0.62418682067E-02 -0.61886693734E-02  0.10284874729E+01  0.10283715332E+01 0.  0.
     999903    2    3    3    0    0 -0.14002167567E-01  0.12953905440E+00 -0.40977256395E-02  0.13807041626E+00  0.45499683266E-01 0.  0.
         14    1    1    2    0    0  0.12696893180E-01  0.62418682067E-02  0.61886693734E-02  0.15442527117E-01  0.00000000000E+00 0.  1.
     999901    1    3    3    0    0  0.13052743870E-02 -0.13578092261E+00 -0.20909437339E-02  0.89041705663E+00  0.88000000000E+00 0. -1.
        -11    1    4    4    0    0  0.10531887332E-01  0.34272520776E-01  0.13151050971E-01  0.38193423436E-01  0.51100000000E-03 0.  1.
         11    1    4    4    0    0 -0.24534054899E-01  0.95266533628E-01 -0.17248776611E-01  0.99876992820E-01  0.51100000000E-03 0. -1.
</event>
<event>
 8    1  0.2929965E+004  0.1043930E+01  0.7957747E-01            NaN
         13   -1    0    0    0    0  0.00000000000E+00  0.00000000000E+00  0.74505805969E-08  0.10566000000E+00  0.10566000000E+00 0.  1.
     999900   -1    0    0    0    0 -0.00000000000E+00 -0.00000000000E+00 -0.74505805969E-08  0.93827000000E+00  0.93827000000E+00 0. -1.
     999902    2    1    2    0    0  0.38299246108E-02  0.14249082892E-03  0.14134300858E-01  0.10292853052E+01  0.10291811174E+01 0.  0.
     999903    2    3    3    0    0  0.25921695218E-01 -0.57597556581E-01  0.11780762535E+00  0.14104540648E+00  0.45008413569E-01 0.  0.
         14    1    1    2    0    0 -0.38299246108E-02 -0.14249082892E-03 -0.14134300858E-01  0.14644694838E-01  0.00000000000E+00 0.  1.
     999901    1    3    3    0    0 -0.22091770607E-01  0.57740047410E-01 -0.10367332449E+00  0.88823989868E+00  0.88000000000E+00 0. -1.
        -11    1    4    4    0    0  0.13103633482E-01 -0.29837169537E-01  0.10104574871E+00  0.10617187174E+00  0.51100000000E-03 0. -1.
         11    1    4    4    0    0  0.12818061736E-01 -0.27760387044E-01  0.16761876636E-01  0.34873534735E-01  0.51100000000E-03 0.  1.
</event>
<event>
 8    1  0.2929965E+004  0.1043930E+01  0.7957747E-01            NaN
         13   -1    0    0    0    0  0.00000000000E+00  0.00000000000E+00  0.74505805969E-08  0.10566000000E+00  0.10566000000E+00 0.  1.
     999900   -1    0    0    0    0 -0.00000000000E+00 -0.00000000000E+00 -0.74505805969E-08  0.93827000000E+00  0.93827000000E+00 0. -1.
     999902    2    1    2    0    0 -0.16259090210E-02 -0.50511065632E-02  0.13154552191E-01  0.10297455190E+01  0.10296478206E+01 0.  0.
     999903    2    3    3    0    0 -0.45840867731E-01  0.12208090034E+00  0.19775490011E-01  0.13948637327E+00  0.45389943156E-01 0.  0.
         14    1    1    2    0    0  0.16259090210E-02  0.50511065632E-02 -0.13154552191E-01  0.14184480992E-01  0.00000000000E+00 0. -1.
     999901    1    3    3    0    0  0.44214958710E-01 -0.12713200691E+00 -0.66209378200E-02  0.89025914574E+00  0.88000000000E+00 0. -1.
        -11    1    4    4    0    0  0.90100335275E-02  0.24703753263E-01  0.45176075479E-02  0.26685689581E-01  0.51100000000E-03 0. -1.
         11    1    4    4    0    0 -0.54850901259E-01  0.97377147081E-01  0.15257882463E-01  0.11280068369E+00  0.51100000000E-03 0.  1.
</event>
<event>
 8    1  0.2929965E+004  0.1043930E+01  0.7957747E-01            NaN
         13   -1    0    0    0    0  0.00000000000E+00  0.00000000000E+00  0.74505805969E-08  0.10566000000E+00  0.10566000000E+00 0. -1.
     999900   -1    0    0    0    0 -0.00000000000E+00 -0.00000000000E+00 -0.74505805969E-08  0.93827000000E+00  0.93827000000E+00 0. -1.
     999902    2    1    2    0    0 -0.95504723180E-02  0.17112740121E-02 -0.93867265305E-02  0.10304299772E+01  0.10303415392E+01 0.  0.
     999903    2    3    3    0    0 -0.10259257720E+00  0.76432760433E-01  0.39061073190E-01  0.14105529627E+00  0.44761874431E-01 0.  0.
         14    1    1    2    0    0  0.95504723180E-02 -0.17112740121E-02  0.93867265305E-02  0.13500022785E-01  0.00000000000E+00 0. -1.
     999901    1    3    3    0    0  0.93042104880E-01 -0.74721486421E-01 -0.48447799720E-01  0.88937468095E+00  0.88000000000E+00 0. -1.
        -11    1    4    4    0    0 -0.32748858085E-01  0.34294066528E-02  0.19094402234E-01  0.38067123000E-01  0.51100000000E-03 0.  1.
         11    1    4    4    0    0 -0.69843719114E-01  0.73003353780E-01  0.19966670956E-01  0.10298817327E+00  0.51100000000E-03 0. -1.
</event>
<event>
 8    1  0.2929965E+004  0.1043930E+01  0.7957747E-01            NaN
         13   -1    0    0    0    0  0.00000000000E+00  0.00000000000E+00  0.74505805969E-08  0.10566000000E+00  0.10566000000E+00 0.  1.
     999900   -1    0    0    0    0 -0.00000000000E+00 -0.00000000000E+00 -0.74505805969E-08  0.93827000000E+00  0.93827000000E+00 0. -1.
     999902    2    1    2    0    0  0.86181749646E-03 -0.31730097072E-02  0.16828690819E-01  0.10267831182E+01  0.10266399351E+01 0.  0.
     999903    2    3    3    0    0  0.10436869038E-01 -0.11540923856E+00 -0.55612254752E-01  0.13665035101E+00  0.46393695380E-01 0.  0.
         14    1    1    2    0    0 -0.86181749646E-03  0.31730097072E-02 -0.16828690819E-01  0.17146881777E-01  0.00000000000E+00 0. -1.
     999901    1    3    3    0    0 -0.95750515414E-02  0.11223622885E+00  0.72440945571E-01  0.89013276722E+00  0.88000000000E+00 0.  1.
        -11    1    4    4    0    0  0.28955517188E-02 -0.43969143492E-01 -0.46785271664E-01  0.64271242129E-01  0.51100000000E-03 0.  1.
         11    1    4    4    0    0  0.75413173191E-02 -0.71440095068E-01 -0.88269830879E-02  0.72379108876E-01  0.51100000000E-03 0. -1.
</event>
<event>
 8    1  0.2929965E+004  0.1043930E+01  0.7957747E-01            NaN
         13   -1    0    0    0    0  0.00000000000E+00  0.00000000000E+00  0.74505805969E-08  0.10566000000E+00  0.10566000000E+00 0.  1.
     999900   -1    0    0    0    0 -0.00000000000E+00 -0.00000000000E+00 -0.74505805969E-08  0.93827000000E+00  0.93827000000E+00 0. -1.
     999902    2    1    2    0    0  0.57090740687E-02 -0.88470941670E-02  0.35430044595E-02  0.10328206579E+01  0.10327609084E+01 0.  0.
     999903    2    3    3    0    0 -0.67792723696E-01  0.23480476321E-02 -0.11584088492E+00  0.14165268352E+00  0.45221736069E-01 0.  0.
         14    1    1    2    0    0 -0.57090740687E-02  0.88470941670E-02 -0.35430044595E-02  0.11109342128E-01  0.00000000000E+00 0. -1.
     999901    1    3    3    0    0  0.73501797765E-01 -0.11195141799E-01  0.11938388938E+00  0.89116797436E+00  0.88000000000E+00 0.  1.
        -11    1    4    4    0    0 -0.53036100390E-01  0.83010645736E-02 -0.48147071079E-01  0.72111976760E-01  0.51100000000E-03 0.  1.
         11    1    4    4    0    0 -0.14756623306E-01 -0.59530169415E-02 -0.67693813845E-01  0.69540706755E-01  0.51100000000E-03 0. -1.
</event>
<event>
 8    1  0.2929965E+004  0.1043930E+01  0.7957747E-01            NaN
         13   -1    0    0    0    0  0.00000000000E+00  0.00000000000E+00  0.74505805969E-08  0.10566000000E+00  0.10566000000E+00 0.  1.
     999900   -1    0    0    0    0 -0.00000000000E+00 -0.00000000000E+00 -0.74505805969E-08  0.93827000000E+00  0.93827000000E+00 0. -1.
     999902    2    1    2    0    0  0.10401585259E-01  0.35763459884E-02  0.75405715217E-02  0.10305942044E+01  0.10305079188E+01 0.  0.
     999903    2    3    3    0    0  0.59005111375E-01  0.11244462509E+00  0.43750708521E-01  0.14181651620E+00  0.45523651992E-01 0.  0.
         14    1    1    2    0    0 -0.10401585259E-01 -0.35763459884E-02 -0.75405715217E-02  0.13335795642E-01  0.00000000000E+00 0. -1.
     999901    1    3    3    0    0 -0.48603526116E-01 -0.10886827910E+00 -0.36210136999E-01  0.88877768816E+00  0.88000000000E+00 0. -1.
        -11    1    4    4    0    0  0.14389514566E-01  0.75817259776E-01  0.24942528102E-01  0.81103056900E-01  0.51100000000E-03 0. -1.
         11    1    4    4    0    0  0.44615596809E-01  0.36627365316E-01  0.18808180419E-01  0.60713459301E-01  0.51100000000E-03 0.  1.
</event>
<event>
 8    1  0.2929965E+004  0.1043930E+01  0.7957747E-01            NaN
         13   -1    0    0    0    0  0.00000000000E+00  0.00000000000E+00  0.74505805969E-08  0.10566000000E+00  0.10566000000E+00 0.  1.
     999900   -1    0    0    0    0 -0.00000000000E+00 -0.00000000000E+00 -0.74505805969E-08  0.93827000000E+00  0.93827000000E+00 0.  1.
     999902    2    1    2    0    0  0.59398492189E-02 -0.11364260721E-01  0.55578799308E-02  0.10299543691E+01  0.10298595458E+01 0.  0.
     999903    2    3    3    0    0  0.41885149510E-01 -0.12691606455E+00 -0.66581572696E-02  0.14158872614E+00  0.46270758806E-01 0.  0.
         14    1    1    2    0    0 -0.59398492189E-02  0.11364260721E-01 -0.55578799308E-02  0.13975630927E-01  0.00000000000E+00 0. -1.
     999901    1    3    3    0    0 -0.35945300291E-01  0.11555180383E+00  0.12216037200E-01  0.88836564293E+00  0.88000000000E+00 0. -1.
        -11    1    4    4    0    0  0.18071611665E-01 -0.74211223398E-01 -0.25870708753E-01  0.80643930452E-01  0.51100000000E-03 0. -1.
         11    1    4    4    0    0  0.23813537845E-01 -0.52704841154E-01  0.19212551483E-01  0.60944795686E-01  0.51100000000E-03 0.  1.
</event>
<event>
 8    1  0.2929965E+004  0.1043930E+01  0.7957747E-01            NaN
         13   -1    0    0    0    0  0.00000000000E+00  0.00000000000E+00  0.74505805969E-08  0.10566000000E+00  0.10566000000E+00 0.  1.
     999900   -1    0    0    0    0 -0.00000000000E+00 -0.00000000000E+00 -0.74505805969E-08  0.93827000000E+00  0.93827000000E+00 0.  1.
     999902    2    1    2    0    0  0.10675559788E-01 -0.83069962916E-02 -0.27612589560E-03  0.10304004025E+01  0.10303115739E+01 0.  0.
     999903    2    3    3    0    0  0.99319469692E-01  0.39987753016E-01 -0.80003001154E-01  0.14104867214E+00  0.45065178004E-01 0.  0.
         14    1    1    2    0    0 -0.10675559788E-01  0.83069962916E-02  0.27612589560E-03  0.13529597543E-01  0.00000000000E+00 0.  1.
     999901    1    3    3    0    0 -0.88643909904E-01 -0.48294749307E-01  0.79726875258E-01  0.88935173031E+00  0.88000000000E+00 0.  1.
        -11    1    4    4    0    0  0.50765390942E-01 -0.92391588714E-03 -0.48300741449E-01  0.70079963495E-01  0.51100000000E-03 0.  1.
         11    1    4    4    0    0  0.48554078750E-01  0.40911668903E-01 -0.31702259705E-01  0.70968708648E-01  0.51100000000E-03 0. -1.
</event>
<event>
 8    1  0.2929965E+004  0.1043930E+01  0.7957747E-01            NaN
         13   -1    0    0    0    0  0.00000000000E+00  0.00000000000E+00  0.74505805969E-08  0.10566000000E+00  0.10566000000E+00 0.  1.
     999900   -1    0    0    0    0 -0.00000000000E+00 -0.00000000000E+00 -0.74505805969E-08  0.93827000000E+00  0.93827000000E+00 0. -1.
     999902    2    1    2    0    0  0.10239055518E-01  0.76582013948E-02  0.65074064311E-02  0.10295831312E+01  0.10294831671E+01 0.  0.
     999903    2    3    3    0    0  0.28256170811E-01 -0.15631068611E-01 -0.12738106047E+00  0.13896922599E+00  0.45208071318E-01 0.  0.
         14    1    1    2    0    0 -0.10239055518E-01 -0.76582013948E-02 -0.65074064311E-02  0.14346868821E-01  0.00000000000E+00 0. -1.
     999901    1    3    3    0    0 -0.18017115293E-01  0.23289270006E-01  0.13388846690E+00  0.89061390519E+00  0.88000000000E+00 0.  1.
        -11    1    4    4    0    0 -0.71672168122E-02 -0.10625680788E-01 -0.10023933733E-01  0.16279264649E-01  0.51100000000E-03 0.  1.
         11    1    4    4    0    0  0.35423387624E-01 -0.50053878235E-02 -0.11735712674E+00  0.12268996134E+00  0.51100000000E-03 0. -1.
</event>
<event>
 8    1  0.2929965E+004  0.1043930E+01  0.7957747E-01            NaN
         13   -1    0    0    0    0  0.00000000000E+00  0.00000000000E+00  0.74505805969E-08  0.10566000000E+00  0.10566000000E+00 0. -1.
     999900   -1    0    0    0    0 -0.00000000000E+00 -0.00000000000E+00 -0.74505805969E-08  0.93827000000E+00  0.93827000000E+00 0. -1.
     999902    2    1    2    0    0 -0.11695633218E-02 -0.12447243253E-01 -0.48262303968E-02  0.10305287223E+01  0.10304415817E+01 0.  0.
     999903    2    3    3    0    0 -0.12556600414E+00  0.41649865564E-01  0.54634106025E-02  0.14007555211E+00  0.45714097903E-01 0.  0.
         14    1    1    2    0    0  0.11695633218E-02  0.12447243253E-01  0.48262303968E-02  0.13401277655E-01  0.00000000000E+00 0. -1.
     999901    1    3    3    0    0  0.12439644081E+00 -0.54097108817E-01 -0.10289640999E-01  0.89045317024E+00  0.88000000000E+00 0.  1.
        -11    1    4    4    0    0 -0.80663515821E-01  0.59240038891E-02 -0.75540425928E-02  0.81234360262E-01  0.51100000000E-03 0. -1.
         11    1    4    4    0    0 -0.44902488316E-01  0.35725861675E-01  0.13017453195E-01  0.58841191848E-01  0.51100000000E-03 0.  1.
</event>
<event>
 8    1  0.2929965E+004  0.1043930E+01  0.7957747E-01            NaN
         13   -1    0    0    0    0  0.00000000000E+00  0.00000000000E+00  0.74505805969E-08  0.10566000000E+00  0.10566000000E+00 0.  1.
     999900   -1    0    0    0    0 -0.00000000000E+00 -0.00000000000E+00 -0.74505805969E-08  0.93827000000E+00  0.93827000000E+00 0. -1.
     999902    2    1    2    0    0 -0.71322951454E-02 -0.36527930552E-02 -0.11302721651E-01  0.10300748909E+01  0.10299817070E+01 0.  0.
     999903    2    3    3    0    0  0.59120496049E-03 -0.13254221334E+00  0.11656657665E-01  0.14035624538E+00  0.44678967160E-01 0.  0.
         14    1    1    2    0    0  0.71322951454E-02  0.36527930552E-02  0.11302721651E-01  0.13855109089E-01  0.00000000000E+00 0.  1.
     999901    1    3    3    0    0 -0.77235001059E-02  0.12888942029E+00 -0.22959379315E-01  0.88971864554E+00  0.88000000000E+00 0. -1.
        -11    1    4    4    0    0 -0.20593430350E-01 -0.46547170685E-01  0.93845644751E-02  0.51759633343E-01  0.51100000000E-03 0. -1.
         11    1    4    4    0    0  0.21184635311E-01 -0.85995042659E-01  0.22720931896E-02  0.88596612032E-01  0.51100000000E-03 0.  1.
</event>
<event>
 8    1  0.2929965E+004  0.1043930E+01  0.7957747E-01            NaN
         13   -1    0    0    0    0  0.00000000000E+00  0.00000000000E+00  0.74505805969E-08  0.10566000000E+00  0.10566000000E+00 0.  1.
     999900   -1    0    0    0    0 -0.00000000000E+00 -0.00000000000E+00 -0.74505805969E-08  0.93827000000E+00  0.93827000000E+00 0.  1.
     999902    2    1    2    0    0 -0.31354245093E-02 -0.11538204691E-01  0.60714960561E-02  0.10305201484E+01  0.10304328956E+01 0.  0.
     999903    2    3    3    0    0 -0.82074968996E-01 -0.21540628965E-01 -0.10253333789E+00  0.14028056826E+00  0.44331176613E-01 0.  0.
         14    1    1    2    0    0  0.31354245093E-02  0.11538204691E-01 -0.60714960561E-02  0.13409851555E-01  0.00000000000E+00 0.  1.
     999901    1    3    3    0    0  0.78939544486E-01  0.10002424274E-01  0.10860483395E+00  0.89023958019E+00  0.88000000000E+00 0. -1.
        -11    1    4    4    0    0 -0.37489059331E-01  0.83970454786E-02 -0.62221011287E-01  0.73127664457E-01  0.51100000000E-03 0.  1.
         11    1    4    4    0    0 -0.44585909665E-01 -0.29937674444E-01 -0.40312326604E-01  0.67152903801E-01  0.51100000000E-03 0. -1.
</event>
<event>
 8    1  0.2929965E+004  0.1043930E+01  0.7957747E-01            NaN
         13   -1    0    0    0    0  0.00000000000E+00  0.00000000000E+00  0.74505805969E-08  0.10566000000E+00  0.10566000000E+00 0.  1.
     999900   -1    0    0    0    0 -0.00000000000E+00 -0.00000000000E+00 -0.74505805969E-08  0.93827000000E+00  0.93827000000E+00 0. -1.
     999902    2    1    2    0    0  0.95215183742E-02 -0.78397850307E-02  0.47726348096E-02  0.10307050393E+01  0.10306201912E+01 0.  0.
     999903    2    3    3    0    0  0.68103526819E-01 -0.11638655835E+00 -0.37467901782E-02  0.14206178453E+00  0.44537521916E-01 0.  0.
         14    1    1    2    0    0 -0.95215183742E-02  0.78397850307E-02 -0.47726348096E-02  0.13224960662E-01  0.00000000000E+00 0.  1.
     999901    1    3    3    0    0 -0.58582008445E-01  0.10854677332E+00  0.85194249878E-02  0.88864325481E+00  0.88000000000E+00 0.  1.
        -11    1    4    4    0    0  0.19257800344E-01 -0.68911888501E-01 -0.14757643383E-01  0.73059978169E-01  0.51100000000E-03 0.  1.
         11    1    4    4    0    0  0.48845726475E-01 -0.47474669847E-01  0.11010853205E-01  0.69001806363E-01  0.51100000000E-03 0. -1.
</event>
<event>
 8    1  0.2929965E+004  0.1043930E+01  0.7957747E-01            NaN
         13   -1    0    0    0    0  0.00000000000E+00  0.00000000000E+00  0.74505805969E-08  0.10566000000E+00  0.10566000000E+00 0. -1.
     999900   -1    0    0    0    0 -0.00000000000E+00 -0.00000000000E+00 -0.74505805969E-08  0.93827000000E+00  0.93827000000E+00 0. -1.
     999902    2    1    2    0    0  0.10320354006E-01  0.41324021183E-02 -0.11395621779E-01  0.10280099922E+01  0.10278867142E+01 0.  0.
     999903    2    3    3    0    0 -0.34463132141E-01  0.32552635236E-01 -0.12323165458E+00  0.13934775682E+00  0.44546325337E-01 0.  0.
         14    1    1    2    0    0 -0.10320354006E-01 -0.41324021183E-02  0.11395621779E-01  0.15920007846E-01  0.00000000000E+00 0.  1.
     999901    1    3    3    0    0  0.44783486147E-01 -0.28420233118E-01  0.11183603280E+00  0.88866223534E+00  0.88000000000E+00 0.  1.
        -11    1    4    4    0    0 -0.37418070843E-02  0.32923319218E-01 -0.77086928034E-01  0.83908293174E-01  0.51100000000E-03 0. -1.
         11    1    4    4    0    0 -0.30721325056E-01 -0.37068398135E-03 -0.46144726548E-01  0.55439463643E-01  0.51100000000E-03 0.  1.
</event>
<event>
 8    1  0.2929965E+004  0.1043930E+01  0.7957747E-01            NaN
         13   -1    0    0    0    0  0.00000000000E+00  0.00000000000E+00  0.74505805969E-08  0.10566000000E+00  0.10566000000E+00 0. -1.
     999900   -1    0    0    0    0 -0.00000000000E+00 -0.00000000000E+00 -0.74505805969E-08  0.93827000000E+00  0.93827000000E+00 0.  1.
     999902    2    1    2    0    0  0.89600443619E-02  0.36289245083E-02  0.11002506888E-02  0.10342005581E+01  0.10341547913E+01 0.  0.
     999903    2    3    3    0    0  0.83071370349E-01 -0.28374330400E-01 -0.10558811075E+00  0.14408870927E+00  0.43666369334E-01 0.  0.
         14    1    1    2    0    0 -0.89600443619E-02 -0.36289245083E-02 -0.11002506888E-02  0.97294418972E-02  0.00000000000E+00 0.  1.
     999901    1    3    3    0    0 -0.74111325987E-01  0.32003254908E-01  0.10668836144E+00  0.89011184883E+00  0.88000000000E+00 0. -1.
        -11    1    4    4    0    0  0.39494824705E-01 -0.34629510182E-01 -0.44841355751E-01  0.69065566388E-01  0.51100000000E-03 0. -1.
         11    1    4    4    0    0  0.43576545644E-01  0.62551797819E-02 -0.60746754998E-01  0.75023142883E-01  0.51100000000E-03 0.  1.
</event>
<event>
 8    1  0.2929965E+004  0.1043930E+01  0.7957747E-01            NaN
         13   -1    0    0    0    0  0.00000000000E+00  0.00000000000E+00  0.74505805969E-08  0.10566000000E+00  0.10566000000E+00 0. -1.
     999900   -1    0    0    0    0 -0.00000000000E+00 -0.00000000000E+00 -0.74505805969E-08  0.93827000000E+00  0.93827000000E+00 0. -1.
     999902    2    1    2    0    0  0.58729305866E-02 -0.75291849441E-02  0.98482591498E-02  0.10302125604E+01  0.10301212315E+01 0.  0.
     999903    2    3    3    0    0 -0.10601601543E+00  0.75526242930E-01 -0.17206515559E-01  0.13883761062E+00  0.45124373088E-01 0.  0.
         14    1    1    2    0    0 -0.58729305866E-02  0.75291849441E-02 -0.98482591498E-02  0.13717439553E-01  0.00000000000E+00 0.  1.
     999901    1    3    3    0    0  0.11188894602E+00 -0.83055427874E-01  0.27054774709E-01  0.89137494982E+00  0.88000000000E+00 0.  1.
        -11    1    4    4    0    0 -0.78004474942E-01  0.28723471149E-01 -0.78842211961E-02  0.83499448924E-01  0.51100000000E-03 0. -1.
         11    1    4    4    0    0 -0.28011540491E-01  0.46802771780E-01 -0.93222943627E-02  0.55338161699E-01  0.51100000000E-03 0.  1.
</event>
<event>
 8    1  0.2929965E+004  0.1043930E+01  0.7957747E-01            NaN
         13   -1    0    0    0    0  0.00000000000E+00  0.00000000000E+00  0.74505805969E-08  0.10566000000E+00  0.10566000000E+00 0. -1.
     999900   -1    0    0    0    0 -0.00000000000E+00 -0.00000000000E+00 -0.74505805969E-08  0.93827000000E+00  0.93827000000E+00 0.  1.
     999902    2    1    2    0    0 -0.38149001648E-02 -0.82001327108E-02  0.98739420051E-02  0.10305400646E+01  0.10304530724E+01 0.  0.
     999903    2    3    3    0    0  0.85754335860E-01  0.71684274484E-01  0.66504044130E-01  0.14058999013E+00  0.53388351836E-01 0.  0.
         14    1    1    2    0    0  0.38149001648E-02  0.82001327108E-02 -0.98739420051E-02  0.13389935417E-01  0.00000000000E+00 0.  1.
     999901    1    3    3    0    0 -0.89569236025E-01 -0.79884407194E-01 -0.56630102125E-01  0.88995007445E+00  0.88000000000E+00 0.  1.
        -11    1    4    4    0    0  0.14289826750E-01  0.26997949868E-01  0.43614692225E-01  0.53250267084E-01  0.51100000000E-03 0.  1.
         11    1    4    4    0    0  0.71464509110E-01  0.44686324616E-01  0.22889351905E-01  0.87339723045E-01  0.51100000000E-03 0. -1.
</event>
<event>
 8    1  0.2929965E+004  0.1043930E+01  0.7957747E-01            NaN
         13   -1    0    0    0    0  0.00000000000E+00  0.00000000000E+00  0.74505805969E-08  0.10566000000E+00  0.10566000000E+00 0. -1.
     999900   -1    0    0    0    0 -0.00000000000E+00 -0.00000000000E+00 -0.74505805969E-08  0.93827000000E+00  0.93827000000E+00 0. -1.
     999902    2    1    2    0    0  0.13084364961E-01 -0.20358366971E-02 -0.33786139277E-02  0.10302639739E+01  0.10301733328E+01 0.  0.
     999903    2    3    3    0    0 -0.11856088474E-01 -0.13044492438E+00  0.22844725059E-01  0.14020859161E+00  0.44498568159E-01 0.  0.
         14    1    1    2    0    0 -0.13084364961E-01  0.20358366971E-02  0.33786139277E-02  0.13666026107E-01  0.00000000000E+00 0. -1.
     999901    1    3    3    0    0  0.24940453435E-01  0.12840908768E+00 -0.26223338987E-01  0.89005538228E+00  0.88000000000E+00 0. -1.
        -11    1    4    4    0    0 -0.40895480024E-02 -0.63940987525E-01  0.33669440193E-01  0.72381396867E-01  0.51100000000E-03 0. -1.
         11    1    4    4    0    0 -0.77665404712E-02 -0.66503936857E-01 -0.10824715134E-01  0.67827194746E-01  0.51100000000E-03 0.  1.
</event>
<event>
 8    1  0.2929965E+004  0.1043930E+01  0.7957747E-01            NaN
         13   -1    0    0    0    0  0.00000000000E+00  0.00000000000E+00  0.74505805969E-08  0.10566000000E+00  0.10566000000E+00 0.  1.
     999900   -1    0    0    0    0 -0.00000000000E+00 -0.00000000000E+00 -0.74505805969E-08  0.93827000000E+00  0.93827000000E+00 0. -1.
     999902    2    1    2    0    0  0.42817109983E-02  0.12656916662E-01  0.48128634575E-02  0.10297280902E+01  0.10296301498E+01 0.  0.
     999903    2    3    3    0    0  0.93066109920E-01 -0.54879611289E-01 -0.75088456630E-01  0.13909456673E+00  0.45121498475E-01 0.  0.
         14    1    1    2    0    0 -0.42817109983E-02 -0.12656916662E-01 -0.48128634575E-02  0.14201909840E-01  0.00000000000E+00 0. -1.
     999901    1    3    3    0    0 -0.88784398922E-01  0.67536527951E-01  0.79901320088E-01  0.89063352343E+00  0.88000000000E+00 0.  1.
        -11    1    4    4    0    0  0.36516880529E-01 -0.44761626834E-01 -0.25277681033E-01  0.63057973959E-01  0.51100000000E-03 0. -1.
         11    1    4    4    0    0  0.56549229391E-01 -0.10117984456E-01 -0.49810775597E-01  0.76036592774E-01  0.51100000000E-03 0.  1.
</event>
<event>
 8    1  0.2929965E+004  0.1043930E+01  0.7957747E-01            NaN
         13   -1    0    0    0    0  0.00000000000E+00  0.00000000000E+00  0.74505805969E-08  0.10566000000E+00  0.10566000000E+00 0.  1.
     999900   -1    0    0    0    0 -0.00000000000E+00 -0.00000000000E+00 -0.74505805969E-08  0.93827000000E+00  0.93827000000E+00 0. -1.
     999902    2    1    2    0    0  0.12469331651E-03  0.96903656722E-02  0.65998879872E-02  0.10322049304E+01  0.10321383343E+01 0.  0.
     999903    2    3    3    0    0  0.33250325388E-01  0.84586523957E-01 -0.99223534195E-01  0.14208957907E+00  0.45647284343E-01 0.  0.
         14    1    1    2    0    0 -0.12469331651E-03 -0.96903656722E-02 -0.65998879872E-02  0.11725069583E-01  0.00000000000E+00 0. -1.
     999901    1    3    3    0    0 -0.33125632072E-01 -0.74896158285E-01  0.10582342218E+00  0.89011535135E+00  0.88000000000E+00 0.  1.
        -11    1    4    4    0    0 -0.78197636551E-02  0.24899949605E-01 -0.43316312233E-01  0.50573908495E-01  0.51100000000E-03 0. -1.
         11    1    4    4    0    0  0.41070089043E-01  0.59686574352E-01 -0.55907221962E-01  0.91515670573E-01  0.51100000000E-03 0.  1.
</event>
<event>
 8    1  0.2929965E+004  0.1043930E+01  0.7957747E-01            NaN
         13   -1    0    0    0    0  0.00000000000E+00  0.00000000000E+00  0.74505805969E-08  0.10566000000E+00  0.10566000000E+00 0.  1.
     999900   -1    0    0    0    0 -0.00000000000E+00 -0.00000000000E+00 -0.74505805969E-08  0.93827000000E+00  0.93827000000E+00 0. -1.
     999902    2    1    2    0    0  0.11044958778E-01 -0.60842934845E-02  0.73044215661E-02  0.10293572749E+01  0.10292541159E+01 0.  0.
     999903    2    3    3    0    0 -0.59053045829E-01  0.59492250420E-01  0.10151430292E+00  0.13913847311E+00  0.45030777482E-01 0.  0.
         14    1    1    2    0    0 -0.11044958778E-01  0.60842934845E-02 -0.73044215661E-02  0.14572725072E-01  0.00000000000E+00 0. -1.
     999901    1    3    3    0    0  0.70098004606E-01 -0.65576543904E-01 -0.94209881357E-01  0.89021880182E+00  0.88000000000E+00 0. -1.
        -11    1    4    4    0    0 -0.13863992739E-01  0.15604949024E-02  0.16950143476E-03  0.13961922888E-01  0.51100000000E-03 0.  1.
         11    1    4    4    0    0 -0.45189053090E-01  0.57931755517E-01  0.10134480149E+00  0.12517655022E+00  0.51100000000E-03 0. -1.
</event>
<event>
 8    1  0.2929965E+004  0.1043930E+01  0.7957747E-01            NaN
         13   -1    0    0    0    0  0.00000000000E+00  0.00000000000E+00  0.74505805969E-08  0.10566000000E+00  0.10566000000E+00 0. -1.
     999900   -1    0    0    0    0 -0.00000000000E+00 -0.00000000000E+00 -0.74505805969E-08  0.93827000000E+00  0.93827000000E+00 0. -1.
     999902    2    1    2    0    0  0.53768192392E-02 -0.12848185521E-01  0.52137162598E-02  0.10290582518E+01  0.10289507844E+01 0.  0.
     999903    2    3    3    0    0  0.94439201390E-01  0.76804751597E-01  0.48500503449E-01  0.13897763582E+00  0.46311465077E-01 0.  0.
         14    1    1    2    0    0 -0.53768192392E-02  0.12848185521E-01 -0.52137162598E-02  0.14871748167E-01  0.00000000000E+00 0.  1.
     999901    1    3    3    0    0 -0.89062382151E-01 -0.89652937118E-01 -0.43286787189E-01  0.89008061601E+00  0.88000000000E+00 0. -1.
        -11    1    4    4    0    0  0.77513089674E-01  0.44839483765E-01  0.50392255839E-01  0.10275455681E+00  0.51100000000E-03 0.  1.
         11    1    4    4    0    0  0.16926111716E-01  0.31965267832E-01 -0.18917523903E-02  0.36223079017E-01  0.51100000000E-03 0. -1.
</event>
<event>
 8    1  0.2929965E+004  0.1043930E+01  0.7957747E-01            NaN
         13   -1    0    0    0    0  0.00000000000E+00  0.00000000000E+00  0.74505805969E-08  0.10566000000E+00  0.10566000000E+00 0.  1.
     999900   -1    0    0    0    0 -0.00000000000E+00 -0.00000000000E+00 -0.74505805969E-08  0.93827000000E+00  0.93827000000E+00 0. -1.
     999902    2    1    2    0    0  0.40303336344E-02  0.77693346916E-03 -0.13497227518E-01  0.10298224713E+01  0.10297258373E+01 0.  0.
     999903    2    3    3    0    0 -0.58539046224E-01  0.71095587984E-01  0.92935901645E-01  0.13842600989E+00  0.45202608721E-01 0.  0.
         14    1    1    2    0    0 -0.40303336344E-02 -0.77693346916E-03  0.13497227518E-01  0.14107528681E-01  0.00000000000E+00 0.  1.
     999901    1    3    3    0    0  0.62569379859E-01 -0.70318654515E-01 -0.10643312916E+00  0.89139646143E+00  0.88000000000E+00 0. -1.
        -11    1    4    4    0    0 -0.64132906748E-01  0.59089493430E-01  0.88990814044E-01  0.12459624419E+00  0.51100000000E-03 0.  1.
         11    1    4    4    0    0  0.55938605235E-02  0.12006094554E-01  0.39450876010E-02  0.13829765695E-01  0.51100000000E-03 0. -1.
</event>
<event>
 8    1  0.2929965E+004  0.1043930E+01  0.7957747E-01            NaN
         13   -1    0    0    0    0  0.00000000000E+00  0.00000000000E+00  0.74505805969E-08  0.10566000000E+00  0.10566000000E+00 0. -1.
     999900   -1    0    0    0    0 -0.00000000000E+00 -0.00000000000E+00 -0.74505805969E-08  0.93827000000E+00  0.93827000000E+00 0. -1.
     999902    2    1    2    0    0  0.94174675932E-02 -0.10671047496E-01 -0.36989414977E-02  0.10292248268E+01  0.10291197705E+01 0.  0.
     999903    2    3    3    0    0 -0.11356523853E+00  0.63123498904E-01  0.27833813157E-02  0.13759014736E+00  0.45184753212E-01 0.  0.
         14    1    1    2    0    0 -0.94174675932E-02  0.10671047496E-01  0.36989414977E-02  0.14705173196E-01  0.00000000000E+00 0. -1.
     999901    1    3    3    0    0  0.12298270612E+00 -0.73794546399E-01 -0.64823228134E-02  0.89163467945E+00  0.88000000000E+00 0.  1.
        -11    1    4    4    0    0 -0.26062511591E-01  0.25409191360E-01  0.18795567560E-01  0.40968475648E-01  0.51100000000E-03 0. -1.
         11    1    4    4    0    0 -0.87502726936E-01  0.37714307544E-01 -0.16012186244E-01  0.96621671710E-01  0.51100000000E-03 0.  1.
</event>
<event>
 8    1  0.2929965E+004  0.1043930E+01  0.7957747E-01            NaN
         13   -1    0    0    0    0  0.00000000000E+00  0.00000000000E+00  0.74505805969E-08  0.10566000000E+00  0.10566000000E+00 0.  1.
     999900   -1    0    0    0    0 -0.00000000000E+00 -0.00000000000E+00 -0.74505805969E-08  0.93827000000E+00  0.93827000000E+00 0.  1.
     999902    2    1    2    0    0 -0.11753745595E-01  0.90694826298E-02 -0.17527083709E-01  0.10209603523E+01  0.10207019331E+01 0.  0.
     999903    2    3    3    0    0  0.37731815364E-01 -0.99914551008E-01  0.58021626162E-01  0.12965011011E+00  0.45122439588E-01 0.  0.
         14    1    1    2    0    0  0.11753745595E-01 -0.90694826298E-02  0.17527083709E-01  0.22969647669E-01  0.00000000000E+00 0.  1.
     999901    1    3    3    0    0 -0.49485560959E-01  0.10898403364E+00 -0.75548709871E-01  0.89131024222E+00  0.88000000000E+00 0. -1.
        -11    1    4    4    0    0  0.25691920545E-01 -0.36760369525E-01  0.45991280999E-01  0.64240630429E-01  0.51100000000E-03 0.  1.
         11    1    4    4    0    0  0.12039894819E-01 -0.63154181482E-01  0.12030345163E-01  0.65409479678E-01  0.51100000000E-03 0. -1.
</event>
<event>
 8    1  0.2929965E+004  0.1043930E+01  0.7957747E-01            NaN
         13   -1    0    0    0    0  0.00000000000E+00  0.00000000000E+00  0.74505805969E-08  0.10566000000E+00  0.10566000000E+00 0. -1.
     999900   -1    0    0    0    0 -0.00000000000E+00 -0.00000000000E+00 -0.74505805969E-08  0.93827000000E+00  0.93827000000E+00 0. -1.
     999902    2    1    2    0    0 -0.58272058177E-02  0.89797138951E-02  0.87854428802E-02  0.10300816934E+01  0.10299886016E+01 0.  0.
     999903    2    3    3    0    0  0.13188714550E-01 -0.12695300992E+00  0.31928025425E-01  0.13914124097E+00  0.45275569717E-01 0.  0.
         14    1    1    2    0    0  0.58272058177E-02 -0.89797138951E-02 -0.87854428802E-02  0.13848306607E-01  0.00000000000E+00 0.  1.
     999901    1    3    3    0    0 -0.19015920368E-01  0.13593272381E+00 -0.23142582545E-01  0.89094045242E+00  0.88000000000E+00 0.  1.
        -11    1    4    4    0    0  0.25966440688E-01 -0.11405140137E+00  0.30708575146E-01  0.12093492426E+00  0.51100000000E-03 0. -1.
         11    1    4    4    0    0 -0.12777726137E-01 -0.12901608545E-01  0.12194502798E-02  0.18206316714E-01  0.51100000000E-03 0.  1.
</event>
<event>
 8    1  0.2929965E+004  0.1043930E+01  0.7957747E-01            NaN
         13   -1    0    0    0    0  0.00000000000E+00  0.00000000000E+00  0.74505805969E-08  0.10566000000E+00  0.10566000000E+00 0. -1.
     999900   -1    0    0    0    0 -0.00000000000E+00 -0.00000000000E+00 -0.74505805969E-08  0.93827000000E+00  0.93827000000E+00 0. -1.
     999902    2    1    2    0    0 -0.79903853809E-02 -0.22417680554E-02  0.10904145361E-01  0.10302270015E+01  0.10301358660E+01 0.  0.
     999903    2    3    3    0    0  0.91529360689E-01  0.44016634042E-01 -0.82788881701E-01  0.13847456781E+00  0.44789720438E-01 0.  0.
         14    1    1    2    0    0  0.79903853809E-02  0.22417680554E-02 -0.10904145361E-01  0.13702998526E-01  0.00000000000E+00 0.  1.
     999901    1    3    3    0    0 -0.99519746070E-01 -0.46258402097E-01  0.93693027062E-01  0.89175243366E+00  0.88000000000E+00 0.  1.
        -11    1    4    4    0    0  0.32118315361E-01  0.39721166137E-01 -0.32776845945E-01  0.60695469122E-01  0.51100000000E-03 0.  1.
         11    1    4    4    0    0  0.59411045328E-01  0.42954679050E-02 -0.50012035756E-01  0.77779098689E-01  0.51100000000E-03 0. -1.
</event>
<event>
 8    1  0.2929965E+004  0.1043930E+01  0.7957747E-01            NaN
         13   -1    0    0    0    0  0.00000000000E+00  0.00000000000E+00  0.74505805969E-08  0.10566000000E+00  0.10566000000E+00 0.  1.
     999900   -1    0    0    0    0 -0.00000000000E+00 -0.00000000000E+00 -0.74505805969E-08  0.93827000000E+00  0.93827000000E+00 0. -1.
     999902    2    1    2    0    0 -0.80003267412E-02 -0.17638085400E-01  0.16897810430E-01  0.10182270180E+01  0.10179025577E+01 0.  0.
     999903    2    3    3    0    0 -0.11956511159E+00 -0.75094141545E-02  0.28546458468E-01  0.13104891743E+00  0.44796330830E-01 0.  0.
         14    1    1    2    0    0  0.80003267412E-02  0.17638085400E-01 -0.16897810430E-01  0.25702981965E-01  0.00000000000E+00 0. -1.
     999901    1    3    3    0    0  0.11156478485E+00 -0.10128671245E-01 -0.11648648037E-01  0.88717810061E+00  0.88000000000E+00 0. -1.
        -11    1    4    4    0    0 -0.45992768584E-01 -0.24712824672E-01  0.14565448775E-01  0.54207673666E-01  0.51100000000E-03 0. -1.
         11    1    4    4    0    0 -0.73572343010E-01  0.17203410517E-01  0.13981009693E-01  0.76841243759E-01  0.51100000000E-03 0.  1.
</event>
<event>
 8    1  0.2929965E+004  0.1043930E+01  0.7957747E-01            NaN
         13   -1    0    0    0    0  0.00000000000E+00  0.00000000000E+00  0.74505805969E-08  0.10566000000E+00  0.10566000000E+00 0. -1.
     999900   -1    0    0    0    0 -0.00000000000E+00 -0.00000000000E+00 -0.74505805969E-08  0.93827000000E+00  0.93827000000E+00 0. -1.
     999902    2    1    2    0    0 -0.36420928166E-02  0.13216515689E-01 -0.10192514913E-02  0.10301830003E+01  0.10300912747E+01 0.  0.
     999903    2    3    3    0    0  0.35073353992E-01 -0.12262980288E+00  0.29004561027E-01  0.13841254923E+00  0.45261026376E-01 0.  0.
         14    1    1    2    0    0  0.36420928166E-02 -0.13216515689E-01  0.10192514913E-02  0.13746999696E-01  0.00000000000E+00 0.  1.
     999901    1    3    3    0    0 -0.38715446809E-01  0.13584631857E+00 -0.30023812518E-01  0.89177045107E+00  0.88000000000E+00 0. -1.
        -11    1    4    4    0    0  0.24198961845E-01 -0.82272061343E-01 -0.29313502183E-02  0.85808716149E-01  0.51100000000E-03 0.  1.
         11    1    4    4    0    0  0.10874392147E-01 -0.40357741540E-01  0.31935911245E-01  0.52603833081E-01  0.51100000000E-03 0. -1.
</event>
<event>
 8    1  0.2929965E+004  0.1043930E+01  0.7957747E-01            NaN
         13   -1    0    0    0    0  0.00000000000E+00  0.00000000000E+00  0.74505805969E-08  0.10566000000E+00  0.10566000000E+00 0. -1.
     999900   -1    0    0    0    0 -0.00000000000E+00 -0.00000000000E+00 -0.74505805969E-08  0.93827000000E+00  0.93827000000E+00 0.  1.
     999902    2    1    2    0    0 -0.13327601013E-01 -0.43941448949E-02  0.37720929071E-02  0.10293985808E+01  0.10292960099E+01 0.  0.
     999903    2    3    3    0    0 -0.10144263048E+00 -0.56612262730E-01  0.66117023920E-01  0.14126690103E+00  0.45709089957E-01 0.  0.
         14    1    1    2    0    0  0.13327601013E-01  0.43941448949E-02 -0.37720929071E-02  0.14531419168E-01  0.00000000000E+00 0.  1.
     999901    1    3    3    0    0  0.88115029464E-01  0.52218117835E-01 -0.62344931013E-01  0.88813167980E+00  0.88000000000E+00 0.  1.
        -11    1    4    4    0    0 -0.33389570378E-01 -0.26534683013E-02  0.36410920759E-01  0.49476464865E-01  0.51100000000E-03 0. -1.
         11    1    4    4    0    0 -0.68053060100E-01 -0.53958794428E-01  0.29706103161E-01  0.91790436164E-01  0.51100000000E-03 0.  1.
</event>
<event>
 8    1  0.2929965E+004  0.1043930E+01  0.7957747E-01            NaN
         13   -1    0    0    0    0  0.00000000000E+00  0.00000000000E+00  0.74505805969E-08  0.10566000000E+00  0.10566000000E+00 0. -1.
     999900   -1    0    0    0    0 -0.00000000000E+00 -0.00000000000E+00 -0.74505805969E-08  0.93827000000E+00  0.93827000000E+00 0. -1.
     999902    2    1    2    0    0  0.14451341958E-01  0.26604389557E-02  0.55294683597E-03  0.10292254099E+01  0.10291203620E+01 0.  0.
     999903    2    3    3    0    0  0.12260935873E+00  0.53044475441E-01  0.11140128194E-01  0.14111010425E+00  0.44058913295E-01 0.  0.
         14    1    1    2    0    0 -0.14451341958E-01 -0.26604389557E-02 -0.55294683597E-03  0.14704590101E-01  0.00000000000E+00 0.  1.
     999901    1    3    3    0    0 -0.10815801678E+00 -0.50384036485E-01 -0.10587181358E-01  0.88811530565E+00  0.88000000000E+00 0. -1.
        -11    1    4    4    0    0  0.12401755789E+00  0.44429618708E-01  0.86608263110E-02  0.13202127373E+00  0.51100000000E-03 0.  1.
         11    1    4    4    0    0 -0.14081991558E-02  0.86148567326E-02  0.24793018827E-02  0.90888305195E-02  0.51100000000E-03 0. -1.
</event>
<event>
 8    1  0.2929965E+004  0.1043930E+01  0.7957747E-01            NaN
         13   -1    0    0    0    0  0.00000000000E+00  0.00000000000E+00  0.74505805969E-08  0.10566000000E+00  0.10566000000E+00 0.  1.
     999900   -1    0    0    0    0 -0.00000000000E+00 -0.00000000000E+00 -0.74505805969E-08  0.93827000000E+00  0.93827000000E+00 0.  1.
     999902    2    1    2    0    0  0.13751786535E-01 -0.50440678208E-03 -0.35552095191E-02  0.10297171335E+01  0.10296190409E+01 0.  0.
     999903    2    3    3    0    0  0.27099381703E-01 -0.80690523676E-01 -0.10238444569E+00  0.14046172050E+00  0.44739055732E-01 0.  0.
         14    1    1    2    0    0 -0.13751786535E-01  0.50440678208E-03  0.35552095191E-02  0.14212866489E-01  0.00000000000E+00 0.  1.
     999901    1    3    3    0    0 -0.13347595168E-01  0.80186116894E-01  0.98829236172E-01  0.88925541301E+00  0.88000000000E+00 0. -1.
        -11    1    4    4    0    0  0.39956712020E-02 -0.70482828549E-01 -0.70365450626E-01  0.99676237245E-01  0.51100000000E-03 0.  1.
         11    1    4    4    0    0  0.23103710501E-01 -0.10207695128E-01 -0.32018995064E-01  0.40785483259E-01  0.51100000000E-03 0. -1.
</event>
<event>
 8    1  0.2929965E+004  0.1043930E+01  0.7957747E-01            NaN
         13   -1    0    0    0    0  0.00000000000E+00  0.00000000000E+00  0.74505805969E-08  0.10566000000E+00  0.10566000000E+00 0. -1.
     999900   -1    0    0    0    0 -0.00000000000E+00 -0.00000000000E+00 -0.74505805969E-08  0.93827000000E+00  0.93827000000E+00 0.  1.
     999902    2    1    2    0    0  0.10270520953E-01 -0.59092170252E-02  0.66620251883E-02  0.10303364344E+01  0.10302467583E+01 0.  0.
     999903    2    3    3    0    0  0.13137783792E+00  0.25628388585E-01  0.16943631290E-02  0.14146845743E+00  0.45754813762E-01 0.  0.
         14    1    1    2    0    0 -0.10270520953E-01  0.59092170252E-02 -0.66620251883E-02  0.13593565614E-01  0.00000000000E+00 0.  1.
     999901    1    3    3    0    0 -0.12110731697E+00 -0.31537605610E-01  0.49676620594E-02  0.88886797696E+00  0.88000000000E+00 0. -1.
        -11    1    4    4    0    0  0.72968652786E-01  0.37165236796E-01  0.23869644239E-02  0.81924586271E-01  0.51100000000E-03 0.  1.
         11    1    4    4    0    0  0.58409185137E-01 -0.11536848212E-01 -0.69260129491E-03  0.59543871159E-01  0.51100000000E-03 0. -1.
</event>
<event>
 7    1  0.2929965E+004  0.1043930E+01  0.7957747E-01            NaN
         13   -1    0    0    0    0  0.00000000000E+00  0.00000000000E+00  0.74505805969E-08  0.10566000000E+00  0.10566000000E+00 0. -1.
     999900   -1    0    0    0    0 -0.00000000000E+00 -0.00000000000E+00 -0.74505805969E-08  0.93827000000E+00  0.93827000000E+00 0. -1.
     999902    2    1    2    0    0 -0.13935686773E-01  0.97881356324E-03 -0.65068121203E-03  0.10299448354E+01  0.10298498819E+01 0.  0.
         14    1    1    2    0    0  0.13935686773E-01 -0.97881356324E-03  0.65068121203E-03  0.13985164563E-01  0.00000000000E+00 0.  1.
     999901    1    3    3    0    0  0.33781903673E-01  0.10574118589E+00 -0.15137169888E-01  0.88710289669E+00  0.88000000000E+00 0.  1.
        -11    1    3    3    0    0 -0.25746962375E-01 -0.81237243305E-01 -0.27849289872E-01  0.89656231455E-01  0.51100000000E-03 0. -1.
         11    1    3    3    0    0 -0.21970628070E-01 -0.23525129024E-01  0.42335778549E-01  0.53185707288E-01  0.51100000000E-03 0.  1.
</event>
<event>
 8    1  0.2929965E+004  0.1043930E+01  0.7957747E-01            NaN
         13   -1    0    0    0    0  0.00000000000E+00  0.00000000000E+00  0.74505805969E-08  0.10566000000E+00  0.10566000000E+00 0. -1.
     999900   -1    0    0    0    0 -0.00000000000E+00 -0.00000000000E+00 -0.74505805969E-08  0.93827000000E+00  0.93827000000E+00 0.  1.
     999902    2    1    2    0    0  0.51732395292E-03 -0.31215998254E-03  0.14150312367E-01  0.10297667939E+01  0.10296693903E+01 0.  0.
     999903    2    3    3    0    0  0.85084284338E-01 -0.97800699646E-01 -0.25613051347E-01  0.13946532175E+00  0.44612053074E-01 0.  0.
         14    1    1    2    0    0 -0.51732395292E-03  0.31215998254E-03 -0.14150312367E-01  0.14163206134E-01  0.00000000000E+00 0.  1.
     999901    1    3    3    0    0 -0.84566960385E-01  0.97488539663E-01  0.39763363713E-01  0.89030147211E+00  0.88000000000E+00 0. -1.
        -11    1    4    4    0    0  0.54461940662E-01 -0.37303685336E-01  0.24973448574E-02  0.66061832949E-01  0.51100000000E-03 0. -1.
         11    1    4    4    0    0  0.30622343676E-01 -0.60497014309E-01 -0.28110396204E-01  0.73403488802E-01  0.51100000000E-03 0.  1.
</event>
<event>
 8    1  0.2929965E+004  0.1043930E+01  0.7957747E-01            NaN
         13   -1    0    0    0    0  0.00000000000E+00  0.00000000000E+00  0.74505805969E-08  0.10566000000E+00  0.10566000000E+00 0. -1.
     999900   -1    0    0    0    0 -0.00000000000E+00 -0.00000000000E+00 -0.74505805969E-08  0.93827000000E+00  0.93827000000E+00 0.  1.
     999902    2    1    2    0    0  0.10945156834E-01  0.72291650503E-02 -0.42809554190E-02  0.10301320340E+01  0.10300396224E+01 0.  0.
     999903    2    3    3    0    0 -0.38759625507E-01  0.10241311455E+00  0.75202734619E-01  0.14004877579E+00  0.44355988360E-01 0.  0.
         14    1    1    2    0    0 -0.10945156834E-01 -0.72291650503E-02  0.42809554190E-02  0.13797965964E-01  0.00000000000E+00 0. -1.
     999901    1    3    3    0    0  0.49704782341E-01 -0.95183949504E-01 -0.79483690038E-01  0.89008325825E+00  0.88000000000E+00 0.  1.
        -11    1    4    4    0    0 -0.39368380838E-01  0.79169176958E-01  0.38142146825E-01  0.96294924453E-01  0.51100000000E-03 0.  1.
         11    1    4    4    0    0  0.60875533127E-03  0.23243937597E-01  0.37060587793E-01  0.43753851335E-01  0.51100000000E-03 0. -1.
</event>
<event>
 8    1  0.2929965E+004  0.1043930E+01  0.7957747E-01            NaN
         13   -1    0    0    0    0  0.00000000000E+00  0.00000000000E+00  0.74505805969E-08  0.10566000000E+00  0.10566000000E+00 0. -1.
     999900   -1    0    0    0    0 -0.00000000000E+00 -0.00000000000E+00 -0.74505805969E-08  0.93827000000E+00  0.93827000000E+00 0.  1.
     999902    2    1    2    0    0 -0.49009274732E-02 -0.86476563430E-02 -0.86691157464E-02  0.10307408143E+01  0.10306564276E+01 0.  0.
     999903    2    3    3    0    0 -0.21062637566E-01  0.12999860454E+00  0.52200816969E-02  0.13963089053E+00  0.46111435175E-01 0.  0.
         14    1    1    2    0    0  0.49009274732E-02  0.86476563430E-02  0.86691157464E-02  0.13189185651E-01  0.00000000000E+00 0.  1.
     999901    1    3    3    0    0  0.16161710093E-01 -0.13864626088E+00 -0.13889197443E-01  0.89110992382E+00  0.88000000000E+00 0.  1.
        -11    1    4    4    0    0 -0.11643457176E-01  0.12940438877E+00  0.65121485170E-02  0.13009125692E+00  0.51100000000E-03 0.  1.
         11    1    4    4    0    0 -0.94191803900E-02  0.59421576153E-03 -0.12920668202E-02  0.95396336018E-02  0.51100000000E-03 0. -1.
</event>
<event>
 8    1  0.2929965E+004  0.1043930E+01  0.7957747E-01            NaN
         13   -1    0    0    0    0  0.00000000000E+00  0.00000000000E+00  0.74505805969E-08  0.10566000000E+00  0.10566000000E+00 0.  1.
     999900   -1    0    0    0    0 -0.00000000000E+00 -0.00000000000E+00 -0.74505805969E-08  0.93827000000E+00  0.93827000000E+00 0. -1.
     999902    2    1    2    0    0  0.17015813605E-04  0.70622816318E-03  0.13418872799E-01  0.10304925451E+01  0.10304049302E+01 0.  0.
     999903    2    3    3    0    0  0.88323942240E-01 -0.74862405012E-01 -0.62958172931E-01  0.13957044708E+00  0.45942134284E-01 0.  0.
         14    1    1    2    0    0 -0.17015813605E-04 -0.70622816318E-03 -0.13418872799E-01  0.13437454928E-01  0.00000000000E+00 0. -1.
     999901    1    3    3    0    0 -0.88306926426E-01  0.75568633175E-01  0.76377045730E-01  0.89092209799E+00  0.88000000000E+00 0. -1.
        -11    1    4    4    0    0  0.32673319934E-01 -0.57440916698E-01 -0.29882187543E-01  0.72527312097E-01  0.51100000000E-03 0.  1.
         11    1    4    4    0    0  0.55650622305E-01 -0.17421488314E-01 -0.33075985389E-01  0.67043134984E-01  0.51100000000E-03 0. -1.
</event>
<event>
 8    1  0.2929965E+004  0.1043930E+01  0.7957747E-01            NaN
         13   -1    0    0    0    0  0.00000000000E+00  0.00000000000E+00  0.74505805969E-08  0.10566000000E+00  0.10566000000E+00 0. -1.
     999900   -1    0    0    0    0 -0.00000000000E+00 -0.00000000000E+00 -0.74505805969E-08  0.93827000000E+00  0.93827000000E+00 0. -1.
     999902    2    1    2    0    0  0.52014722953E-02 -0.64003338875E-02 -0.10779081941E-01  0.10303576680E+01  0.10302682737E+01 0.  0.
     999903    2    3    3    0    0  0.27893423930E-02 -0.79642480634E-01  0.10546341256E+00  0.13969356301E+00  0.45178036749E-01 0.  0.
         14    1    1    2    0    0 -0.52014722953E-02  0.64003338875E-02  0.10779081941E-01  0.13572331981E-01  0.00000000000E+00 0. -1.
     999901    1    3    3    0    0  0.24121299022E-02  0.73242146747E-01 -0.11624249450E+00  0.89066410501E+00  0.88000000000E+00 0. -1.
        -11    1    4    4    0    0  0.12962636319E-01 -0.52995383613E-01  0.38122261795E-01  0.66559060916E-01  0.51100000000E-03 0.  1.
         11    1    4    4    0    0 -0.10173293926E-01 -0.26647097021E-01  0.67341150763E-01  0.73134502090E-01  0.51100000000E-03 0. -1.
</event>
<event>
 8    1  0.2929965E+004  0.1043930E+01  0.7957747E-01            NaN
         13   -1    0    0    0    0  0.00000000000E+00  0.00000000000E+00  0.74505805969E-08  0.10566000000E+00  0.10566000000E+00 0. -1.
     999900   -1    0    0    0    0 -0.00000000000E+00 -0.00000000000E+00 -0.74505805969E-08  0.93827000000E+00  0.93827000000E+00 0. -1.
     999902    2    1    2    0    0 -0.67513060677E-02  0.11540982695E-01 -0.38180271716E-02  0.10300249021E+01  0.10299310401E+01 0.  0.
     999903    2    3    3    0    0 -0.12324373490E+00 -0.11788987954E-01  0.48463929136E-01  0.14050358341E+00  0.45436836328E-01 0.  0.
         14    1    1    2    0    0  0.67513060677E-02 -0.11540982695E-01  0.38180271716E-02  0.13905097866E-01  0.00000000000E+00 0.  1.
     999901    1    3    3    0    0  0.11649242883E+00  0.23329970649E-01 -0.52281956307E-01  0.88952131872E+00  0.88000000000E+00 0.  1.
        -11    1    4    4    0    0 -0.87464750832E-01 -0.22332149756E-01  0.17342993630E-01  0.91923055323E-01  0.51100000000E-03 0.  1.
         11    1    4    4    0    0 -0.35778984067E-01  0.10543161802E-01  0.31120935506E-01  0.48580528089E-01  0.51100000000E-03 0. -1.
</event>
<event>
 8    1  0.2929965E+004  0.1043930E+01  0.7957747E-01            NaN
         13   -1    0    0    0    0  0.00000000000E+00  0.00000000000E+00  0.74505805969E-08  0.10566000000E+00  0.10566000000E+00 0.  1.
     999900   -1    0    0    0    0 -0.00000000000E+00 -0.00000000000E+00 -0.74505805969E-08  0.93827000000E+00  0.93827000000E+00 0.  1.
     999902    2    1    2    0    0 -0.22212874801E-02  0.12022168529E-01 -0.10105762800E-01  0.10280683136E+01  0.10279459442E+01 0.  0.
     999903    2    3    3    0    0  0.88905614182E-01 -0.83075271475E-01  0.42331344383E-01  0.13672254144E+00  0.45775557426E-01 0.  0.
         14    1    1    2    0    0  0.22212874801E-02 -0.12022168529E-01  0.10105762800E-01  0.15861686417E-01  0.00000000000E+00 0.  1.
     999901    1    3    3    0    0 -0.91126901662E-01  0.95097440004E-01 -0.52437107183E-01  0.89134577214E+00  0.88000000000E+00 0.  1.
        -11    1    4    4    0    0  0.29679784892E-02 -0.25934103314E-01  0.30016908394E-02  0.26280370620E-01  0.51100000000E-03 0.  1.
         11    1    4    4    0    0  0.85937635693E-01 -0.57141168161E-01  0.39329653543E-01  0.11044217082E+00  0.51100000000E-03 0. -1.
</event>
<event>
 8    1  0.2929965E+004  0.1043930E+01  0.7957747E-01            NaN
         13   -1    0    0    0    0  0.00000000000E+00  0.00000000000E+00  0.74505805969E-08  0.10566000000E+00  0.10566000000E+00 0. -1.
     999900   -1    0    0    0    0 -0.00000000000E+00 -0.00000000000E+00 -0.74505805969E-08  0.93827000000E+00  0.93827000000E+00 0.  1.
     999902    2    1    2    0    0 -0.40178574210E-02  0.49792239914E-02 -0.10649709204E-01  0.10315061457E+01  0.10314313242E+01 0.  0.
     999903    2    3    3    0    0  0.34889985478E-01 -0.52195144106E-01 -0.11923346841E+00  0.14213942641E+00  0.45225572361E-01 0.  0.
         14    1    1    2    0    0  0.40178574210E-02 -0.49792239914E-02  0.10649709204E-01  0.12423854311E-01  0.00000000000E+00 0. -1.
     999901    1    3    3    0    0 -0.38907842899E-01  0.57174368098E-01  0.10858375920E+00  0.88936671928E+00  0.88000000000E+00 0. -1.
        -11    1    4    4    0    0 -0.41780582646E-02 -0.25041238231E-01 -0.66132679920E-01  0.70840046989E-01  0.51100000000E-03 0.  1.
         11    1    4    4    0    0  0.39068043742E-01 -0.27153905876E-01 -0.53100788488E-01  0.71299379417E-01  0.51100000000E-03 0. -1.
</event>
<event>
 8    1  0.2929965E+004  0.1043930E+01  0.7957747E-01            NaN
         13   -1    0    0    0    0  0.00000000000E+00  0.00000000000E+00  0.74505805969E-08  0.10566000000E+00  0.10566000000E+00 0. -1.
     999900   -1    0    0    0    0 -0.00000000000E+00 -0.00000000000E+00 -0.74505805969E-08  0.93827000000E+00  0.93827000000E+00 0.  1.
     999902    2    1    2    0    0 -0.17027931227E-02 -0.13653566869E-01 -0.11776797009E-02  0.10301203540E+01  0.10300277848E+01 0.  0.
     999903    2    3    3    0    0 -0.90856687177E-01 -0.82967360101E-01 -0.52991030626E-01  0.14139236296E+00  0.45224225031E-01 0.  0.
         14    1    1    2    0    0  0.17027931227E-02  0.13653566869E-01  0.11776797009E-02  0.13809645982E-01  0.00000000000E+00 0. -1.
     999901    1    3    3    0    0  0.89153894054E-01  0.69313793232E-01  0.51813350925E-01  0.88872799106E+00  0.88000000000E+00 0. -1.
        -11    1    4    4    0    0 -0.90061061574E-01 -0.63105347219E-01 -0.37509254075E-01  0.11619158714E+00  0.51100000000E-03 0.  1.
         11    1    4    4    0    0 -0.79562560263E-03 -0.19862012882E-01 -0.15481776551E-01  0.25200775821E-01  0.51100000000E-03 0. -1.
</event>
<event>
 8    1  0.2929965E+004  0.1043930E+01  0.7957747E-01            NaN
         13   -1    0    0    0    0  0.00000000000E+00  0.00000000000E+00  0.74505805969E-08  0.10566000000E+00  0.10566000000E+00 0. -1.
     999900   -1    0    0    0    0 -0.00000000000E+00 -0.00000000000E+00 -0.74505805969E-08  0.93827000000E+00  0.93827000000E+00 0.  1.
     999902    2    1    2    0    0  0.75456077217E-02  0.88686113689E-02 -0.44611551200E-02  0.10314604223E+01  0.10313850456E+01 0.  0.
     999903    2    3    3    0    0  0.65391673063E-01 -0.10009129333E+00  0.58598561504E-01  0.14062095528E+00  0.45234099388E-01 0.  0.
         14    1    1    2    0    0 -0.75456077217E-02 -0.88686113689E-02  0.44611551200E-02  0.12469577720E-01  0.00000000000E+00 0.  1.
     999901    1    3    3    0    0 -0.57846065341E-01  0.10895990470E+00 -0.63059716624E-01  0.89083946700E+00  0.88000000000E+00 0.  1.
        -11    1    4    4    0    0 -0.63125673032E-02 -0.16104855818E-01  0.61492269271E-02  0.18365429471E-01  0.51100000000E-03 0. -1.
         11    1    4    4    0    0  0.71704240366E-01 -0.83986437509E-01  0.52449334577E-01  0.12225552581E+00  0.51100000000E-03 0.  1.
</event>
<event>
 8    1  0.2929965E+004  0.1043930E+01  0.7957747E-01            NaN
         13   -1    0    0    0    0  0.00000000000E+00  0.00000000000E+00  0.74505805969E-08  0.10566000000E+00  0.10566000000E+00 0.  1.
     999900   -1    0    0    0    0 -0.00000000000E+00 -0.00000000000E+00 -0.74505805969E-08  0.93827000000E+00  0.93827000000E+00 0. -1.
     999902    2    1    2    0    0  0.71481583236E-02  0.11585116907E-01 -0.20709647165E-02  0.10301604686E+01  0.10300684400E+01 0.  0.
     999903    2    3    3    0    0  0.31716198915E-01 -0.72248957420E-01  0.10445006902E+00  0.13944251586E+00  0.48047572138E-01 0.  0.
         14    1    1    2    0    0 -0.71481583236E-02 -0.11585116907E-01  0.20709647165E-02  0.13769531438E-01  0.00000000000E+00 0.  1.
     999901    1    3    3    0    0 -0.24568040591E-01  0.83834074327E-01 -0.10652103374E+00  0.89071795270E+00  0.88000000000E+00 0. -1.
        -11    1    4    4    0    0  0.21767252868E-01 -0.35448264883E-01  0.89118229924E-01  0.98349950719E-01  0.51100000000E-03 0.  1.
         11    1    4    4    0    0  0.99489460471E-02 -0.36800692537E-01  0.15331839099E-01  0.41092565140E-01  0.51100000000E-03 0. -1.
</event>
<event>
 8    1  0.2929965E+004  0.1043930E+01  0.7957747E-01            NaN
         13   -1    0    0    0    0  0.00000000000E+00  0.00000000000E+00  0.74505805969E-08  0.10566000000E+00  0.10566000000E+00 0. -1.
     999900   -1    0    0    0    0 -0.00000000000E+00 -0.00000000000E+00 -0.74505805969E-08  0.93827000000E+00  0.93827000000E+00 0.  1.
     999902    2    1    2    0    0 -0.56832099816E-02 -0.12778061317E-01 -0.11129383546E-02  0.10299008746E+01  0.10298053191E+01 0.  0.
     999903    2    3    3    0    0 -0.12877662353E-01  0.89074707088E-01  0.95395028382E-01  0.13875580551E+00  0.45308106265E-01 0.  0.
         14    1    1    2    0    0  0.56832099816E-02  0.12778061317E-01  0.11129383546E-02  0.14029125365E-01  0.00000000000E+00 0. -1.
     999901    1    3    3    0    0  0.71944523718E-02 -0.10185276840E+00 -0.96507966736E-01  0.89114506912E+00  0.88000000000E+00 0. -1.
        -11    1    4    4    0    0  0.15056287358E-01  0.45605438809E-01  0.35964026896E-01  0.60001834885E-01  0.51100000000E-03 0.  1.
         11    1    4    4    0    0 -0.27933949712E-01  0.43469268279E-01  0.59431001486E-01  0.78753970629E-01  0.51100000000E-03 0. -1.
</event>
<event>
 8    1  0.2929965E+004  0.1043930E+01  0.7957747E-01            NaN
         13   -1    0    0    0    0  0.00000000000E+00  0.00000000000E+00  0.74505805969E-08  0.10566000000E+00  0.10566000000E+00 0. -1.
     999900   -1    0    0    0    0 -0.00000000000E+00 -0.00000000000E+00 -0.74505805969E-08  0.93827000000E+00  0.93827000000E+00 0. -1.
     999902    2    1    2    0    0  0.26643978121E-02 -0.10850199250E-01  0.88779491587E-02  0.10296596174E+01  0.10295607237E+01 0.  0.
     999903    2    3    3    0    0 -0.11410003152E+00 -0.17085381596E-01  0.65574291016E-01  0.14011631620E+00  0.44965175042E-01 0.  0.
         14    1    1    2    0    0 -0.26643978121E-02  0.10850199250E-01 -0.88779491587E-02  0.14270382642E-01  0.00000000000E+00 0.  1.
     999901    1    3    3    0    0  0.11676442933E+00  0.62351823460E-02 -0.56696341857E-01  0.88954330116E+00  0.88000000000E+00 0.  1.
        -11    1    4    4    0    0 -0.24371858340E-01 -0.18847644867E-01  0.35396189686E-02  0.31016305702E-01  0.51100000000E-03 0.  1.
         11    1    4    4    0    0 -0.89728173178E-01  0.17622632701E-02  0.62034672047E-01  0.10910001050E+00  0.51100000000E-03 0. -1.
</event>
<event>
 8    1  0.2929965E+004  0.1043930E+01  0.7957747E-01            NaN
         13   -1    0    0    0    0  0.00000000000E+00  0.00000000000E+00  0.74505805969E-08  0.10566000000E+00  0.10566000000E+00 0.  1.
     999900   -1    0    0    0    0 -0.00000000000E+00 -0.00000000000E+00 -0.74505805969E-08  0.93827000000E+00  0.93827000000E+00 0. -1.
     999902    2    1    2    0    0  0.11563738387E-01 -0.36378357076E-02  0.47762538769E-02  0.10309005528E+01  0.10308182105E+01 0.  0.
     999903    2    3    3    0    0  0.26065419751E-01 -0.12265764912E+00 -0.47016701697E-01  0.14126100497E+00  0.44942143836E-01 0.  0.
         14    1    1    2    0    0 -0.11563738387E-01  0.36378357076E-02 -0.47762538769E-02  0.13029447234E-01  0.00000000000E+00 0.  1.
     999901    1    3    3    0    0 -0.14501681364E-01  0.11901981342E+00  0.51792955574E-01  0.88963954779E+00  0.88000000000E+00 0.  1.
        -11    1    4    4    0    0  0.38214660084E-01 -0.77127474548E-01 -0.30896127985E-01  0.91454029004E-01  0.51100000000E-03 0.  1.
         11    1    4    4    0    0 -0.12149240333E-01 -0.45530174575E-01 -0.16120573712E-01  0.49806975970E-01  0.51100000000E-03 0. -1.
</event>
<event>
 8    1  0.2929965E+004  0.1043930E+01  0.7957747E-01            NaN
         13   -1    0    0    0    0  0.00000000000E+00  0.00000000000E+00  0.74505805969E-08  0.10566000000E+00  0.10566000000E+00 0.  1.
     999900   -1    0    0    0    0 -0.00000000000E+00 -0.00000000000E+00 -0.74505805969E-08  0.93827000000E+00  0.93827000000E+00 0.  1.
     999902    2    1    2    0    0  0.12341948921E-01  0.70350268854E-02 -0.78903182228E-03  0.10297019335E+01  0.10296036295E+01 0.  0.
     999903    2    3    3    0    0  0.70556238270E-01 -0.20372852039E-01  0.11103944257E+00  0.14029443236E+00  0.44266624989E-01 0.  0.
         14    1    1    2    0    0 -0.12341948921E-01 -0.70350268854E-02  0.78903182228E-03  0.14228066547E-01  0.00000000000E+00 0. -1.
     999901    1    3    3    0    0 -0.58214289349E-01  0.27407878924E-01 -0.11182847439E+00  0.88940750109E+00  0.88000000000E+00 0.  1.
        -11    1    4    4    0    0  0.25087761992E-01 -0.18956545128E-01  0.77906329523E-01  0.84014306553E-01  0.51100000000E-03 0. -1.
         11    1    4    4    0    0  0.45468476278E-01 -0.14163069112E-02  0.33133113043E-01  0.56280125810E-01  0.51100000000E-03 0.  1.
</event>
<event>
 8    1  0.2929965E+004  0.1043930E+01  0.7957747E-01            NaN
         13   -1    0    0    0    0  0.00000000000E+00  0.00000000000E+00  0.74505805969E-08  0.10566000000E+00  0.10566000000E+00 0.  1.
     999900   -1    0    0    0    0 -0.00000000000E+00 -0.00000000000E+00 -0.74505805969E-08  0.93827000000E+00  0.93827000000E+00 0.  1.
     999902    2    1    2    0    0 -0.13358486752E-01 -0.24688455844E-02 -0.24919204787E-02  0.10301186266E+01  0.10300260341E+01 0.  0.
     999903    2    3    3    0    0 -0.10302044605E+00  0.56787133636E-02 -0.85832329171E-01  0.14160792135E+00  0.45168070248E-01 0.  0.
         14    1    1    2    0    0  0.13358486752E-01  0.24688455844E-02  0.24919204787E-02  0.13811373375E-01  0.00000000000E+00 0. -1.
     999901    1    3    3    0    0  0.89661959296E-01 -0.81475589480E-02  0.83340408692E-01  0.88851070527E+00  0.88000000000E+00 0. -1.
        -11    1    4    4    0    0 -0.22514731229E-01  0.38501695291E-03 -0.46892200100E-01  0.52021158307E-01  0.51100000000E-03 0. -1.
         11    1    4    4    0    0 -0.80505714819E-01  0.52936964107E-02 -0.38940129071E-01  0.89586763047E-01  0.51100000000E-03 0.  1.
</event>
<event>
 8    1  0.2929965E+004  0.1043930E+01  0.7957747E-01            NaN
         13   -1    0    0    0    0  0.00000000000E+00  0.00000000000E+00  0.74505805969E-08  0.10566000000E+00  0.10566000000E+00 0. -1.
     999900   -1    0    0    0    0 -0.00000000000E+00 -0.00000000000E+00 -0.74505805969E-08  0.93827000000E+00  0.93827000000E+00 0. -1.
     999902    2    1    2    0    0  0.60224550842E-02  0.33865026692E-02  0.12328510074E-01  0.10297973949E+01  0.10297004147E+01 0.  0.
     999903    2    3    3    0    0  0.94300037729E-01 -0.90627395856E-01 -0.19918969212E-01  0.13981343741E+00  0.45223997507E-01 0.  0.
         14    1    1    2    0    0 -0.60224550842E-02 -0.33865026692E-02 -0.12328510074E-01  0.14132605075E-01  0.00000000000E+00 0.  1.
     999901    1    3    3    0    0 -0.88277582645E-01  0.94013898525E-01  0.32247479285E-01  0.88998395751E+00  0.88000000000E+00 0.  1.
        -11    1    4    4    0    0  0.41882633179E-01 -0.29263086223E-01  0.12885835252E-01  0.52695246925E-01  0.51100000000E-03 0.  1.
         11    1    4    4    0    0  0.52417404550E-01 -0.61364309633E-01 -0.32804804464E-01  0.87118190485E-01  0.51100000000E-03 0. -1.
</event>
<event>
 8    1  0.2929965E+004  0.1043930E+01  0.7957747E-01            NaN
         13   -1    0    0    0    0  0.00000000000E+00  0.00000000000E+00  0.74505805969E-08  0.10566000000E+00  0.10566000000E+00 0. -1.
     999900   -1    0    0    0    0 -0.00000000000E+00 -0.00000000000E+00 -0.74505805969E-08  0.93827000000E+00  0.93827000000E+00 0. -1.
     999902    2    1    2    0    0 -0.96058828631E-02 -0.11198650479E-01 -0.66118168539E-02  0.10277621653E+01  0.10276349884E+01 0.  0.
     999903    2    3    3    0    0  0.96408344812E-01 -0.16722049721E-01  0.78920664581E-01  0.13726492787E+00  0.55127064405E-01 0.  0.
         14    1    1    2    0    0  0.96058828631E-02  0.11198650479E-01  0.66118168539E-02  0.16167834742E-01  0.00000000000E+00 0. -1.
     999901    1    3    3    0    0 -0.10601422768E+00  0.55233992416E-02 -0.85532481435E-01  0.89049723738E+00  0.88000000000E+00 0. -1.
        -11    1    4    4    0    0  0.57208971713E-01 -0.18745261463E-01  0.14660170105E-01  0.61963158250E-01  0.51100000000E-03 0. -1.
         11    1    4    4    0    0  0.39199373100E-01  0.20232117425E-02  0.64260494476E-01  0.75301769624E-01  0.51100000000E-03 0.  1.
</event>
<event>
 8    1  0.2929965E+004  0.1043930E+01  0.7957747E-01            NaN
         13   -1    0    0    0    0  0.00000000000E+00  0.00000000000E+00  0.74505805969E-08  0.10566000000E+00  0.10566000000E+00 0. -1.
     999900   -1    0    0    0    0 -0.00000000000E+00 -0.00000000000E+00 -0.74505805969E-08  0.93827000000E+00  0.93827000000E+00 0. -1.
     999902    2    1    2    0    0 -0.10181156977E-01  0.94376147610E-02  0.25331260902E-02  0.10298182582E+01  0.10297215661E+01 0.  0.
     999903    2    3    3    0    0  0.67010357113E-01 -0.10462699360E+00  0.41057109897E-01  0.13827276743E+00  0.44681944779E-01 0.  0.
         14    1    1    2    0    0  0.10181156977E-01 -0.94376147610E-02 -0.25331260902E-02  0.14111741833E-01  0.00000000000E+00 0.  1.
     999901    1    3    3    0    0 -0.77191514091E-01  0.11406460836E+00 -0.38523983807E-01  0.89154549074E+00  0.88000000000E+00 0. -1.
        -11    1    4    4    0    0  0.66738972275E-01 -0.67589082270E-01  0.28913901863E-01  0.99290731211E-01  0.51100000000E-03 0.  1.
         11    1    4    4    0    0  0.27138483825E-03 -0.37037911328E-01  0.12143208034E-01  0.38982036217E-01  0.51100000000E-03 0. -1.
</event>
<event>
 8    1  0.2929965E+004  0.1043930E+01  0.7957747E-01            NaN
         13   -1    0    0    0    0  0.00000000000E+00  0.00000000000E+00  0.74505805969E-08  0.10566000000E+00  0.10566000000E+00 0.  1.
     999900   -1    0    0    0    0 -0.00000000000E+00 -0.00000000000E+00 -0.74505805969E-08  0.93827000000E+00  0.93827000000E+00 0. -1.
     999902    2    1    2    0    0 -0.20922672600E-02 -0.13314508916E-01  0.21345326799E-02  0.10302841230E+01  0.10301937508E+01 0.  0.
     999903    2    3    3    0    0 -0.67099544611E-01 -0.76910174664E-02 -0.11420656168E+00  0.14023197844E+00  0.45391281195E-01 0.  0.
         14    1    1    2    0    0  0.20922672600E-02  0.13314508916E-01 -0.21345326799E-02  0.13645877023E-01  0.00000000000E+00 0.  1.
     999901    1    3    3    0    0  0.65007277351E-01 -0.56234914493E-02  0.11634109436E+00  0.89005214454E+00  0.88000000000E+00 0. -1.
        -11    1    4    4    0    0 -0.54832026534E-01  0.99903423887E-02 -0.59930801166E-01  0.81843265601E-01  0.51100000000E-03 0.  1.
         11    1    4    4    0    0 -0.12267518077E-01 -0.17681359855E-01 -0.54275760515E-01  0.58388712835E-01  0.51100000000E-03 0. -1.
</event>
<event>
 8    1  0.2929965E+004  0.1043930E+01  0.7957747E-01            NaN
         13   -1    0    0    0    0  0.00000000000E+00  0.00000000000E+00  0.74505805969E-08  0.10566000000E+00  0.10566000000E+00 0.  1.
     999900   -1    0    0    0    0 -0.00000000000E+00 -0.00000000000E+00 -0.74505805969E-08  0.93827000000E+00  0.93827000000E+00 0. -1.
     999902    2    1    2    0    0  0.22752755262E-02 -0.10242442973E-01  0.89723540709E-02  0.10301246512E+01  0.10300321400E+01 0.  0.
     999903    2    3    3    0    0  0.79454911393E-01 -0.55493061472E-01 -0.90400338291E-01  0.14002395657E+00  0.45187657986E-01 0.  0.
         14    1    1    2    0    0 -0.22752755262E-02  0.10242442973E-01 -0.89723540709E-02  0.13805348759E-01  0.00000000000E+00 0. -1.
     999901    1    3    3    0    0 -0.77179635867E-01  0.45250618498E-01  0.99372692362E-01  0.89010069467E+00  0.88000000000E+00 0.  1.
        -11    1    4    4    0    0  0.98239563544E-02 -0.11962128264E-01 -0.41854588546E-01  0.44628133889E-01  0.51100000000E-03 0. -1.
         11    1    4    4    0    0  0.69630955039E-01 -0.43530933208E-01 -0.48545749745E-01  0.95395822681E-01  0.51100000000E-03 0.  1.
</event>
<event>
 8    1  0.2929965E+004  0.1043930E+01  0.7957747E-01            NaN
         13   -1    0    0    0    0  0.00000000000E+00  0.00000000000E+00  0.74505805969E-08  0.10566000000E+00  0.10566000000E+00 0.  1.
     999900   -1    0    0    0    0 -0.00000000000E+00 -0.00000000000E+00 -0.74505805969E-08  0.93827000000E+00  0.93827000000E+00 0. -1.
     999902    2    1    2    0    0 -0.20382660236E-02  0.11707886668E-01  0.65666777985E-02  0.10303524304E+01  0.10302629667E+01 0.  0.
     999903    2    3    3    0    0 -0.23142740318E-01 -0.12728504353E+00  0.14656318682E-01  0.13915667427E+00  0.49119279101E-01 0.  0.
         14    1    1    2    0    0  0.20382660236E-02 -0.11707886668E-01 -0.65666777985E-02  0.13577569589E-01  0.00000000000E+00 0. -1.
     999901    1    3    3    0    0  0.21104474294E-01  0.13899293020E+00 -0.80896408836E-02  0.89119575614E+00  0.88000000000E+00 0. -1.
        -11    1    4    4    0    0 -0.25319240303E-01 -0.97357011998E-01  0.30633119608E-01  0.10515750498E+00  0.51100000000E-03 0.  1.
         11    1    4    4    0    0  0.21764999853E-02 -0.29928031534E-01 -0.15976800926E-01  0.33999169291E-01  0.51100000000E-03 0. -1.
</event>
<event>
 8    1  0.2929965E+004  0.1043930E+01  0.7957747E-01            NaN
         13   -1    0    0    0    0  0.00000000000E+00  0.00000000000E+00  0.74505805969E-08  0.10566000000E+00  0.10566000000E+00 0.  1.
     999900   -1    0    0    0    0 -0.00000000000E+00 -0.00000000000E+00 -0.74505805969E-08  0.93827000000E+00  0.93827000000E+00 0. -1.
     999902    2    1    2    0    0  0.63982787007E-03  0.13267389962E-01 -0.39873246752E-02  0.10300616268E+01  0.10299682633E+01 0.  0.
     999903    2    3    3    0    0 -0.91701820551E-01  0.91287852758E-01  0.35070477130E-01  0.14093864067E+00  0.43486389990E-01 0.  0.
         14    1    1    2    0    0 -0.63982787007E-03 -0.13267389962E-01  0.39873246752E-02  0.13868373162E-01  0.00000000000E+00 0. -1.
     999901    1    3    3    0    0  0.92341648421E-01 -0.78020462796E-01 -0.39057801805E-01  0.88912298617E+00  0.88000000000E+00 0. -1.
        -11    1    4    4    0    0 -0.48415599510E-01  0.64424399060E-01  0.39593282591E-01  0.89791216817E-01  0.51100000000E-03 0.  1.
         11    1    4    4    0    0 -0.43286221042E-01  0.26863453699E-01 -0.45228054612E-02  0.51147423854E-01  0.51100000000E-03 0. -1.
</event>
<event>
 8    1  0.2929965E+004  0.1043930E+01  0.7957747E-01            NaN
         13   -1    0    0    0    0  0.00000000000E+00  0.00000000000E+00  0.74505805969E-08  0.10566000000E+00  0.10566000000E+00 0. -1.
     999900   -1    0    0    0    0 -0.00000000000E+00 -0.00000000000E+00 -0.74505805969E-08  0.93827000000E+00  0.93827000000E+00 0.  1.
     999902    2    1    2    0    0 -0.43408983349E-02  0.35261809414E-02 -0.11440733418E-01  0.10311954905E+01  0.10311168566E+01 0.  0.
     999903    2    3    3    0    0 -0.79465284722E-01 -0.58627733116E-02 -0.10900193809E+00  0.14257295280E+00  0.45787779779E-01 0.  0.
         14    1    1    2    0    0  0.43408983349E-02 -0.35261809414E-02  0.11440733418E-01  0.12734509473E-01  0.00000000000E+00 0. -1.
     999901    1    3    3    0    0  0.75124386387E-01  0.93889542530E-02  0.97561204672E-01  0.88862253772E+00  0.88000000000E+00 0. -1.
        -11    1    4    4    0    0 -0.74244710820E-02 -0.16282878660E-01 -0.31603508256E-01  0.36322138750E-01  0.51100000000E-03 0. -1.
         11    1    4    4    0    0 -0.72040813639E-01  0.10420105349E-01 -0.77398429834E-01  0.10625081405E+00  0.51100000000E-03 0.  1.
</event>
<event>
 8    1  0.2929965E+004  0.1043930E+01  0.7957747E-01            NaN
         13   -1    0    0    0    0  0.00000000000E+00  0.00000000000E+00  0.74505805969E-08  0.10566000000E+00  0.10566000000E+00 0. -1.
     999900   -1    0    0    0    0 -0.00000000000E+00 -0.00000000000E+00 -0.74505805969E-08  0.93827000000E+00  0.93827000000E+00 0.  1.
     999902    2    1    2    0    0  0.15226837188E-02 -0.72609011740E-02  0.11725601360E-01  0.10300545188E+01  0.10299610588E+01 0.  0.
     999903    2    3    3    0    0 -0.10030982767E+00 -0.47076540397E-01 -0.71686945691E-01  0.13937343192E+00  0.44807065961E-01 0.  0.
         14    1    1    2    0    0 -0.15226837188E-02  0.72609011740E-02 -0.11725601360E-01  0.13875481210E-01  0.00000000000E+00 0.  1.
     999901    1    3    3    0    0  0.10183251139E+00  0.39815639223E-01  0.83412547051E-01  0.89068108687E+00  0.88000000000E+00 0. -1.
        -11    1    4    4    0    0 -0.21922573771E-01 -0.15319288344E-01  0.25049361688E-02  0.26866627297E-01  0.51100000000E-03 0.  1.
         11    1    4    4    0    0 -0.78387253897E-01 -0.31757252053E-01 -0.74191881860E-01  0.11250680462E+00  0.51100000000E-03 0. -1.
</event>
<event>
 8    1  0.2929965E+004  0.1043930E+01  0.7957747E-01            NaN
         13   -1    0    0    0    0  0.00000000000E+00  0.00000000000E+00  0.74505805969E-08  0.10566000000E+00  0.10566000000E+00 0.  1.
     999900   -1    0    0    0    0 -0.00000000000E+00 -0.00000000000E+00 -0.74505805969E-08  0.93827000000E+00  0.93827000000E+00 0. -1.
     999902    2    1    2    0    0 -0.14609559619E-01 -0.19233198949E-02 -0.50596532006E-02  0.10283499332E+01  0.10282319031E+01 0.  0.
     999903    2    3    3    0    0 -0.13144742297E+00  0.19455226751E-01  0.22269946588E-02  0.14034023514E+00  0.45094248423E-01 0.  0.
         14    1    1    2    0    0  0.14609559619E-01  0.19233198949E-02  0.50596532006E-02  0.15580066823E-01  0.00000000000E+00 0.  1.
     999901    1    3    3    0    0  0.11683786335E+00 -0.21378546646E-01 -0.72866478594E-02  0.88800969804E+00  0.88000000000E+00 0.  1.
        -11    1    4    4    0    0 -0.11257065063E+00  0.21196616551E-01 -0.13972843296E-01  0.11539908755E+00  0.51100000000E-03 0.  1.
         11    1    4    4    0    0 -0.18876772339E-01 -0.17413897996E-02  0.16199837955E-01  0.24941147591E-01  0.51100000000E-03 0. -1.
</event>
<event>
 8    1  0.2929965E+004  0.1043930E+01  0.7957747E-01            NaN
         13   -1    0    0    0    0  0.00000000000E+00  0.00000000000E+00  0.74505805969E-08  0.10566000000E+00  0.10566000000E+00 0. -1.
     999900   -1    0    0    0    0 -0.00000000000E+00 -0.00000000000E+00 -0.74505805969E-08  0.93827000000E+00  0.93827000000E+00 0. -1.
     999902    2    1    2    0    0 -0.22823258967E-02  0.40890156774E-02  0.13097305392E-01  0.10300207057E+01  0.10299267865E+01 0.  0.
     999903    2    3    3    0    0  0.16577509334E-01  0.11270237403E+00 -0.67123087608E-01  0.13952204397E+00  0.44544954113E-01 0.  0.
         14    1    1    2    0    0  0.22823258967E-02 -0.40890156774E-02 -0.13097305392E-01  0.13909294348E-01  0.00000000000E+00 0.  1.
     999901    1    3    3    0    0 -0.18859835231E-01 -0.10861335835E+00  0.80220393001E-01  0.89049866168E+00  0.88000000000E+00 0.  1.
        -11    1    4    4    0    0 -0.69503695208E-02  0.10304352812E-01 -0.21792074206E-01  0.25092687034E-01  0.51100000000E-03 0.  1.
         11    1    4    4    0    0  0.23527878855E-01  0.10239802122E+00 -0.45331013402E-01  0.11442935694E+00  0.51100000000E-03 0. -1.
</event>
<event>
 8    1  0.2929965E+004  0.1043930E+01  0.7957747E-01            NaN
         13   -1    0    0    0    0  0.00000000000E+00  0.00000000000E+00  0.74505805969E-08  0.10566000000E+00  0.10566000000E+00 0.  1.
     999900   -1    0    0    0    0 -0.00000000000E+00 -0.00000000000E+00 -0.74505805969E-08  0.93827000000E+00  0.93827000000E+00 0.  1.
     999902    2    1    2    0    0 -0.11540507389E-01 -0.86638756314E-02  0.57632913223E-02  0.10283909660E+01  0.10282735615E+01 0.  0.
     999903    2    3    3    0    0  0.30124070687E-01  0.84939305548E-01  0.94695486163E-01  0.13799418482E+00  0.44192925726E-01 0.  0.
         14    1    1    2    0    0  0.11540507389E-01  0.86638756314E-02 -0.57632913223E-02  0.15539034031E-01  0.00000000000E+00 0.  1.
     999901    1    3    3    0    0 -0.41664578075E-01 -0.93603181179E-01 -0.88932194840E-01  0.89039678114E+00  0.88000000000E+00 0. -1.
        -11    1    4    4    0    0 -0.11262482389E-01  0.16496363260E-01  0.24150659175E-01  0.31344680091E-01  0.51100000000E-03 0. -1.
         11    1    4    4    0    0  0.41386553076E-01  0.68442942287E-01  0.70544826987E-01  0.10664950473E+00  0.51100000000E-03 0.  1.
</event>
<event>
 8    1  0.2929965E+004  0.1043930E+01  0.7957747E-01            NaN
         13   -1    0    0    0    0  0.00000000000E+00  0.00000000000E+00  0.74505805969E-08  0.10566000000E+00  0.10566000000E+00 0.  1.
     999900   -1    0    0    0    0 -0.00000000000E+00 -0.00000000000E+00 -0.74505805969E-08  0.93827000000E+00  0.93827000000E+00 0.  1.
     999902    2    1    2    0    0 -0.17458248777E-01 -0.27883422935E-02  0.20181825580E-01  0.10170995809E+01  0.10167456349E+01 0.  0.
     999903    2    3    3    0    0 -0.96933634631E-01  0.86435888961E-02 -0.70603631102E-01  0.12879275042E+00  0.46172055227E-01 0.  0.
         14    1    1    2    0    0  0.17458248777E-01  0.27883422935E-02 -0.20181825580E-01  0.26830419058E-01  0.00000000000E+00 0. -1.
     999901    1    3    3    0    0  0.79475385855E-01 -0.11431931190E-01  0.90785456682E-01  0.88830683052E+00  0.88000000000E+00 0. -1.
        -11    1    4    4    0    0 -0.22852726769E-01 -0.16497427051E-01 -0.10287629291E-01  0.30008476428E-01  0.51100000000E-03 0. -1.
         11    1    4    4    0    0 -0.74080907863E-01  0.25141015947E-01 -0.60316001811E-01  0.98784273992E-01  0.51100000000E-03 0.  1.
</event>
<event>
 8    1  0.2929965E+004  0.1043930E+01  0.7957747E-01            NaN
         13   -1    0    0    0    0  0.00000000000E+00  0.00000000000E+00  0.74505805969E-08  0.10566000000E+00  0.10566000000E+00 0.  1.
     999900   -1    0    0    0    0 -0.00000000000E+00 -0.00000000000E+00 -0.74505805969E-08  0.93827000000E+00  0.93827000000E+00 0. -1.
     999902    2    1    2    0    0  0.11387819565E-01 -0.34723910640E-02  0.92515792431E-02  0.10288524786E+01  0.10287419944E+01 0.  0.
     999903    2    3    3    0    0 -0.11250314742E-01 -0.61040736936E-01  0.11735778175E+00  0.14008166976E+00  0.44693222266E-01 0.  0.
         14    1    1    2    0    0 -0.11387819565E-01  0.34723910640E-02 -0.92515792431E-02  0.15077521435E-01  0.00000000000E+00 0. -1.
     999901    1    3    3    0    0  0.22638134306E-01  0.57568345872E-01 -0.10810620251E+00  0.88877080881E+00  0.88000000000E+00 0. -1.
        -11    1    4    4    0    0 -0.39774205523E-02 -0.92632227294E-02  0.66077915455E-01  0.66844440318E-01  0.51100000000E-03 0.  1.
         11    1    4    4    0    0 -0.72728941894E-02 -0.51777514207E-01  0.51279866296E-01  0.73237229437E-01  0.51100000000E-03 0. -1.
</event>
<event>
 8    1  0.2929965E+004  0.1043930E+01  0.7957747E-01            NaN
         13   -1    0    0    0    0  0.00000000000E+00  0.00000000000E+00  0.74505805969E-08  0.10566000000E+00  0.10566000000E+00 0.  1.
     999900   -1    0    0    0    0 -0.00000000000E+00 -0.00000000000E+00 -0.74505805969E-08  0.93827000000E+00  0.93827000000E+00 0. -1.
     999902    2    1    2    0    0 -0.11987378867E-01 -0.31283666899E-03  0.66151622816E-02  0.10302349100E+01  0.10301438804E+01 0.  0.
     999903    2    3    3    0    0 -0.12607809046E+00 -0.90929436936E-02  0.46464004613E-01  0.14193219637E+00  0.44804889494E-01 0.  0.
         14    1    1    2    0    0  0.11987378867E-01  0.31283666899E-03 -0.66151622816E-02  0.13695090028E-01  0.00000000000E+00 0.  1.
     999901    1    3    3    0    0  0.11409071160E+00  0.87801070246E-02 -0.39848842331E-01  0.88830271360E+00  0.88000000000E+00 0. -1.
        -11    1    4    4    0    0 -0.77130252259E-01  0.15122201748E-01  0.19291122605E-01  0.80933091697E-01  0.51100000000E-03 0.  1.
         11    1    4    4    0    0 -0.48947838204E-01 -0.24215145442E-01  0.27172882008E-01  0.60999104676E-01  0.51100000000E-03 0. -1.
</event>
<event>
 8    1  0.2929965E+004  0.1043930E+01  0.7957747E-01            NaN
         13   -1    0    0    0    0  0.00000000000E+00  0.00000000000E+00  0.74505805969E-08  0.10566000000E+00  0.10566000000E+00 0. -1.
     999900   -1    0    0    0    0 -0.00000000000E+00 -0.00000000000E+00 -0.74505805969E-08  0.93827000000E+00  0.93827000000E+00 0.  1.
     999902    2    1    2    0    0  0.46333719590E-02 -0.13852964921E-02 -0.14188692447E-01  0.10289397974E+01  0.10288305985E+01 0.  0.
     999903    2    3    3    0    0  0.96993720923E-01  0.44183342082E-01 -0.78608719504E-01  0.14059477723E+00  0.47197573958E-01 0.  0.
         14    1    1    2    0    0 -0.46333719590E-02  0.13852964921E-02  0.14188692447E-01  0.14990202648E-01  0.00000000000E+00 0. -1.
     999901    1    3    3    0    0 -0.92360348964E-01 -0.45568638574E-01  0.64420027058E-01  0.88834502012E+00  0.88000000000E+00 0. -1.
        -11    1    4    4    0    0  0.66330791862E-01  0.51030305649E-01 -0.46819546342E-01  0.95896804349E-01  0.51100000000E-03 0. -1.
         11    1    4    4    0    0  0.30662929060E-01 -0.68469635678E-02 -0.31789173163E-01  0.44697972885E-01  0.51100000000E-03 0.  1.
</event>
<event>
 8    1  0.2929965E+004  0.1043930E+01  0.7957747E-01            NaN
         13   -1    0    0    0    0  0.00000000000E+00  0.00000000000E+00  0.74505805969E-08  0.10566000000E+00  0.10566000000E+00 0.  1.
     999900   -1    0    0    0    0 -0.00000000000E+00 -0.00000000000E+00 -0.74505805969E-08  0.93827000000E+00  0.93827000000E+00 0.  1.
     999902    2    1    2    0    0  0.13666704884E-02  0.83235378315E-02  0.13039265008E-01  0.10284003026E+01  0.10282830402E+01 0.  0.
     999903    2    3    3    0    0 -0.10771120428E+00  0.58016339793E-01 -0.43931993710E-01  0.13844913444E+00  0.47650220848E-01 0.  0.
         14    1    1    2    0    0 -0.13666704884E-02 -0.83235378315E-02 -0.13039265008E-01  0.15529697428E-01  0.00000000000E+00 0. -1.
     999901    1    3    3    0    0  0.10907787477E+00 -0.49692801961E-01  0.56971258718E-01  0.88995116813E+00  0.88000000000E+00 0. -1.
        -11    1    4    4    0    0 -0.63852325085E-01  0.48773849888E-01 -0.47738956147E-01  0.93462703292E-01  0.51100000000E-03 0. -1.
         11    1    4    4    0    0 -0.43858879195E-01  0.92424899047E-02  0.38069624372E-02  0.44986431153E-01  0.51100000000E-03 0.  1.
</event>
<event>
 8    1  0.2929965E+004  0.1043930E+01  0.7957747E-01            NaN
         13   -1    0    0    0    0  0.00000000000E+00  0.00000000000E+00  0.74505805969E-08  0.10566000000E+00  0.10566000000E+00 0. -1.
     999900   -1    0    0    0    0 -0.00000000000E+00 -0.00000000000E+00 -0.74505805969E-08  0.93827000000E+00  0.93827000000E+00 0. -1.
     999902    2    1    2    0    0 -0.67191110642E-02  0.23090849568E-02 -0.11085412962E-01  0.10307631968E+01  0.10306790980E+01 0.  0.
     999903    2    3    3    0    0  0.23035748286E-01 -0.91133327879E-01 -0.95510098530E-01  0.14130023312E+00  0.44806783062E-01 0.  0.
         14    1    1    2    0    0  0.67191110642E-02 -0.23090849568E-02  0.11085412962E-01  0.13166803232E-01  0.00000000000E+00 0. -1.
     999901    1    3    3    0    0 -0.29754859351E-01  0.93442412836E-01  0.84424685568E-01  0.88946296365E+00  0.88000000000E+00 0.  1.
        -11    1    4    4    0    0  0.39903495754E-03 -0.56394449641E-01 -0.78082163355E-01  0.96320187574E-01  0.51100000000E-03 0.  1.
         11    1    4    4    0    0  0.22636713329E-01 -0.34738878239E-01 -0.17427935175E-01  0.44980045543E-01  0.51100000000E-03 0. -1.
</event>
<event>
 8    1  0.2929965E+004  0.1043930E+01  0.7957747E-01            NaN
         13   -1    0    0    0    0  0.00000000000E+00  0.00000000000E+00  0.74505805969E-08  0.10566000000E+00  0.10566000000E+00 0. -1.
     999900   -1    0    0    0    0 -0.00000000000E+00 -0.00000000000E+00 -0.74505805969E-08  0.93827000000E+00  0.93827000000E+00 0.  1.
     999902    2    1    2    0    0 -0.74605742474E-02  0.10591123374E-01 -0.54711179015E-02  0.10298670987E+01  0.10297710793E+01 0.  0.
     999903    2    3    3    0    0 -0.63452159737E-01 -0.98217585522E-01  0.60300937161E-01  0.13896847594E+00  0.44756715710E-01 0.  0.
         14    1    1    2    0    0  0.74605742474E-02 -0.10591123374E-01  0.54711179015E-02  0.14062901319E-01  0.00000000000E+00 0.  1.
     999901    1    3    3    0    0  0.55991585489E-01  0.10880870890E+00 -0.65772055063E-01  0.89089862274E+00  0.88000000000E+00 0.  1.
        -11    1    4    4    0    0 -0.29828187026E-01 -0.78152163547E-01  0.28024928832E-01  0.88222101343E-01  0.51100000000E-03 0.  1.
         11    1    4    4    0    0 -0.33623972710E-01 -0.20065421974E-01  0.32276008330E-01  0.50746374595E-01  0.51100000000E-03 0. -1.
</event>
<event>
 8    1  0.2929965E+004  0.1043930E+01  0.7957747E-01            NaN
         13   -1    0    0    0    0  0.00000000000E+00  0.00000000000E+00  0.74505805969E-08  0.10566000000E+00  0.10566000000E+00 0. -1.
     999900   -1    0    0    0    0 -0.00000000000E+00 -0.00000000000E+00 -0.74505805969E-08  0.93827000000E+00  0.93827000000E+00 0. -1.
     999902    2    1    2    0    0  0.92208482864E-02  0.57721994684E-02 -0.70760422138E-02  0.10309526080E+01  0.10308709266E+01 0.  0.
     999903    2    3    3    0    0 -0.13453617353E-01  0.27019229569E-01 -0.13087103882E+00  0.14174466333E+00  0.45313156955E-01 0.  0.
         14    1    1    2    0    0 -0.92208482864E-02 -0.57721994684E-02  0.70760422138E-02  0.12977392004E-01  0.00000000000E+00 0. -1.
     999901    1    3    3    0    0  0.22674465640E-01 -0.21247030101E-01  0.12379499661E+00  0.88920794467E+00  0.88000000000E+00 0.  1.
        -11    1    4    4    0    0 -0.14013144858E-01  0.33009028671E-01 -0.13088237162E+00  0.13570711302E+00  0.51100000000E-03 0.  1.
         11    1    4    4    0    0  0.55952750446E-03 -0.59897991014E-02  0.11332796063E-04  0.60375503091E-02  0.51100000000E-03 0. -1.
</event>
<event>
 8    1  0.2929965E+004  0.1043930E+01  0.7957747E-01            NaN
         13   -1    0    0    0    0  0.00000000000E+00  0.00000000000E+00  0.74505805969E-08  0.10566000000E+00  0.10566000000E+00 0.  1.
     999900   -1    0    0    0    0 -0.00000000000E+00 -0.00000000000E+00 -0.74505805969E-08  0.93827000000E+00  0.93827000000E+00 0. -1.
     999902    2    1    2    0    0  0.25435594092E-02 -0.13247955398E-01 -0.30438291626E-02  0.10301009396E+01  0.10300081081E+01 0.  0.
     999903    2    3    3    0    0 -0.38468744263E-01  0.33995111436E-01 -0.12197596756E+00  0.13989940622E+00  0.45367337497E-01 0.  0.
         14    1    1    2    0    0 -0.25435594092E-02  0.13247955398E-01  0.30438291626E-02  0.13829060440E-01  0.00000000000E+00 0.  1.
     999901    1    3    3    0    0  0.41012303673E-01 -0.47243066834E-01  0.11893213840E+00  0.89020153334E+00  0.88000000000E+00 0.  1.
        -11    1    4    4    0    0 -0.39922679869E-01  0.10164654546E-01 -0.54485128605E-01  0.68308351832E-01  0.51100000000E-03 0.  1.
         11    1    4    4    0    0  0.14539356061E-02  0.23830456890E-01 -0.67490838956E-01  0.71591054388E-01  0.51100000000E-03 0. -1.
</event>
<event>
 8    1  0.2929965E+004  0.1043930E+01  0.7957747E-01            NaN
         13   -1    0    0    0    0  0.00000000000E+00  0.00000000000E+00  0.74505805969E-08  0.10566000000E+00  0.10566000000E+00 0.  1.
     999900   -1    0    0    0    0 -0.00000000000E+00 -0.00000000000E+00 -0.74505805969E-08  0.93827000000E+00  0.93827000000E+00 0.  1.
     999902    2    1    2    0    0 -0.13473526769E-01  0.33353442215E-02  0.35452822888E-02  0.10296041677E+01  0.10295044986E+01 0.  0.
     999903    2    3    3    0    0  0.22818452648E-01  0.11611721299E-02 -0.12942450751E+00  0.13887255840E+00  0.44864844055E-01 0.  0.
         14    1    1    2    0    0  0.13473526769E-01 -0.33353442215E-02 -0.35452822888E-02  0.14325832303E-01  0.00000000000E+00 0.  1.
     999901    1    3    3    0    0 -0.36291979417E-01  0.21741720916E-02  0.13296978980E+00  0.89073160929E+00  0.88000000000E+00 0. -1.
        -11    1    4    4    0    0  0.20614882847E-01 -0.20155808612E-01 -0.70450857613E-01  0.76123678806E-01  0.51100000000E-03 0. -1.
         11    1    4    4    0    0  0.22035698011E-02  0.21316980742E-01 -0.58973649895E-01  0.62748879598E-01  0.51100000000E-03 0.  1.
</event>
<event>
 8    1  0.2929965E+004  0.1043930E+01  0.7957747E-01            NaN
         13   -1    0    0    0    0  0.00000000000E+00  0.00000000000E+00  0.74505805969E-08  0.10566000000E+00  0.10566000000E+00 0. -1.
     999900   -1    0    0    0    0 -0.00000000000E+00 -0.00000000000E+00 -0.74505805969E-08  0.93827000000E+00  0.93827000000E+00 0.  1.
     999902    2    1    2    0    0  0.46513935746E-02  0.91759865913E-02 -0.87531035875E-02  0.10304225571E+01  0.10303340211E+01 0.  0.
     999903    2    3    3    0    0  0.51029209087E-01 -0.11702624263E+00  0.23034490288E-01  0.13964292351E+00  0.51676268256E-01 0.  0.
         14    1    1    2    0    0 -0.46513935746E-02 -0.91759865913E-02  0.87531035875E-02  0.13507442931E-01  0.00000000000E+00 0. -1.
     999901    1    3    3    0    0 -0.46377815512E-01  0.12620222922E+00 -0.31787593876E-01  0.89077963355E+00  0.88000000000E+00 0.  1.
        -11    1    4    4    0    0  0.25183920632E-01 -0.18997360889E-01  0.21631430323E-01  0.38253228333E-01  0.51100000000E-03 0. -1.
         11    1    4    4    0    0  0.25845288455E-01 -0.98028881741E-01  0.14030599655E-02  0.10138969518E+00  0.51100000000E-03 0.  1.
</event>
<event>
 8    1  0.2929965E+004  0.1043930E+01  0.7957747E-01            NaN
         13   -1    0    0    0    0  0.00000000000E+00  0.00000000000E+00  0.74505805969E-08  0.10566000000E+00  0.10566000000E+00 0. -1.
     999900   -1    0    0    0    0 -0.00000000000E+00 -0.00000000000E+00 -0.74505805969E-08  0.93827000000E+00  0.93827000000E+00 0.  1.
     999902    2    1    2    0    0 -0.67992389613E-02  0.10671718110E-01 -0.28252462340E-02  0.10309647683E+01  0.10308832408E+01 0.  0.
     999903    2    3    3    0    0  0.45810957152E-01  0.36354479436E-01  0.12135320536E+00  0.14032021244E+00  0.39279378793E-01 0.  0.
         14    1    1    2    0    0  0.67992389613E-02 -0.10671718110E-01  0.28252462340E-02  0.12965231743E-01  0.00000000000E+00 0. -1.
     999901    1    3    3    0    0 -0.52610196113E-01 -0.25682761326E-01 -0.12417845159E+00  0.89064455582E+00  0.88000000000E+00 0.  1.
        -11    1    4    4    0    0  0.33404709808E-01  0.22724287792E-01  0.11313529370E+00  0.12013377416E+00  0.51100000000E-03 0. -1.
         11    1    4    4    0    0  0.12406247344E-01  0.13630191644E-01  0.82179116630E-02  0.20186438282E-01  0.51100000000E-03 0.  1.
</event>
<event>
 8    1  0.2929965E+004  0.1043930E+01  0.7957747E-01            NaN
         13   -1    0    0    0    0  0.00000000000E+00  0.00000000000E+00  0.74505805969E-08  0.10566000000E+00  0.10566000000E+00 0.  1.
     999900   -1    0    0    0    0 -0.00000000000E+00 -0.00000000000E+00 -0.74505805969E-08  0.93827000000E+00  0.93827000000E+00 0. -1.
     999902    2    1    2    0    0  0.35946927722E-02  0.51308040280E-02  0.12743630937E-01  0.10297297502E+01  0.10296318329E+01 0.  0.
     999903    2    3    3    0    0  0.11531496367E+00 -0.58365820144E-01 -0.26837580071E-01  0.13951634177E+00  0.45171275262E-01 0.  0.
         14    1    1    2    0    0 -0.35946927722E-02 -0.51308040280E-02 -0.12743630937E-01  0.14200249841E-01  0.00000000000E+00 0. -1.
     999901    1    3    3    0    0 -0.11172027090E+00  0.63496624172E-01  0.39581211008E-01  0.89021340839E+00  0.88000000000E+00 0.  1.
        -11    1    4    4    0    0  0.63566593429E-01 -0.30190643500E-01  0.83792501775E-02  0.70870725336E-01  0.51100000000E-03 0.  1.
         11    1    4    4    0    0  0.51748370243E-01 -0.28175176644E-01 -0.35216830249E-01  0.68645616433E-01  0.51100000000E-03 0. -1.
</event>
<event>
 8    1  0.2929965E+004  0.1043930E+01  0.7957747E-01            NaN
         13   -1    0    0    0    0  0.00000000000E+00  0.00000000000E+00  0.74505805969E-08  0.10566000000E+00  0.10566000000E+00 0.  1.
     999900   -1    0    0    0    0 -0.00000000000E+00 -0.00000000000E+00 -0.74505805969E-08  0.93827000000E+00  0.93827000000E+00 0.  1.
     999902    2    1    2    0    0  0.13445189844E-01  0.37311322103E-02  0.33778089625E-02  0.10295736749E+01  0.10294735781E+01 0.  0.
     999903    2    3    3    0    0  0.11393762448E+00  0.64034371106E-01 -0.28419059391E-01  0.14123463438E+00  0.45358527937E-01 0.  0.
         14    1    1    2    0    0 -0.13445189844E-01 -0.37311322103E-02 -0.33778089625E-02  0.14356325118E-01  0.00000000000E+00 0. -1.
     999901    1    3    3    0    0 -0.10049243464E+00 -0.60303238896E-01  0.31796868353E-01  0.88833904050E+00  0.88000000000E+00 0. -1.
        -11    1    4    4    0    0  0.32360848569E-01  0.21820543596E-01  0.12064559137E-01  0.40855542477E-01  0.51100000000E-03 0.  1.
         11    1    4    4    0    0  0.81576775913E-01  0.42213827510E-01 -0.40483618528E-01  0.10037909190E+00  0.51100000000E-03 0. -1.
</event>
<event>
 8    1  0.2929965E+004  0.1043930E+01  0.7957747E-01            NaN
         13   -1    0    0    0    0  0.00000000000E+00  0.00000000000E+00  0.74505805969E-08  0.10566000000E+00  0.10566000000E+00 0.  1.
     999900   -1    0    0    0    0 -0.00000000000E+00 -0.00000000000E+00 -0.74505805969E-08  0.93827000000E+00  0.93827000000E+00 0. -1.
     999902    2    1    2    0    0 -0.71693063622E-02  0.69889787246E-02  0.88140500138E-02  0.10305908750E+01  0.10305045461E+01 0.  0.
     999903    2    3    3    0    0  0.11200332297E+00 -0.53037428973E-01  0.46081931803E-01  0.13975184343E+00  0.45269416547E-01 0.  0.
         14    1    1    2    0    0  0.71693063622E-02 -0.69889787246E-02 -0.88140500138E-02  0.13339124970E-01  0.00000000000E+00 0. -1.
     999901    1    3    3    0    0 -0.11917262934E+00  0.60026407698E-01 -0.37267881790E-01  0.89083903160E+00  0.88000000000E+00 0. -1.
        -11    1    4    4    0    0  0.28565405055E-01 -0.31338174160E-01  0.90215524693E-03  0.42416253143E-01  0.51100000000E-03 0.  1.
         11    1    4    4    0    0  0.83437917919E-01 -0.21699254814E-01  0.45179776556E-01  0.97335590289E-01  0.51100000000E-03 0. -1.
</event>
<event>
 8    1  0.2929965E+004  0.1043930E+01  0.7957747E-01            NaN
         13   -1    0    0    0    0  0.00000000000E+00  0.00000000000E+00  0.74505805969E-08  0.10566000000E+00  0.10566000000E+00 0. -1.
     999900   -1    0    0    0    0 -0.00000000000E+00 -0.00000000000E+00 -0.74505805969E-08  0.93827000000E+00  0.93827000000E+00 0.  1.
     999902    2    1    2    0    0 -0.85916858304E-02  0.58092842029E-02 -0.86000955386E-02  0.10304568233E+01  0.10303687389E+01 0.  0.
     999903    2    3    3    0    0 -0.97252848359E-01 -0.12320602403E-01 -0.92125019486E-01  0.14188161122E+00  0.45093886818E-01 0.  0.
         14    1    1    2    0    0  0.85916858304E-02 -0.58092842029E-02  0.86000955386E-02  0.13473176746E-01  0.00000000000E+00 0. -1.
     999901    1    3    3    0    0  0.88661162528E-01  0.18129886606E-01  0.83524923947E-01  0.88857521204E+00  0.88000000000E+00 0. -1.
        -11    1    4    4    0    0 -0.23940637692E-01  0.16550154203E-01 -0.25222487873E-01  0.38516188191E-01  0.51100000000E-03 0. -1.
         11    1    4    4    0    0 -0.73312210667E-01 -0.28870756606E-01 -0.66902531612E-01  0.10336542302E+00  0.51100000000E-03 0.  1.
</event>
<event>
 8    1  0.2929965E+004  0.1043930E+01  0.7957747E-01            NaN
         13   -1    0    0    0    0  0.00000000000E+00  0.00000000000E+00  0.74505805969E-08  0.10566000000E+00  0.10566000000E+00 0. -1.
     999900   -1    0    0    0    0 -0.00000000000E+00 -0.00000000000E+00 -0.74505805969E-08  0.93827000000E+00  0.93827000000E+00 0.  1.
     999902    2    1    2    0    0  0.37439076323E-02 -0.15555906071E-02 -0.12923697577E-01  0.10303853086E+01  0.10302962804E+01 0.  0.
     999903    2    3    3    0    0  0.58568887774E-01 -0.11000000838E+00  0.44975588089E-01  0.14015034102E+00  0.45705558802E-01 0.  0.
         14    1    1    2    0    0 -0.37439076323E-02  0.15555906071E-02  0.12923697577E-01  0.13544691416E-01  0.00000000000E+00 0. -1.
     999901    1    3    3    0    0 -0.54824980142E-01  0.10844441777E+00 -0.57899285666E-01  0.89023496756E+00  0.88000000000E+00 0.  1.
        -11    1    4    4    0    0  0.14877068275E-01 -0.15701072363E-01 -0.85287343395E-02  0.23256209155E-01  0.51100000000E-03 0. -1.
         11    1    4    4    0    0  0.43691819499E-01 -0.94298936016E-01  0.53504322429E-01  0.11689413186E+00  0.51100000000E-03 0.  1.
</event>
<event>
 8    1  0.2929965E+004  0.1043930E+01  0.7957747E-01            NaN
         13   -1    0    0    0    0  0.00000000000E+00  0.00000000000E+00  0.74505805969E-08  0.10566000000E+00  0.10566000000E+00 0. -1.
     999900   -1    0    0    0    0 -0.00000000000E+00 -0.00000000000E+00 -0.74505805969E-08  0.93827000000E+00  0.93827000000E+00 0. -1.
     999902    2    1    2    0    0  0.64251609343E-03 -0.15008101554E-01 -0.72459101707E-02  0.10272518960E+01  0.10271164971E+01 0.  0.
     999903    2    3    3    0    0 -0.80669767125E-01  0.65991878942E-01 -0.76535809302E-01  0.13709810345E+00  0.45558977724E-01 0.  0.
         14    1    1    2    0    0 -0.64251609343E-03  0.15008101554E-01  0.72459101707E-02  0.16678104010E-01  0.00000000000E+00 0. -1.
     999901    1    3    3    0    0  0.81312283219E-01 -0.80999980495E-01  0.69289899131E-01  0.89015379253E+00  0.88000000000E+00 0.  1.
        -11    1    4    4    0    0 -0.49967680334E-01  0.60916694913E-01 -0.69785472008E-01  0.10525153691E+00  0.51100000000E-03 0. -1.
         11    1    4    4    0    0 -0.30702086791E-01  0.50751840290E-02 -0.67503372934E-02  0.31846566547E-01  0.51100000000E-03 0.  1.
</event>
<event>
 8    1  0.2929965E+004  0.1043930E+01  0.7957747E-01            NaN
         13   -1    0    0    0    0  0.00000000000E+00  0.00000000000E+00  0.74505805969E-08  0.10566000000E+00  0.10566000000E+00 0.  1.
     999900   -1    0    0    0    0 -0.00000000000E+00 -0.00000000000E+00 -0.74505805969E-08  0.93827000000E+00  0.93827000000E+00 0.  1.
     999902    2    1    2    0    0 -0.73983190986E-02  0.46832183897E-02 -0.10552859936E-01  0.10302175782E+01  0.10301263164E+01 0.  0.
     999903    2    3    3    0    0 -0.37398584553E-01 -0.70480746528E-01 -0.10705533143E+00  0.14125055709E+00  0.46094317790E-01 0.  0.
         14    1    1    2    0    0  0.73983190986E-02 -0.46832183897E-02  0.10552859936E-01  0.13712421843E-01  0.00000000000E+00 0.  1.
     999901    1    3    3    0    0  0.30000265455E-01  0.75163964918E-01  0.96502471490E-01  0.88896702107E+00  0.88000000000E+00 0. -1.
        -11    1    4    4    0    0 -0.48366170388E-01 -0.57063428294E-01 -0.87419345807E-01  0.11505617945E+00  0.51100000000E-03 0.  1.
         11    1    4    4    0    0  0.10967585835E-01 -0.13417318234E-01 -0.19635985619E-01  0.26194377638E-01  0.51100000000E-03 0. -1.
</event>
<event>
 8    1  0.2929965E+004  0.1043930E+01  0.7957747E-01            NaN
         13   -1    0    0    0    0  0.00000000000E+00  0.00000000000E+00  0.74505805969E-08  0.10566000000E+00  0.10566000000E+00 0. -1.
     999900   -1    0    0    0    0 -0.00000000000E+00 -0.00000000000E+00 -0.74505805969E-08  0.93827000000E+00  0.93827000000E+00 0. -1.
     999902    2    1    2    0    0 -0.10546076923E-01 -0.27770971295E-02  0.74813674726E-02  0.10307049153E+01  0.10306200655E+01 0.  0.
     999903    2    3    3    0    0  0.11908631829E+00 -0.55680730632E-01  0.14341084140E-01  0.13960985410E+00  0.44758794669E-01 0.  0.
         14    1    1    2    0    0  0.10546076923E-01  0.27770971295E-02 -0.74813674726E-02  0.13225084733E-01  0.00000000000E+00 0.  1.
     999901    1    3    3    0    0 -0.12963239521E+00  0.52903633502E-01 -0.68597166678E-02  0.89109506117E+00  0.88000000000E+00 0.  1.
        -11    1    4    4    0    0  0.40360748410E-01 -0.87412886507E-03 -0.79010238894E-02  0.41139292811E-01  0.51100000000E-03 0. -1.
         11    1    4    4    0    0  0.78725569877E-01 -0.54806601767E-01  0.22242108030E-01  0.98470561288E-01  0.51100000000E-03 0.  1.
</event>
<event>
 8    1  0.2929965E+004  0.1043930E+01  0.7957747E-01            NaN
         13   -1    0    0    0    0  0.00000000000E+00  0.00000000000E+00  0.74505805969E-08  0.10566000000E+00  0.10566000000E+00 0. -1.
     999900   -1    0    0    0    0 -0.00000000000E+00 -0.00000000000E+00 -0.74505805969E-08  0.93827000000E+00  0.93827000000E+00 0. -1.
     999902    2    1    2    0    0  0.12545329397E-01  0.12188486229E-02 -0.51419346646E-02  0.10303171247E+01  0.10302271920E+01 0.  0.
     999903    2    3    3    0    0  0.35650319843E-01  0.63494955519E-01  0.11123525836E+00  0.14017342556E+00  0.44415671228E-01 0.  0.
         14    1    1    2    0    0 -0.12545329397E-01 -0.12188486229E-02  0.51419346646E-02  0.13612875293E-01  0.00000000000E+00 0. -1.
     999901    1    3    3    0    0 -0.23104990446E-01 -0.62276106896E-01 -0.11637719302E+00  0.89014369915E+00  0.88000000000E+00 0. -1.
        -11    1    4    4    0    0  0.38105373241E-01  0.32130950657E-01  0.46369879445E-01  0.68079690809E-01  0.51100000000E-03 0. -1.
         11    1    4    4    0    0 -0.24550533978E-02  0.31364004862E-01  0.64865378912E-01  0.72093734752E-01  0.51100000000E-03 0.  1.
</event>
<event>
 8    1  0.2929965E+004  0.1043930E+01  0.7957747E-01            NaN
         13   -1    0    0    0    0  0.00000000000E+00  0.00000000000E+00  0.74505805969E-08  0.10566000000E+00  0.10566000000E+00 0. -1.
     999900   -1    0    0    0    0 -0.00000000000E+00 -0.00000000000E+00 -0.74505805969E-08  0.93827000000E+00  0.93827000000E+00 0. -1.
     999902    2    1    2    0    0 -0.43102876363E-02 -0.40961682461E-02 -0.12447636647E-01  0.10301350432E+01  0.10300426722E+01 0.  0.
     999903    2    3    3    0    0 -0.65658869530E-01 -0.94966028230E-01  0.65034235368E-01  0.13995280322E+00  0.45030008826E-01 0.  0.
         14    1    1    2    0    0  0.43102876363E-02  0.40961682461E-02  0.12447636647E-01  0.13794956756E-01  0.00000000000E+00 0. -1.
     999901    1    3    3    0    0  0.61348581893E-01  0.90869859984E-01 -0.77481872015E-01  0.89018224002E+00  0.88000000000E+00 0. -1.
        -11    1    4    4    0    0 -0.65786714062E-01 -0.74946881769E-01  0.38936967252E-01  0.10705734619E+00  0.51100000000E-03 0.  1.
         11    1    4    4    0    0  0.12784453265E-03 -0.20019146461E-01  0.26097268116E-01  0.32895457032E-01  0.51100000000E-03 0. -1.
</event>
<event>
 8    1  0.2929965E+004  0.1043930E+01  0.7957747E-01            NaN
         13   -1    0    0    0    0  0.00000000000E+00  0.00000000000E+00  0.74505805969E-08  0.10566000000E+00  0.10566000000E+00 0. -1.
     999900   -1    0    0    0    0 -0.00000000000E+00 -0.00000000000E+00 -0.74505805969E-08  0.93827000000E+00  0.93827000000E+00 0. -1.
     999902    2    1    2    0    0  0.72230640566E-02 -0.20134928878E-02 -0.11781726118E-01  0.10299644754E+01  0.10298697901E+01 0.  0.
     999903    2    3    3    0    0  0.57208992044E-01 -0.11124520678E+00 -0.46727160714E-01  0.14111615101E+00  0.45628672188E-01 0.  0.
         14    1    1    2    0    0 -0.72230640566E-02  0.20134928878E-02  0.11781726118E-01  0.13965524634E-01  0.00000000000E+00 0. -1.
     999901    1    3    3    0    0 -0.49985927987E-01  0.10923171389E+00  0.34945434596E-01  0.88884832436E+00  0.88000000000E+00 0. -1.
        -11    1    4    4    0    0 -0.31092340456E-02 -0.17695669544E-01 -0.19507656087E-01  0.26525720046E-01  0.51100000000E-03 0.  1.
         11    1    4    4    0    0  0.60318226089E-01 -0.93549537232E-01 -0.27219504627E-01  0.11459043096E+00  0.51100000000E-03 0. -1.
</event>
<event>
 8    1  0.2929965E+004  0.1043930E+01  0.7957747E-01            NaN
         13   -1    0    0    0    0  0.00000000000E+00  0.00000000000E+00  0.74505805969E-08  0.10566000000E+00  0.10566000000E+00 0.  1.
     999900   -1    0    0    0    0 -0.00000000000E+00 -0.00000000000E+00 -0.74505805969E-08  0.93827000000E+00  0.93827000000E+00 0. -1.
     999902    2    1    2    0    0 -0.85790566756E-02  0.33563061380E-02 -0.10669673837E-01  0.10298336549E+01  0.10297371752E+01 0.  0.
     999903    2    3    3    0    0 -0.12374231870E+00  0.48235983087E-01 -0.16851885831E-01  0.14117456278E+00  0.44804013431E-01 0.  0.
         14    1    1    2    0    0  0.85790566756E-02 -0.33563061380E-02  0.10669673837E-01  0.14096345062E-01  0.00000000000E+00 0.  1.
     999901    1    3    3    0    0  0.11516326202E+00 -0.44879676949E-01  0.61822119947E-02  0.88865909215E+00  0.88000000000E+00 0.  1.
        -11    1    4    4    0    0 -0.15535639520E-01  0.24909952237E-01 -0.12662369220E-02  0.29389220689E-01  0.51100000000E-03 0. -1.
         11    1    4    4    0    0 -0.10820667918E+00  0.23326030849E-01 -0.15585648909E-01  0.11178534209E+00  0.51100000000E-03 0.  1.
</event>
<event>
 8    1  0.2929965E+004  0.1043930E+01  0.7957747E-01            NaN
         13   -1    0    0    0    0  0.00000000000E+00  0.00000000000E+00  0.74505805969E-08  0.10566000000E+00  0.10566000000E+00 0. -1.
     999900   -1    0    0    0    0 -0.00000000000E+00 -0.00000000000E+00 -0.74505805969E-08  0.93827000000E+00  0.93827000000E+00 0.  1.
     999902    2    1    2    0    0 -0.11402636674E-01  0.24209363242E-02 -0.84517811239E-02  0.10295316091E+01  0.10294309207E+01 0.  0.
     999903    2    3    3    0    0 -0.95097750016E-01  0.91169837627E-01 -0.23006603506E-01  0.14099737661E+00  0.44670292765E-01 0.  0.
         14    1    1    2    0    0  0.11402636674E-01 -0.24209363242E-02  0.84517811239E-02  0.14398390882E-01  0.00000000000E+00 0. -1.
     999901    1    3    3    0    0  0.83695113342E-01 -0.88748901303E-01  0.14554822382E-01  0.88853423251E+00  0.88000000000E+00 0.  1.
        -11    1    4    4    0    0 -0.62198109007E-01  0.28700500545E-01 -0.11469826978E-01  0.69456040396E-01  0.51100000000E-03 0. -1.
         11    1    4    4    0    0 -0.32899641009E-01  0.62469337082E-01 -0.11536776528E-01  0.71541336217E-01  0.51100000000E-03 0.  1.
</event>
<event>
 8    1  0.2929965E+004  0.1043930E+01  0.7957747E-01            NaN
         13   -1    0    0    0    0  0.00000000000E+00  0.00000000000E+00  0.74505805969E-08  0.10566000000E+00  0.10566000000E+00 0. -1.
     999900   -1    0    0    0    0 -0.00000000000E+00 -0.00000000000E+00 -0.74505805969E-08  0.93827000000E+00  0.93827000000E+00 0. -1.
     999902    2    1    2    0    0 -0.11913767995E-01 -0.60992490484E-02  0.41447074489E-03  0.10305393132E+01  0.10304523112E+01 0.  0.
     999903    2    3    3    0    0  0.47203666016E-01  0.11007236276E+00 -0.55073335844E-01  0.13920906517E+00  0.44743495333E-01 0.  0.
         14    1    1    2    0    0  0.11913767995E-01  0.60992490484E-02 -0.41447074489E-03  0.13390686793E-01  0.00000000000E+00 0.  1.
     999901    1    3    3    0    0 -0.59117434010E-01 -0.11617161181E+00  0.55487806589E-01  0.89133024804E+00  0.88000000000E+00 0.  1.
        -11    1    4    4    0    0  0.24972222407E-01  0.52345118692E-01 -0.25464966840E-02  0.58054880149E-01  0.51100000000E-03 0.  1.
         11    1    4    4    0    0  0.22231443609E-01  0.57727244067E-01 -0.52526839160E-01  0.81154185016E-01  0.51100000000E-03 0. -1.
</event>
<event>
 8    1  0.2929965E+004  0.1043930E+01  0.7957747E-01            NaN
         13   -1    0    0    0    0  0.00000000000E+00  0.00000000000E+00  0.74505805969E-08  0.10566000000E+00  0.10566000000E+00 0.  1.
     999900   -1    0    0    0    0 -0.00000000000E+00 -0.00000000000E+00 -0.74505805969E-08  0.93827000000E+00  0.93827000000E+00 0.  1.
     999902    2    1    2    0    0  0.14608662639E-01  0.38235678293E-02  0.85370200075E-03  0.10288051363E+01  0.10286939520E+01 0.  0.
     999903    2    3    3    0    0  0.43809909505E-01 -0.83512730528E-01 -0.92227314975E-01  0.13911731602E+00  0.44204814859E-01 0.  0.
         14    1    1    2    0    0 -0.14608662639E-01 -0.38235678293E-02 -0.85370200075E-03  0.15124863707E-01  0.00000000000E+00 0.  1.
     999901    1    3    3    0    0 -0.29201246866E-01  0.87336298357E-01  0.93081016976E-01  0.88968782028E+00  0.88000000000E+00 0. -1.
        -11    1    4    4    0    0  0.30985681087E-01 -0.85637032496E-01 -0.78943919390E-01  0.12052475802E+00  0.51100000000E-03 0. -1.
         11    1    4    4    0    0  0.12824228418E-01  0.21243019686E-02 -0.13283395585E-01  0.18592557991E-01  0.51100000000E-03 0.  1.
</event>
<event>
 8    1  0.2929965E+004  0.1043930E+01  0.7957747E-01            NaN
         13   -1    0    0    0    0  0.00000000000E+00  0.00000000000E+00  0.74505805969E-08  0.10566000000E+00  0.10566000000E+00 0. -1.
     999900   -1    0    0    0    0 -0.00000000000E+00 -0.00000000000E+00 -0.74505805969E-08  0.93827000000E+00  0.93827000000E+00 0. -1.
     999902    2    1    2    0    0  0.42966468418E-02  0.12648057953E-01 -0.23781529902E-02  0.10303620173E+01  0.10302726806E+01 0.  0.
     999903    2    3    3    0    0 -0.11640330494E+00 -0.61365400422E-01 -0.21835600914E-03  0.13904213354E+00  0.44913533063E-01 0.  0.
         14    1    1    2    0    0 -0.42966468418E-02 -0.12648057953E-01  0.23781529902E-02  0.13567982742E-01  0.00000000000E+00 0.  1.
     999901    1    3    3    0    0  0.12069995178E+00  0.74013458374E-01 -0.21597969811E-02  0.89131988371E+00  0.88000000000E+00 0.  1.
        -11    1    4    4    0    0 -0.59727048927E-01 -0.74952288718E-02  0.65592768102E-02  0.60553976440E-01  0.51100000000E-03 0. -1.
         11    1    4    4    0    0 -0.56676256009E-01 -0.53870171550E-01 -0.67776328194E-02  0.78488157104E-01  0.51100000000E-03 0.  1.
</event>
<event>
 8    1  0.2929965E+004  0.1043930E+01  0.7957747E-01            NaN
         13   -1    0    0    0    0  0.00000000000E+00  0.00000000000E+00  0.74505805969E-08  0.10566000000E+00  0.10566000000E+00 0.  1.
     999900   -1    0    0    0    0 -0.00000000000E+00 -0.00000000000E+00 -0.74505805969E-08  0.93827000000E+00  0.93827000000E+00 0.  1.
     999902    2    1    2    0    0 -0.10755924099E-01  0.73289835984E-02  0.11151165623E-01  0.10267907935E+01  0.10266477396E+01 0.  0.
     999903    2    3    3    0    0 -0.61021573972E-01 -0.10463663513E+00  0.46638547938E-01  0.13756512496E+00  0.45569195187E-01 0.  0.
         14    1    1    2    0    0  0.10755924099E-01 -0.73289835984E-02 -0.11151165623E-01  0.17139206474E-01  0.00000000000E+00 0. -1.
     999901    1    3    3    0    0  0.50265649873E-01  0.11196561873E+00 -0.35487382314E-01  0.88922566857E+00  0.88000000000E+00 0.  1.
        -11    1    4    4    0    0 -0.19419516019E-01 -0.48684446485E-01 -0.21568606037E-02  0.52461472536E-01  0.51100000000E-03 0.  1.
         11    1    4    4    0    0 -0.41602057953E-01 -0.55952188644E-01  0.48795408541E-01  0.85103652423E-01  0.51100000000E-03 0. -1.
</event>
<event>
 8    1  0.2929965E+004  0.1043930E+01  0.7957747E-01            NaN
         13   -1    0    0    0    0  0.00000000000E+00  0.00000000000E+00  0.74505805969E-08  0.10566000000E+00  0.10566000000E+00 0. -1.
     999900   -1    0    0    0    0 -0.00000000000E+00 -0.00000000000E+00 -0.74505805969E-08  0.93827000000E+00  0.93827000000E+00 0.  1.
     999902    2    1    2    0    0  0.71325262641E-02  0.64075102496E-02  0.97693514598E-02  0.10302417077E+01  0.10301507690E+01 0.  0.
     999903    2    3    3    0    0 -0.36730146059E-01  0.10363123339E-01  0.12828725812E+00  0.14120510827E+00  0.44997378279E-01 0.  0.
         14    1    1    2    0    0 -0.71325262641E-02 -0.64075102496E-02 -0.97693514598E-02  0.13688292313E-01  0.00000000000E+00 0.  1.
     999901    1    3    3    0    0  0.43862672323E-01 -0.39556130895E-02 -0.11851790666E+00  0.88903659941E+00  0.88000000000E+00 0.  1.
        -11    1    4    4    0    0  0.88901529743E-02  0.54698300584E-02  0.44142950906E-01  0.45363146898E-01  0.51100000000E-03 0. -1.
         11    1    4    4    0    0 -0.45620299033E-01  0.48932932806E-02  0.84144307213E-01  0.95841961375E-01  0.51100000000E-03 0.  1.
</event>
<event>
 8    1  0.2929965E+004  0.1043930E+01  0.7957747E-01            NaN
         13   -1    0    0    0    0  0.00000000000E+00  0.00000000000E+00  0.74505805969E-08  0.10566000000E+00  0.10566000000E+00 0. -1.
     999900   -1    0    0    0    0 -0.00000000000E+00 -0.00000000000E+00 -0.74505805969E-08  0.93827000000E+00  0.93827000000E+00 0. -1.
     999902    2    1    2    0    0 -0.41247720288E-02 -0.16394505671E-02 -0.11222482495E-01  0.10318616258E+01  0.10317910492E+01 0.  0.
     999903    2    3    3    0    0 -0.75607987136E-01  0.59186124717E-01  0.93275334190E-01  0.14072224594E+00  0.43392366330E-01 0.  0.
         14    1    1    2    0    0  0.41247720288E-02  0.16394505671E-02  0.11222482495E-01  0.12068374199E-01  0.00000000000E+00 0. -1.
     999901    1    3    3    0    0  0.71483215107E-01 -0.60825575284E-01 -0.10449781669E+00  0.89113937986E+00  0.88000000000E+00 0. -1.
        -11    1    4    4    0    0 -0.27728496254E-01  0.43348357023E-01  0.29160042419E-01  0.59148277709E-01  0.51100000000E-03 0.  1.
         11    1    4    4    0    0 -0.47879490882E-01  0.15837767694E-01  0.64115291771E-01  0.81573968229E-01  0.51100000000E-03 0. -1.
</event>
<event>
 8    1  0.2929965E+004  0.1043930E+01  0.7957747E-01            NaN
         13   -1    0    0    0    0  0.00000000000E+00  0.00000000000E+00  0.74505805969E-08  0.10566000000E+00  0.10566000000E+00 0. -1.
     999900   -1    0    0    0    0 -0.00000000000E+00 -0.00000000000E+00 -0.74505805969E-08  0.93827000000E+00  0.93827000000E+00 0.  1.
     999902    2    1    2    0    0 -0.36255623823E-02  0.11021690795E-01  0.70997930328E-02  0.10303274476E+01  0.10302376521E+01 0.  0.
     999903    2    3    3    0    0  0.79480962919E-01 -0.72419104582E-01  0.77291423155E-01  0.13971197176E+00  0.44538980495E-01 0.  0.
         14    1    1    2    0    0  0.36255623823E-02 -0.11021690795E-01 -0.70997930328E-02  0.13602552396E-01  0.00000000000E+00 0.  1.
     999901    1    3    3    0    0 -0.83106525302E-01  0.83440795377E-01 -0.70191630122E-01  0.89061547585E+00  0.88000000000E+00 0.  1.
        -11    1    4    4    0    0  0.57460555936E-01 -0.23128693338E-01  0.47427847409E-01  0.78014830480E-01  0.51100000000E-03 0.  1.
         11    1    4    4    0    0  0.22020406984E-01 -0.49290411243E-01  0.29863575746E-01  0.61697141276E-01  0.51100000000E-03 0. -1.
</event>
<event>
 8    1  0.2929965E+004  0.1043930E+01  0.7957747E-01            NaN
         13   -1    0    0    0    0  0.00000000000E+00  0.00000000000E+00  0.74505805969E-08  0.10566000000E+00  0.10566000000E+00 0. -1.
     999900   -1    0    0    0    0 -0.00000000000E+00 -0.00000000000E+00 -0.74505805969E-08  0.93827000000E+00  0.93827000000E+00 0. -1.
     999902    2    1    2    0    0  0.98017517030E-02 -0.47015025500E-02 -0.79678930314E-02  0.10304516551E+01  0.10303635027E+01 0.  0.
     999903    2    3    3    0    0 -0.65707607163E-01  0.77222987934E-01  0.83078168091E-01  0.13876635707E+00  0.45532848996E-01 0.  0.
         14    1    1    2    0    0 -0.98017517030E-02  0.47015025500E-02  0.79678930314E-02  0.13478344929E-01  0.00000000000E+00 0. -1.
     999901    1    3    3    0    0  0.75509358866E-01 -0.81924490484E-01 -0.91046061123E-01  0.89168529800E+00  0.88000000000E+00 0. -1.
        -11    1    4    4    0    0 -0.11514582612E-01  0.46082710074E-01  0.45819284600E-01  0.65999013195E-01  0.51100000000E-03 0.  1.
         11    1    4    4    0    0 -0.54193024551E-01  0.31140277860E-01  0.37258883492E-01  0.72767343879E-01  0.51100000000E-03 0. -1.
</event>
<event>
 8    1  0.2929965E+004  0.1043930E+01  0.7957747E-01            NaN
         13   -1    0    0    0    0  0.00000000000E+00  0.00000000000E+00  0.74505805969E-08  0.10566000000E+00  0.10566000000E+00 0.  1.
     999900   -1    0    0    0    0 -0.00000000000E+00 -0.00000000000E+00 -0.74505805969E-08  0.93827000000E+00  0.93827000000E+00 0. -1.
     999902    2    1    2    0    0  0.13224165430E-01 -0.83374298068E-03 -0.34548082802E-02  0.10302365936E+01  0.10301455865E+01 0.  0.
     999903    2    3    3    0    0 -0.11695599427E+00  0.52517571319E-01  0.27166860249E-01  0.13853545347E+00  0.44913624646E-01 0.  0.
         14    1    1    2    0    0 -0.13224165430E-01  0.83374298068E-03  0.34548082802E-02  0.13693406403E-01  0.00000000000E+00 0. -1.
     999901    1    3    3    0    0  0.13018015970E+00 -0.53351314300E-01 -0.30621668529E-01  0.89170114013E+00  0.88000000000E+00 0.  1.
        -11    1    4    4    0    0 -0.88993853171E-01  0.48206543802E-01  0.38174546155E-01  0.10817270387E+00  0.51100000000E-03 0.  1.
         11    1    4    4    0    0 -0.27962141103E-01  0.43110275175E-02 -0.11007685906E-01  0.30362749601E-01  0.51100000000E-03 0. -1.
</event>
<event>
 8    1  0.2929965E+004  0.1043930E+01  0.7957747E-01            NaN
         13   -1    0    0    0    0  0.00000000000E+00  0.00000000000E+00  0.74505805969E-08  0.10566000000E+00  0.10566000000E+00 0. -1.
     999900   -1    0    0    0    0 -0.00000000000E+00 -0.00000000000E+00 -0.74505805969E-08  0.93827000000E+00  0.93827000000E+00 0. -1.
     999902    2    1    2    0    0 -0.11049889214E-01  0.18304571934E-03  0.88433557131E-02  0.10297759017E+01  0.10296786243E+01 0.  0.
     999903    2    3    3    0    0  0.25531027152E-01  0.56046017938E-01  0.11816065267E+00  0.14050141851E+00  0.44561410315E-01 0.  0.
         14    1    1    2    0    0  0.11049889214E-01 -0.18304571934E-03 -0.88433557131E-02  0.14154098263E-01  0.00000000000E+00 0. -1.
     999901    1    3    3    0    0 -0.36580916366E-01 -0.55862972219E-01 -0.10931729696E+00  0.88927448323E+00  0.88000000000E+00 0. -1.
        -11    1    4    4    0    0 -0.76557831953E-02  0.58212355524E-03  0.31289814199E-01  0.32222096111E-01  0.51100000000E-03 0.  1.
         11    1    4    4    0    0  0.33186810347E-01  0.55463894383E-01  0.86870838471E-01  0.10827932240E+00  0.51100000000E-03 0. -1.
</event>
<event>
 8    1  0.2929965E+004  0.1043930E+01  0.7957747E-01            NaN
         13   -1    0    0    0    0  0.00000000000E+00  0.00000000000E+00  0.74505805969E-08  0.10566000000E+00  0.10566000000E+00 0.  1.
     999900   -1    0    0    0    0 -0.00000000000E+00 -0.00000000000E+00 -0.74505805969E-08  0.93827000000E+00  0.93827000000E+00 0. -1.
     999902    2    1    2    0    0  0.10871794632E-01 -0.71800334499E-02  0.35182061060E-02  0.10304345721E+01  0.10303461947E+01 0.  0.
     999903    2    3    3    0    0 -0.95715382072E-01  0.53715052758E-01  0.72810158591E-01  0.13921607343E+00  0.45089407295E-01 0.  0.
         14    1    1    2    0    0 -0.10871794632E-01  0.71800334499E-02 -0.35182061060E-02  0.13495427858E-01  0.00000000000E+00 0.  1.
     999901    1    3    3    0    0  0.10658717670E+00 -0.60895086208E-01 -0.69291952485E-01  0.89121849871E+00  0.88000000000E+00 0.  1.
        -11    1    4    4    0    0 -0.62199232453E-01  0.39685695672E-01  0.22465748187E-01  0.77127621001E-01  0.51100000000E-03 0.  1.
         11    1    4    4    0    0 -0.33516149619E-01  0.14029357087E-01  0.50344410404E-01  0.62088452433E-01  0.51100000000E-03 0. -1.
</event>
<event>
 8    1  0.2929965E+004  0.1043930E+01  0.7957747E-01            NaN
         13   -1    0    0    0    0  0.00000000000E+00  0.00000000000E+00  0.74505805969E-08  0.10566000000E+00  0.10566000000E+00 0.  1.
     999900   -1    0    0    0    0 -0.00000000000E+00 -0.00000000000E+00 -0.74505805969E-08  0.93827000000E+00  0.93827000000E+00 0. -1.
     999902    2    1    2    0    0 -0.22015476653E-01 -0.73301884280E-02 -0.12842910185E-01  0.10174091928E+01  0.10170634751E+01 0.  0.
     999903    2    3    3    0    0 -0.92269782314E-01  0.46430547978E-01  0.64251022746E-01  0.12962016448E+00  0.44762535691E-01 0.  0.
         14    1    1    2    0    0  0.22015476653E-01  0.73301884280E-02  0.12842910185E-01  0.26520807240E-01  0.00000000000E+00 0.  1.
     999901    1    3    3    0    0  0.70254305661E-01 -0.53760736406E-01 -0.77093932931E-01  0.88778902828E+00  0.88000000000E+00 0.  1.
        -11    1    4    4    0    0 -0.26527001009E-01  0.89197759270E-02  0.42454030337E-01  0.50851253652E-01  0.51100000000E-03 0.  1.
         11    1    4    4    0    0 -0.65742781305E-01  0.37510772051E-01  0.21796992408E-01  0.78768910825E-01  0.51100000000E-03 0. -1.
</event>
<event>
 8    1  0.2929965E+004  0.1043930E+01  0.7957747E-01            NaN
         13   -1    0    0    0    0  0.00000000000E+00  0.00000000000E+00  0.74505805969E-08  0.10566000000E+00  0.10566000000E+00 0. -1.
     999900   -1    0    0    0    0 -0.00000000000E+00 -0.00000000000E+00 -0.74505805969E-08  0.93827000000E+00  0.93827000000E+00 0. -1.
     999902    2    1    2    0    0 -0.74491841674E-02  0.11032532512E-01 -0.48876574090E-02  0.10297491568E+01  0.10296515088E+01 0.  0.
     999903    2    3    3    0    0 -0.12997426091E+00 -0.20332943522E-01 -0.14899815493E-01  0.14065049479E+00  0.47474415114E-01 0.  0.
         14    1    1    2    0    0  0.74491841674E-02 -0.11032532512E-01  0.48876574090E-02  0.14180843182E-01  0.00000000000E+00 0.  1.
     999901    1    3    3    0    0  0.12252507674E+00  0.31365476034E-01  0.10012158084E-01  0.88909866203E+00  0.88000000000E+00 0.  1.
        -11    1    4    4    0    0 -0.74761581884E-01  0.73430704565E-02 -0.22503642204E-01  0.78421233368E-01  0.51100000000E-03 0. -1.
         11    1    4    4    0    0 -0.55212679027E-01 -0.27676013979E-01  0.76038267106E-02  0.62229261418E-01  0.51100000000E-03 0.  1.
</event>
<event>
 8    1  0.2929965E+004  0.1043930E+01  0.7957747E-01            NaN
         13   -1    0    0    0    0  0.00000000000E+00  0.00000000000E+00  0.74505805969E-08  0.10566000000E+00  0.10566000000E+00 0.  1.
     999900   -1    0    0    0    0 -0.00000000000E+00 -0.00000000000E+00 -0.74505805969E-08  0.93827000000E+00  0.93827000000E+00 0. -1.
     999902    2    1    2    0    0  0.92526989934E-02 -0.77588749835E-02 -0.55770577688E-02  0.10306290168E+01  0.10305431841E+01 0.  0.
     999903    2    3    3    0    0 -0.83826458766E-01 -0.68673478900E-02 -0.10447352134E+00  0.14021055626E+00  0.40868664883E-01 0.  0.
         14    1    1    2    0    0 -0.92526989934E-02  0.77588749835E-02  0.55770577688E-02  0.13300983160E-01  0.00000000000E+00 0. -1.
     999901    1    3    3    0    0  0.93079157759E-01 -0.89152709349E-03  0.98896463574E-01  0.89041846058E+00  0.88000000000E+00 0.  1.
        -11    1    4    4    0    0 -0.26249971481E-01 -0.95533953193E-02 -0.63842203782E-01  0.69687993726E-01  0.51100000000E-03 0. -1.
         11    1    4    4    0    0 -0.57576487285E-01  0.26860474292E-02 -0.40631317561E-01  0.70522562536E-01  0.51100000000E-03 0.  1.
</event>
<event>
 8    1  0.2929965E+004  0.1043930E+01  0.7957747E-01            NaN
         13   -1    0    0    0    0  0.00000000000E+00  0.00000000000E+00  0.74505805969E-08  0.10566000000E+00  0.10566000000E+00 0. -1.
     999900   -1    0    0    0    0 -0.00000000000E+00 -0.00000000000E+00 -0.74505805969E-08  0.93827000000E+00  0.93827000000E+00 0. -1.
     999902    2    1    2    0    0  0.30888778674E-02  0.87597995421E-02  0.10673125133E-01  0.10297811183E+01  0.10296839130E+01 0.  0.
     999903    2    3    3    0    0  0.66975976616E-01  0.10592043147E+00  0.41881634567E-01  0.14158309932E+00  0.50860431099E-01 0.  0.
         14    1    1    2    0    0 -0.30888778674E-02 -0.87597995421E-02 -0.10673125133E-01  0.14148881744E-01  0.00000000000E+00 0. -1.
     999901    1    3    3    0    0 -0.63887098749E-01 -0.97160631931E-01 -0.31208509434E-01  0.88819801894E+00  0.88000000000E+00 0. -1.
        -11    1    4    4    0    0  0.25417148306E-01  0.83881307293E-01  0.33307227064E-01  0.93764266311E-01  0.51100000000E-03 0.  1.
         11    1    4    4    0    0  0.41558828310E-01  0.22039124180E-01  0.85744075033E-02  0.47818833007E-01  0.51100000000E-03 0. -1.
</event>
<event>
 8    1  0.2929965E+004  0.1043930E+01  0.7957747E-01            NaN
         13   -1    0    0    0    0  0.00000000000E+00  0.00000000000E+00  0.74505805969E-08  0.10566000000E+00  0.10566000000E+00 0. -1.
     999900   -1    0    0    0    0 -0.00000000000E+00 -0.00000000000E+00 -0.74505805969E-08  0.93827000000E+00  0.93827000000E+00 0.  1.
     999902    2    1    2    0    0  0.61909919026E-02 -0.11924368742E-01 -0.56133214516E-02  0.10293688075E+01  0.10292658128E+01 0.  0.
     999903    2    3    3    0    0 -0.42201266502E-01  0.12309216169E+00 -0.66864011315E-02  0.13775654550E+00  0.44716112348E-01 0.  0.
         14    1    1    2    0    0 -0.61909919026E-02  0.11924368742E-01  0.56133214516E-02  0.14561192546E-01  0.00000000000E+00 0.  1.
     999901    1    3    3    0    0  0.48392258404E-01 -0.13501653044E+00  0.10730796798E-02  0.89161226195E+00  0.88000000000E+00 0. -1.
        -11    1    4    4    0    0 -0.17796060396E-01  0.89733805797E-01  0.12232161914E-01  0.92297034484E-01  0.51100000000E-03 0. -1.
         11    1    4    4    0    0 -0.24405206106E-01  0.33358355897E-01 -0.18918563046E-01  0.45459511017E-01  0.51100000000E-03 0.  1.
</event>
<event>
 8    1  0.2929965E+004  0.1043930E+01  0.7957747E-01            NaN
         13   -1    0    0    0    0  0.00000000000E+00  0.00000000000E+00  0.74505805969E-08  0.10566000000E+00  0.10566000000E+00 0. -1.
     999900   -1    0    0    0    0 -0.00000000000E+00 -0.00000000000E+00 -0.74505805969E-08  0.93827000000E+00  0.93827000000E+00 0. -1.
     999902    2    1    2    0    0 -0.40415396682E-02 -0.39467129360E-02  0.10708762986E-01  0.10318226390E+01  0.10317516029E+01 0.  0.
     999903    2    3    3    0    0 -0.39073567982E-01  0.99446089017E-01  0.77899477298E-01  0.14253533638E+00  0.53213956976E-01 0.  0.
         14    1    1    2    0    0  0.40415396682E-02  0.39467129360E-02 -0.10708762986E-01  0.12107361008E-01  0.00000000000E+00 0.  1.
     999901    1    3    3    0    0  0.35032028314E-01 -0.10339280195E+00 -0.67190714312E-01  0.88928730262E+00  0.88000000000E+00 0. -1.
        -11    1    4    4    0    0 -0.63254986159E-02  0.20856941541E-01  0.47265625612E-01  0.52051171251E-01  0.51100000000E-03 0. -1.
         11    1    4    4    0    0 -0.32748069366E-01  0.78589147476E-01  0.30633851686E-01  0.90484165125E-01  0.51100000000E-03 0.  1.
</event>
<event>
 8    1  0.2929965E+004  0.1043930E+01  0.7957747E-01            NaN
         13   -1    0    0    0    0  0.00000000000E+00  0.00000000000E+00  0.74505805969E-08  0.10566000000E+00  0.10566000000E+00 0. -1.
     999900   -1    0    0    0    0 -0.00000000000E+00 -0.00000000000E+00 -0.74505805969E-08  0.93827000000E+00  0.93827000000E+00 0. -1.
     999902    2    1    2    0    0  0.12010440178E-01 -0.59139677540E-02 -0.36198591543E-02  0.10300617244E+01  0.10299683621E+01 0.  0.
     999903    2    3    3    0    0 -0.95653399583E-01  0.30121046667E-01  0.84034043936E-01  0.13844901061E+00  0.45272040990E-01 0.  0.
         14    1    1    2    0    0 -0.12010440178E-01  0.59139677540E-02  0.36198591543E-02  0.13868275602E-01  0.00000000000E+00 0. -1.
     999901    1    3    3    0    0  0.10766383976E+00 -0.36035014421E-01 -0.87653903090E-01  0.89161271379E+00  0.88000000000E+00 0. -1.
        -11    1    4    4    0    0 -0.21911529262E-01  0.25065657186E-01  0.41363684015E-01  0.53100073080E-01  0.51100000000E-03 0. -1.
         11    1    4    4    0    0 -0.73741870322E-01  0.50553894803E-02  0.42670359921E-01  0.85348937533E-01  0.51100000000E-03 0.  1.
</event>
<event>
 8    1  0.2929965E+004  0.1043930E+01  0.7957747E-01            NaN
         13   -1    0    0    0    0  0.00000000000E+00  0.00000000000E+00  0.74505805969E-08  0.10566000000E+00  0.10566000000E+00 0. -1.
     999900   -1    0    0    0    0 -0.00000000000E+00 -0.00000000000E+00 -0.74505805969E-08  0.93827000000E+00  0.93827000000E+00 0.  1.
     999902    2    1    2    0    0  0.45169446879E-02  0.11022695337E-01 -0.81077675478E-02  0.10295203332E+01  0.10294194859E+01 0.  0.
     999903    2    3    3    0    0 -0.64259330342E-01  0.84817545046E-01  0.78240681517E-01  0.13955858658E+00  0.45074575533E-01 0.  0.
         14    1    1    2    0    0 -0.45169446879E-02 -0.11022695337E-01  0.81077675478E-02  0.14409666769E-01  0.00000000000E+00 0. -1.
     999901    1    3    3    0    0  0.68776275030E-01 -0.73794849710E-01 -0.86348449065E-01  0.88996174665E+00  0.88000000000E+00 0.  1.
        -11    1    4    4    0    0 -0.47801811026E-01  0.56301511390E-01  0.76868610825E-01  0.10660167810E+00  0.51100000000E-03 0. -1.
         11    1    4    4    0    0 -0.16457519315E-01  0.28516033657E-01  0.13720706923E-02  0.32956908479E-01  0.51100000000E-03 0.  1.
</event>
<event>
 8    1  0.2929965E+004  0.1043930E+01  0.7957747E-01            NaN
         13   -1    0    0    0    0  0.00000000000E+00  0.00000000000E+00  0.74505805969E-08  0.10566000000E+00  0.10566000000E+00 0. -1.
     999900   -1    0    0    0    0 -0.00000000000E+00 -0.00000000000E+00 -0.74505805969E-08  0.93827000000E+00  0.93827000000E+00 0.  1.
     999902    2    1    2    0    0 -0.71032086842E-02  0.13152807409E-02 -0.12528144669E-01  0.10294683284E+01  0.10293667467E+01 0.  0.
     999903    2    3    3    0    0 -0.27049075052E-01 -0.98933794775E-01 -0.85368047402E-01  0.14056261564E+00  0.44165565631E-01 0.  0.
         14    1    1    2    0    0  0.71032086842E-02 -0.13152807409E-02  0.12528144669E-01  0.14461671615E-01  0.00000000000E+00 0. -1.
     999901    1    3    3    0    0  0.19945866368E-01  0.10024907552E+00  0.72839902733E-01  0.88890571275E+00  0.88000000000E+00 0. -1.
        -11    1    4    4    0    0 -0.26823295636E-01 -0.26355160914E-01 -0.40328705496E-01  0.55142989614E-01  0.51100000000E-03 0.  1.
         11    1    4    4    0    0 -0.22577941600E-03 -0.72578633861E-01 -0.45039341906E-01  0.85419626022E-01  0.51100000000E-03 0. -1.
</event>
<event>
 8    1  0.2929965E+004  0.1043930E+01  0.7957747E-01            NaN
         13   -1    0    0    0    0  0.00000000000E+00  0.00000000000E+00  0.74505805969E-08  0.10566000000E+00  0.10566000000E+00 0.  1.
     999900   -1    0    0    0    0 -0.00000000000E+00 -0.00000000000E+00 -0.74505805969E-08  0.93827000000E+00  0.93827000000E+00 0.  1.
     999902    2    1    2    0    0 -0.33598363858E-02  0.13090193079E-01  0.71521157077E-02  0.10286396627E+01  0.10285260139E+01 0.  0.
     999903    2    3    3    0    0 -0.80268006396E-01 -0.35711980231E-01  0.98214428754E-01  0.13926411571E+00  0.45056869925E-01 0.  0.
         14    1    1    2    0    0  0.33598363858E-02 -0.13090193079E-01 -0.71521157077E-02  0.15290337291E-01  0.00000000000E+00 0. -1.
     999901    1    3    3    0    0  0.76908170011E-01  0.48802173309E-01 -0.91062313047E-01  0.88937554699E+00  0.88000000000E+00 0.  1.
        -11    1    4    4    0    0 -0.69366486522E-01 -0.25075767818E-01  0.51064363638E-01  0.89712507148E-01  0.51100000000E-03 0.  1.
         11    1    4    4    0    0 -0.10901519875E-01 -0.10636212413E-01  0.47150065117E-01  0.49551608567E-01  0.51100000000E-03 0. -1.
</event>
<event>
 8    1  0.2929965E+004  0.1043930E+01  0.7957747E-01            NaN
         13   -1    0    0    0    0  0.00000000000E+00  0.00000000000E+00  0.74505805969E-08  0.10566000000E+00  0.10566000000E+00 0. -1.
     999900   -1    0    0    0    0 -0.00000000000E+00 -0.00000000000E+00 -0.74505805969E-08  0.93827000000E+00  0.93827000000E+00 0.  1.
     999902    2    1    2    0    0  0.17883880698E-01 -0.56253200365E-02  0.13028671160E-01  0.10210996762E+01  0.10208444176E+01 0.  0.
     999903    2    3    3    0    0 -0.12106014567E+00 -0.11392194616E-01 -0.90534623446E-02  0.12990591501E+00  0.44813397611E-01 0.  0.
         14    1    1    2    0    0 -0.17883880698E-01  0.56253200365E-02 -0.13028671160E-01  0.22830323838E-01  0.00000000000E+00 0.  1.
     999901    1    3    3    0    0  0.13894402637E+00  0.57668745791E-02  0.22082133504E-01  0.89119376116E+00  0.88000000000E+00 0. -1.
        -11    1    4    4    0    0 -0.15122726757E-01  0.19669548711E-02  0.13954690893E-01  0.20677531162E-01  0.51100000000E-03 0. -1.
         11    1    4    4    0    0 -0.10593741891E+00 -0.13359149487E-01 -0.23008153237E-01  0.10922838384E+00  0.51100000000E-03 0.  1.
</event>
<event>
 8    1  0.2929965E+004  0.1043930E+01  0.7957747E-01            NaN
         13   -1    0    0    0    0  0.00000000000E+00  0.00000000000E+00  0.74505805969E-08  0.10566000000E+00  0.10566000000E+00 0.  1.
     999900   -1    0    0    0    0 -0.00000000000E+00 -0.00000000000E+00 -0.74505805969E-08  0.93827000000E+00  0.93827000000E+00 0. -1.
     999902    2    1    2    0    0 -0.13667011069E-01 -0.10742218345E-03  0.76606682528E-02  0.10282620528E+01  0.10281426772E+01 0.  0.
     999903    2    3    3    0    0 -0.81706214093E-02 -0.10091275065E+00 -0.82234090257E-01  0.13794020530E+00  0.44887774941E-01 0.  0.
         14    1    1    2    0    0  0.13667011069E-01  0.10742218345E-03 -0.76606682528E-02  0.15667947190E-01  0.00000000000E+00 0.  1.
     999901    1    3    3    0    0 -0.54963896594E-02  0.10080532847E+00  0.89894758510E-01  0.89032184751E+00  0.88000000000E+00 0.  1.
        -11    1    4    4    0    0 -0.52294603037E-02 -0.23593301353E-01 -0.47141874617E-01  0.52977434698E-01  0.51100000000E-03 0. -1.
         11    1    4    4    0    0 -0.29411611056E-02 -0.77319449300E-01 -0.35092215639E-01  0.84962770601E-01  0.51100000000E-03 0.  1.
</event>
<event>
 8    1  0.2929965E+004  0.1043930E+01  0.7957747E-01            NaN
         13   -1    0    0    0    0  0.00000000000E+00  0.00000000000E+00  0.74505805969E-08  0.10566000000E+00  0.10566000000E+00 0. -1.
     999900   -1    0    0    0    0 -0.00000000000E+00 -0.00000000000E+00 -0.74505805969E-08  0.93827000000E+00  0.93827000000E+00 0.  1.
     999902    2    1    2    0    0  0.30165136684E-02 -0.52057521169E-05  0.11832029404E-01  0.10317195004E+01  0.10316472416E+01 0.  0.
     999903    2    3    3    0    0  0.15603676527E-01 -0.56160541452E-01 -0.11921951348E+00  0.14015550081E+00  0.45086482169E-01 0.  0.
         14    1    1    2    0    0 -0.30165136684E-02  0.52057521169E-05 -0.11832029404E-01  0.12210499647E-01  0.00000000000E+00 0.  1.
     999901    1    3    3    0    0 -0.12587162859E-01  0.56155335699E-01  0.13105154288E+00  0.89156399955E+00  0.88000000000E+00 0. -1.
        -11    1    4    4    0    0  0.29356981439E-01 -0.37843604688E-01 -0.97285753439E-01  0.10843776887E+00  0.51100000000E-03 0. -1.
         11    1    4    4    0    0 -0.13753304912E-01 -0.18316936763E-01 -0.21933760041E-01  0.31717731932E-01  0.51100000000E-03 0.  1.
</event>
<event>
 7    1  0.2929965E+004  0.1043930E+01  0.7957747E-01            NaN
         13   -1    0    0    0    0  0.00000000000E+00  0.00000000000E+00  0.74505805969E-08  0.10566000000E+00  0.10566000000E+00 0.  1.
     999900   -1    0    0    0    0 -0.00000000000E+00 -0.00000000000E+00 -0.74505805969E-08  0.93827000000E+00  0.93827000000E+00 0. -1.
     999903    2    1    2    0    0 -0.58566746645E-01  0.75602567299E-01  0.69420763246E-01  0.12629812245E+00  0.44566370391E-01 0.  0.
         14    1    1    2    0    0  0.14025288336E-01  0.35491674716E-02 -0.28558796360E-01  0.32014217969E-01  0.00000000000E+00 0. -1.
     999901    1    1    2    0    0  0.44541458309E-01 -0.79151734770E-01 -0.40861966886E-01  0.88561765958E+00  0.88000000000E+00 0.  1.
        -11    1    3    3    0    0 -0.19041660750E-01  0.48468379561E-01  0.56080678587E-01  0.76531511766E-01  0.51100000000E-03 0. -1.
         11    1    3    3    0    0 -0.39525085895E-01  0.27134187737E-01  0.13340084659E-01  0.49766610683E-01  0.51100000000E-03 0.  1.
</event>
<event>
 8    1  0.2929965E+004  0.1043930E+01  0.7957747E-01            NaN
         13   -1    0    0    0    0  0.00000000000E+00  0.00000000000E+00  0.74505805969E-08  0.10566000000E+00  0.10566000000E+00 0. -1.
     999900   -1    0    0    0    0 -0.00000000000E+00 -0.00000000000E+00 -0.74505805969E-08  0.93827000000E+00  0.93827000000E+00 0. -1.
     999902    2    1    2    0    0  0.69600746043E-02 -0.17584799081E-02  0.11554165446E-01  0.10303272933E+01  0.10302374958E+01 0.  0.
     999903    2    3    3    0    0 -0.54868276574E-01 -0.54968131928E-01  0.10908149615E+00  0.14118973797E+00  0.44763221562E-01 0.  0.
         14    1    1    2    0    0 -0.69600746043E-02  0.17584799081E-02 -0.11554165446E-01  0.13602706688E-01  0.00000000000E+00 0.  1.
     999901    1    3    3    0    0  0.61828351178E-01  0.53209652020E-01 -0.97527330707E-01  0.88913755534E+00  0.88000000000E+00 0. -1.
        -11    1    4    4    0    0 -0.29188447841E-01 -0.80542968608E-02  0.65627381230E-01  0.72277600080E-01  0.51100000000E-03 0. -1.
         11    1    4    4    0    0 -0.25679828733E-01 -0.46913835067E-01  0.43454114923E-01  0.68912137894E-01  0.51100000000E-03 0.  1.
</event>
<event>
 8    1  0.2929965E+004  0.1043930E+01  0.7957747E-01            NaN
         13   -1    0    0    0    0  0.00000000000E+00  0.00000000000E+00  0.74505805969E-08  0.10566000000E+00  0.10566000000E+00 0. -1.
     999900   -1    0    0    0    0 -0.00000000000E+00 -0.00000000000E+00 -0.74505805969E-08  0.93827000000E+00  0.93827000000E+00 0.  1.
     999902    2    1    2    0    0  0.64687735994E-02  0.26285317749E-03 -0.12340577236E-01  0.10299942915E+01  0.10299000129E+01 0.  0.
     999903    2    3    3    0    0 -0.80113329735E-01  0.10482086258E+00  0.47417526113E-02  0.13942108066E+00  0.44835194665E-01 0.  0.
         14    1    1    2    0    0 -0.64687735994E-02 -0.26285317748E-03  0.12340577236E-01  0.13935708457E-01  0.00000000000E+00 0. -1.
     999901    1    3    3    0    0  0.86582103335E-01 -0.10455800941E+00 -0.17082329848E-01  0.89057321088E+00  0.88000000000E+00 0. -1.
        -11    1    4    4    0    0 -0.32676328367E-01  0.77640466921E-01  0.82068397745E-02  0.84636858870E-01  0.51100000000E-03 0.  1.
         11    1    4    4    0    0 -0.47437001368E-01  0.27180395663E-01 -0.34650871632E-02  0.54784221791E-01  0.51100000000E-03 0. -1.
</event>
<event>
 8    1  0.2929965E+004  0.1043930E+01  0.7957747E-01            NaN
         13   -1    0    0    0    0  0.00000000000E+00  0.00000000000E+00  0.74505805969E-08  0.10566000000E+00  0.10566000000E+00 0. -1.
     999900   -1    0    0    0    0 -0.00000000000E+00 -0.00000000000E+00 -0.74505805969E-08  0.93827000000E+00  0.93827000000E+00 0.  1.
     999902    2    1    2    0    0 -0.56453244590E-02 -0.29623836124E-02 -0.13008243918E-01  0.10294434609E+01  0.10293415271E+01 0.  0.
     999903    2    3    3    0    0  0.10328230746E-01  0.10317194776E+00  0.79826200610E-01  0.13807491488E+00  0.44060602137E-01 0.  0.
         14    1    1    2    0    0  0.56453244590E-02  0.29623836124E-02  0.13008243918E-01  0.14486539088E-01  0.00000000000E+00 0. -1.
     999901    1    3    3    0    0 -0.15973555205E-01 -0.10613433137E+00 -0.92834444528E-01  0.89136854603E+00  0.88000000000E+00 0.  1.
        -11    1    4    4    0    0  0.27550788792E-01  0.61947898176E-01  0.44264659468E-01  0.80970422071E-01  0.51100000000E-03 0.  1.
         11    1    4    4    0    0 -0.17222558046E-01  0.41224049584E-01  0.35561541143E-01  0.57104492811E-01  0.51100000000E-03 0. -1.
</event>
<event>
 8    1  0.2929965E+004  0.1043930E+01  0.7957747E-01            NaN
         13   -1    0    0    0    0  0.00000000000E+00  0.00000000000E+00  0.74505805969E-08  0.10566000000E+00  0.10566000000E+00 0. -1.
     999900   -1    0    0    0    0 -0.00000000000E+00 -0.00000000000E+00 -0.74505805969E-08  0.93827000000E+00  0.93827000000E+00 0. -1.
     999902    2    1    2    0    0 -0.86499588984E-03  0.12539471767E-01  0.52457173673E-02  0.10303100103E+01  0.10302199829E+01 0.  0.
     999903    2    3    3    0    0 -0.40911156653E-01 -0.10207840533E+00  0.72807675624E-01  0.13940846073E+00  0.45166776711E-01 0.  0.
         14    1    1    2    0    0  0.86499588984E-03 -0.12539471767E-01 -0.52457173673E-02  0.13619989750E-01  0.00000000000E+00 0.  1.
     999901    1    3    3    0    0  0.40046160764E-01  0.11461787710E+00 -0.67561958257E-01  0.89090154952E+00  0.88000000000E+00 0.  1.
        -11    1    4    4    0    0 -0.10078532538E-01 -0.67693508274E-01  0.24815388303E-01  0.72801459451E-01  0.51100000000E-03 0.  1.
         11    1    4    4    0    0 -0.30832624116E-01 -0.34384897057E-01  0.47992287321E-01  0.66607001274E-01  0.51100000000E-03 0. -1.
</event>
<event>
 7    1  0.2929965E+004  0.1043930E+01  0.7957747E-01            NaN
         13   -1    0    0    0    0  0.00000000000E+00  0.00000000000E+00  0.74505805969E-08  0.10566000000E+00  0.10566000000E+00 0. -1.
     999900   -1    0    0    0    0 -0.00000000000E+00 -0.00000000000E+00 -0.74505805969E-08  0.93827000000E+00  0.93827000000E+00 0. -1.
     999903    2    1    2    0    0 -0.71831460645E-01 -0.63060171771E-01 -0.35556797879E-02  0.10570369730E+00  0.44992052201E-01 0.  0.
         14    1    1    2    0    0 -0.96852373437E-02 -0.42173470655E-01 -0.20519458126E-01  0.47890015779E-01  0.00000000000E+00 0. -1.
     999901    1    1    2    0    0  0.81516697989E-01  0.10523364243E+00  0.24075137914E-01  0.89033628692E+00  0.88000000000E+00 0.  1.
        -11    1    3    3    0    0 -0.47290994141E-02 -0.11562067787E-01  0.14567157543E-01  0.19196588048E-01  0.51100000000E-03 0. -1.
         11    1    3    3    0    0 -0.67102361231E-01 -0.51498103984E-01 -0.18122837331E-01  0.86507109249E-01  0.51100000000E-03 0.  1.
</event>
<event>
 8    1  0.2929965E+004  0.1043930E+01  0.7957747E-01            NaN
         13   -1    0    0    0    0  0.00000000000E+00  0.00000000000E+00  0.74505805969E-08  0.10566000000E+00  0.10566000000E+00 0. -1.
     999900   -1    0    0    0    0 -0.00000000000E+00 -0.00000000000E+00 -0.74505805969E-08  0.93827000000E+00  0.93827000000E+00 0. -1.
     999902    2    1    2    0    0  0.86593054368E-02 -0.30586629872E-02 -0.86923599902E-02  0.10312849966E+01  0.10312074709E+01 0.  0.
     999903    2    3    3    0    0 -0.12016623600E+00 -0.39489818417E-01 -0.41582248640E-01  0.14055215558E+00  0.45016163796E-01 0.  0.
         14    1    1    2    0    0 -0.86593054368E-02  0.30586629872E-02  0.86923599902E-02  0.12645003445E-01  0.00000000000E+00 0. -1.
     999901    1    3    3    0    0  0.12882554144E+00  0.36431155430E-01  0.32889888649E-01  0.89073284097E+00  0.88000000000E+00 0. -1.
        -11    1    4    4    0    0 -0.38853976635E-01  0.82563005519E-02 -0.16193275259E-01  0.42898499785E-01  0.51100000000E-03 0. -1.
         11    1    4    4    0    0 -0.81312259369E-01 -0.47746118969E-01 -0.25388973380E-01  0.97653655797E-01  0.51100000000E-03 0.  1.
</event>
<event>
 8    1  0.2929965E+004  0.1043930E+01  0.7957747E-01            NaN
         13   -1    0    0    0    0  0.00000000000E+00  0.00000000000E+00  0.74505805969E-08  0.10566000000E+00  0.10566000000E+00 0.  1.
     999900   -1    0    0    0    0 -0.00000000000E+00 -0.00000000000E+00 -0.74505805969E-08  0.93827000000E+00  0.93827000000E+00 0. -1.
     999902    2    1    2    0    0 -0.27401271907E-02 -0.17484338649E-01 -0.22254953914E-03  0.10262308496E+01  0.10260782119E+01 0.  0.
     999903    2    3    3    0    0 -0.47981849733E-01 -0.92496221572E-02 -0.12030391882E+00  0.13688605753E+00  0.43323740014E-01 0.  0.
         14    1    1    2    0    0  0.27401271907E-02  0.17484338649E-01  0.22254953914E-03  0.17699150355E-01  0.00000000000E+00 0. -1.
     999901    1    3    3    0    0  0.45241722542E-01 -0.82347164915E-02  0.12008136928E+00  0.88934479212E+00  0.88000000000E+00 0.  1.
        -11    1    4    4    0    0 -0.32099029870E-01 -0.24177562437E-01 -0.55575499795E-01  0.68584251417E-01  0.51100000000E-03 0.  1.
         11    1    4    4    0    0 -0.15882819863E-01  0.14927940280E-01 -0.64728419024E-01  0.68301806112E-01  0.51100000000E-03 0. -1.
</event>
<event>
 8    1  0.2929965E+004  0.1043930E+01  0.7957747E-01            NaN
         13   -1    0    0    0    0  0.00000000000E+00  0.00000000000E+00  0.74505805969E-08  0.10566000000E+00  0.10566000000E+00 0.  1.
     999900   -1    0    0    0    0 -0.00000000000E+00 -0.00000000000E+00 -0.74505805969E-08  0.93827000000E+00  0.93827000000E+00 0.  1.
     999902    2    1    2    0    0 -0.70290673336E-02  0.11019571174E-01 -0.24040391326E-02  0.10306402242E+01  0.10305545369E+01 0.  0.
     999903    2    3    3    0    0  0.12831268121E+00 -0.15612016968E-01 -0.26491102832E-01  0.13956962262E+00  0.45497492190E-01 0.  0.
         14    1    1    2    0    0  0.70290673336E-02 -0.11019571174E-01  0.24040391326E-02  0.13289775792E-01  0.00000000000E+00 0. -1.
     999901    1    3    3    0    0 -0.13534174854E+00  0.26631588143E-01  0.24087063699E-01  0.89107060159E+00  0.88000000000E+00 0.  1.
        -11    1    4    4    0    0  0.68877348051E-02  0.54464936137E-02  0.76848973351E-02  0.11680066416E-01  0.51100000000E-03 0.  1.
         11    1    4    4    0    0  0.12142494640E+00 -0.21058510582E-01 -0.34176000167E-01  0.12788955620E+00  0.51100000000E-03 0. -1.
</event>
<event>
 8    1  0.2929965E+004  0.1043930E+01  0.7957747E-01            NaN
         13   -1    0    0    0    0  0.00000000000E+00  0.00000000000E+00  0.74505805969E-08  0.10566000000E+00  0.10566000000E+00 0. -1.
     999900   -1    0    0    0    0 -0.00000000000E+00 -0.00000000000E+00 -0.74505805969E-08  0.93827000000E+00  0.93827000000E+00 0.  1.
     999902    2    1    2    0    0 -0.11487158373E-01 -0.85594998619E-02 -0.36968968050E-04  0.10296044560E+01  0.10295047909E+01 0.  0.
     999903    2    3    3    0    0  0.61629553242E-01 -0.10035824935E+00  0.60344590586E-01  0.13976233701E+00  0.44967334666E-01 0.  0.
         14    1    1    2    0    0  0.11487158373E-01  0.85594998619E-02  0.36968968050E-04  0.14325544041E-01  0.00000000000E+00 0. -1.
     999901    1    3    3    0    0 -0.73116711615E-01  0.91798749490E-01 -0.60381559554E-01  0.88984211895E+00  0.88000000000E+00 0.  1.
        -11    1    4    4    0    0  0.29302433036E-01 -0.62712638168E-01  0.11572046570E-01  0.70183195643E-01  0.51100000000E-03 0. -1.
         11    1    4    4    0    0  0.32327120206E-01 -0.37645611184E-01  0.48772544016E-01  0.69579141365E-01  0.51100000000E-03 0.  1.
</event>
<event>
 8    1  0.2929965E+004  0.1043930E+01  0.7957747E-01            NaN
         13   -1    0    0    0    0  0.00000000000E+00  0.00000000000E+00  0.74505805969E-08  0.10566000000E+00  0.10566000000E+00 0. -1.
     999900   -1    0    0    0    0 -0.00000000000E+00 -0.00000000000E+00 -0.74505805969E-08  0.93827000000E+00  0.93827000000E+00 0. -1.
     999902    2    1    2    0    0 -0.12608152261E-01  0.59011885694E-02 -0.64397372643E-03  0.10299942821E+01  0.10299000034E+01 0.  0.
     999903    2    3    3    0    0 -0.16238779117E-01 -0.25469586343E-01  0.12916947870E+00  0.13991066843E+00  0.44472948372E-01 0.  0.
         14    1    1    2    0    0  0.12608152261E-01 -0.59011885694E-02  0.64397372643E-03  0.13935717855E-01  0.00000000000E+00 0.  1.
     999901    1    3    3    0    0  0.36306268562E-02  0.31370774912E-01 -0.12981345243E+00  0.89008361371E+00  0.88000000000E+00 0. -1.
        -11    1    4    4    0    0  0.63790353284E-03  0.28629780779E-02  0.83624873684E-01  0.83677859581E-01  0.51100000000E-03 0.  1.
         11    1    4    4    0    0 -0.16876682650E-01 -0.28332564420E-01  0.45544605019E-01  0.56232808850E-01  0.51100000000E-03 0. -1.
</event>
<event>
 8    1  0.2929965E+004  0.1043930E+01  0.7957747E-01            NaN
         13   -1    0    0    0    0  0.00000000000E+00  0.00000000000E+00  0.74505805969E-08  0.10566000000E+00  0.10566000000E+00 0. -1.
     999900   -1    0    0    0    0 -0.00000000000E+00 -0.00000000000E+00 -0.74505805969E-08  0.93827000000E+00  0.93827000000E+00 0. -1.
     999902    2    1    2    0    0 -0.39278160700E-02 -0.12312920185E-01 -0.47311579615E-03  0.10309971124E+01  0.10309159938E+01 0.  0.
     999903    2    3    3    0    0 -0.63538973029E-01 -0.55999539155E-01 -0.10330313580E+00  0.14193242202E+00  0.47959619217E-01 0.  0.
         14    1    1    2    0    0  0.39278160700E-02  0.12312920185E-01  0.47311579615E-03  0.12932887578E-01  0.00000000000E+00 0. -1.
     999901    1    3    3    0    0  0.59611156959E-01  0.43686618970E-01  0.10283002000E+00  0.88906469040E+00  0.88000000000E+00 0.  1.
        -11    1    4    4    0    0 -0.13568063387E-01 -0.27601945358E-01 -0.99993462500E-02  0.32345135308E-01  0.51100000000E-03 0. -1.
         11    1    4    4    0    0 -0.49970909642E-01 -0.28397593796E-01 -0.93303789545E-01  0.10958728671E+00  0.51100000000E-03 0.  1.
</event>
<event>
 8    1  0.2929965E+004  0.1043930E+01  0.7957747E-01            NaN
         13   -1    0    0    0    0  0.00000000000E+00  0.00000000000E+00  0.74505805969E-08  0.10566000000E+00  0.10566000000E+00 0.  1.
     999900   -1    0    0    0    0 -0.00000000000E+00 -0.00000000000E+00 -0.74505805969E-08  0.93827000000E+00  0.93827000000E+00 0.  1.
     999902    2    1    2    0    0 -0.45875865560E-03  0.11066761922E-01  0.10083253301E-01  0.10289514929E+01  0.10288424656E+01 0.  0.
     999903    2    3    3    0    0 -0.90724085069E-01 -0.85017474204E-01  0.41703103040E-01  0.13856965091E+00  0.44761242363E-01 0.  0.
         14    1    1    2    0    0  0.45875865560E-03 -0.11066761922E-01 -0.10083253301E-01  0.14978507138E-01  0.00000000000E+00 0. -1.
     999901    1    3    3    0    0  0.90265326413E-01  0.96084236126E-01 -0.31619849739E-01  0.89038184195E+00  0.88000000000E+00 0.  1.
        -11    1    4    4    0    0 -0.69635090474E-01 -0.36905255498E-01  0.32432313198E-01  0.85224173619E-01  0.51100000000E-03 0.  1.
         11    1    4    4    0    0 -0.21088994595E-01 -0.48112218706E-01  0.92707898427E-02  0.53345477289E-01  0.51100000000E-03 0. -1.
</event>
<event>
 8    1  0.2929965E+004  0.1043930E+01  0.7957747E-01            NaN
         13   -1    0    0    0    0  0.00000000000E+00  0.00000000000E+00  0.74505805969E-08  0.10566000000E+00  0.10566000000E+00 0.  1.
     999900   -1    0    0    0    0 -0.00000000000E+00 -0.00000000000E+00 -0.74505805969E-08  0.93827000000E+00  0.93827000000E+00 0. -1.
     999902    2    1    2    0    0 -0.73397933004E-02 -0.40756911304E-02 -0.11074140804E-01  0.10300332227E+01  0.10299394737E+01 0.  0.
     999903    2    3    3    0    0 -0.10617618294E-01 -0.24473836406E-01  0.12868366738E+00  0.13876498398E+00  0.44548086831E-01 0.  0.
         14    1    1    2    0    0  0.73397933004E-02  0.40756911304E-02  0.11074140804E-01  0.13896777268E-01  0.00000000000E+00 0.  1.
     999901    1    3    3    0    0  0.32778249938E-02  0.20398145276E-01 -0.13975780819E+00  0.89126823876E+00  0.88000000000E+00 0. -1.
        -11    1    4    4    0    0  0.60085598671E-02  0.68164961350E-02  0.56099625323E-02  0.10691127716E-01  0.51100000000E-03 0. -1.
         11    1    4    4    0    0 -0.16626178161E-01 -0.31290332541E-01  0.12307370485E+00  0.12807385626E+00  0.51100000000E-03 0.  1.
</event>
<event>
 8    1  0.2929965E+004  0.1043930E+01  0.7957747E-01            NaN
         13   -1    0    0    0    0  0.00000000000E+00  0.00000000000E+00  0.74505805969E-08  0.10566000000E+00  0.10566000000E+00 0.  1.
     999900   -1    0    0    0    0 -0.00000000000E+00 -0.00000000000E+00 -0.74505805969E-08  0.93827000000E+00  0.93827000000E+00 0.  1.
     999902    2    1    2    0    0 -0.25502295781E-02 -0.54975230073E-02  0.19313898810E-01  0.10236876405E+01  0.10234874851E+01 0.  0.
     999903    2    3    3    0    0  0.82454319215E-01  0.54076398857E-01  0.81069468911E-01  0.13543735151E+00  0.45255339185E-01 0.  0.
         14    1    1    2    0    0  0.25502295781E-02  0.54975230073E-02 -0.19313898810E-01  0.20242359481E-01  0.00000000000E+00 0. -1.
     999901    1    3    3    0    0 -0.85004548793E-01 -0.59573921864E-01 -0.61755570100E-01  0.88825028901E+00  0.88000000000E+00 0.  1.
        -11    1    4    4    0    0  0.67250808778E-01  0.20449669644E-01  0.62779795220E-01  0.94246613089E-01  0.51100000000E-03 0.  1.
         11    1    4    4    0    0  0.15203510436E-01  0.33626729213E-01  0.18289673690E-01  0.41190738423E-01  0.51100000000E-03 0. -1.
</event>
<event>
 7    1  0.2929965E+004  0.1043930E+01  0.7957747E-01            NaN
         13   -1    0    0    0    0  0.00000000000E+00  0.00000000000E+00  0.74505805969E-08  0.10566000000E+00  0.10566000000E+00 0.  1.
     999900   -1    0    0    0    0 -0.00000000000E+00 -0.00000000000E+00 -0.74505805969E-08  0.93827000000E+00  0.93827000000E+00 0.  1.
     999903    2    1    2    0    0 -0.64317200433E-01  0.75471635239E-01 -0.19733945973E-01  0.11043870795E+00  0.44436579449E-01 0.  0.
         14    1    1    2    0    0 -0.97404021249E-02 -0.43006910821E-02 -0.43959680169E-01  0.45230795460E-01  0.00000000000E+00 0. -1.
     999901    1    1    2    0    0  0.74057602558E-01 -0.71170944157E-01  0.63693626142E-01  0.88826049659E+00  0.88000000000E+00 0.  1.
        -11    1    3    3    0    0 -0.45833175059E-01  0.24532757670E-01  0.20600286008E-02  0.52029231916E-01  0.51100000000E-03 0. -1.
         11    1    3    3    0    0 -0.18484025373E-01  0.50938877569E-01 -0.21793974574E-01  0.58409476036E-01  0.51100000000E-03 0.  1.
</event>
<event>
 8    1  0.2929965E+004  0.1043930E+01  0.7957747E-01            NaN
         13   -1    0    0    0    0  0.00000000000E+00  0.00000000000E+00  0.74505805969E-08  0.10566000000E+00  0.10566000000E+00 0.  1.
     999900   -1    0    0    0    0 -0.00000000000E+00 -0.00000000000E+00 -0.74505805969E-08  0.93827000000E+00  0.93827000000E+00 0.  1.
     999902    2    1    2    0    0  0.44982802773E-02  0.75479183902E-02 -0.85732557927E-02  0.10316537501E+01  0.10315807064E+01 0.  0.
     999903    2    3    3    0    0  0.57412247223E-01 -0.90168756848E-01 -0.82187070937E-01  0.14161586869E+00  0.43287051085E-01 0.  0.
         14    1    1    2    0    0 -0.44982802773E-02 -0.75479183902E-02  0.85732557927E-02  0.12276249931E-01  0.00000000000E+00 0.  1.
     999901    1    3    3    0    0 -0.52913966946E-01  0.97716675238E-01  0.73613815144E-01  0.89003788138E+00  0.88000000000E+00 0.  1.
        -11    1    4    4    0    0  0.44847989437E-01 -0.30343032271E-01 -0.36667859023E-01  0.65397513486E-01  0.51100000000E-03 0. -1.
         11    1    4    4    0    0  0.12564257786E-01 -0.59825724578E-01 -0.45519211914E-01  0.76218355199E-01  0.51100000000E-03 0.  1.
</event>
<event>
 8    1  0.2929965E+004  0.1043930E+01  0.7957747E-01            NaN
         13   -1    0    0    0    0  0.00000000000E+00  0.00000000000E+00  0.74505805969E-08  0.10566000000E+00  0.10566000000E+00 0.  1.
     999900   -1    0    0    0    0 -0.00000000000E+00 -0.00000000000E+00 -0.74505805969E-08  0.93827000000E+00  0.93827000000E+00 0. -1.
     999902    2    1    2    0    0  0.70881030461E-02 -0.94659562585E-02 -0.46185884138E-02  0.10312344539E+01  0.10311563034E+01 0.  0.
     999903    2    3    3    0    0 -0.33647463844E-01  0.77905504910E-01  0.10168907885E+00  0.13960982503E+00  0.44145384452E-01 0.  0.
         14    1    1    2    0    0 -0.70881030461E-02  0.94659562585E-02  0.46185884138E-02  0.12695546133E-01  0.00000000000E+00 0.  1.
     999901    1    3    3    0    0  0.40735566891E-01 -0.87371461168E-01 -0.10630766726E+00  0.89162462884E+00  0.88000000000E+00 0.  1.
        -11    1    4    4    0    0 -0.15897717457E-01  0.25235838651E-01  0.68890985710E-01  0.75072058756E-01  0.51100000000E-03 0. -1.
         11    1    4    4    0    0 -0.17749746387E-01  0.52669666259E-01  0.32798093138E-01  0.64537766270E-01  0.51100000000E-03 0.  1.
</event>
<event>
 8    1  0.2929965E+004  0.1043930E+01  0.7957747E-01            NaN
         13   -1    0    0    0    0  0.00000000000E+00  0.00000000000E+00  0.74505805969E-08  0.10566000000E+00  0.10566000000E+00 0. -1.
     999900   -1    0    0    0    0 -0.00000000000E+00 -0.00000000000E+00 -0.74505805969E-08  0.93827000000E+00  0.93827000000E+00 0. -1.
     999902    2    1    2    0    0 -0.91699801584E-02 -0.53306232230E-02 -0.75742282045E-02  0.10308964658E+01  0.10308140716E+01 0.  0.
     999903    2    3    3    0    0 -0.13239955777E-01 -0.89319189860E-01  0.97975778854E-01  0.14060918185E+00  0.44927437857E-01 0.  0.
         14    1    1    2    0    0  0.91699801584E-02  0.53306232230E-02  0.75742282045E-02  0.13033534169E-01  0.00000000000E+00 0. -1.
     999901    1    3    3    0    0  0.40699756185E-02  0.83988566637E-01 -0.10555000706E+00  0.89028728398E+00  0.88000000000E+00 0. -1.
        -11    1    4    4    0    0  0.59162317638E-02 -0.52386914748E-01  0.29312531605E-01  0.60323098936E-01  0.51100000000E-03 0. -1.
         11    1    4    4    0    0 -0.19156187541E-01 -0.36932275112E-01  0.68663247249E-01  0.80286082915E-01  0.51100000000E-03 0.  1.
</event>
<event>
 7    1  0.2929965E+004  0.1043930E+01  0.7957747E-01            NaN
         13   -1    0    0    0    0  0.00000000000E+00  0.00000000000E+00  0.74505805969E-08  0.10566000000E+00  0.10566000000E+00 0. -1.
     999900   -1    0    0    0    0 -0.00000000000E+00 -0.00000000000E+00 -0.74505805969E-08  0.93827000000E+00  0.93827000000E+00 0. -1.
     999902    2    1    2    0    0  0.12611228419E-01  0.72212826544E-02 -0.46205706598E-02  0.10286807483E+01  0.10285677139E+01 0.  0.
         14    1    1    2    0    0 -0.12611228419E-01 -0.72212826544E-02  0.46205706598E-02  0.15249251740E-01  0.00000000000E+00 0. -1.
     999901    1    3    3    0    0  0.13012601066E+00  0.97673355965E-02 -0.67620746770E-01  0.89218873838E+00  0.88000000000E+00 0.  1.
        -11    1    3    3    0    0 -0.10102139133E+00 -0.74752120778E-02  0.42860726493E-01  0.10999319660E+00  0.51100000000E-03 0.  1.
         11    1    3    3    0    0 -0.16493390909E-01  0.49291591357E-02  0.20139449617E-01  0.26498813282E-01  0.51100000000E-03 0. -1.
</event>
<event>
 8    1  0.2929965E+004  0.1043930E+01  0.7957747E-01            NaN
         13   -1    0    0    0    0  0.00000000000E+00  0.00000000000E+00  0.74505805969E-08  0.10566000000E+00  0.10566000000E+00 0. -1.
     999900   -1    0    0    0    0 -0.00000000000E+00 -0.00000000000E+00 -0.74505805969E-08  0.93827000000E+00  0.93827000000E+00 0.  1.
     999902    2    1    2    0    0  0.12466011592E-01 -0.45114201773E-02 -0.37887075307E-02  0.10301420102E+01  0.10300497331E+01 0.  0.
     999903    2    3    3    0    0  0.13312859891E+00 -0.64702570320E-02  0.16236396196E-01  0.14168024865E+00  0.45217078881E-01 0.  0.
         14    1    1    2    0    0 -0.12466011592E-01  0.45114201773E-02  0.37887075307E-02  0.13787989766E-01  0.00000000000E+00 0. -1.
     999901    1    3    3    0    0 -0.12066258732E+00  0.19588368547E-02 -0.20025103727E-01  0.88846176159E+00  0.88000000000E+00 0. -1.
        -11    1    4    4    0    0  0.11244639526E+00  0.11046233360E-01  0.18436739669E-01  0.11448312351E+00  0.51100000000E-03 0. -1.
         11    1    4    4    0    0  0.20682203652E-01 -0.17516490392E-01 -0.22003434726E-02  0.27197125141E-01  0.51100000000E-03 0.  1.
</event>
<event>
 8    1  0.2929965E+004  0.1043930E+01  0.7957747E-01            NaN
         13   -1    0    0    0    0  0.00000000000E+00  0.00000000000E+00  0.74505805969E-08  0.10566000000E+00  0.10566000000E+00 0.  1.
     999900   -1    0    0    0    0 -0.00000000000E+00 -0.00000000000E+00 -0.74505805969E-08  0.93827000000E+00  0.93827000000E+00 0. -1.
     999902    2    1    2    0    0  0.59861995416E-02  0.49355700697E-03 -0.94288656641E-02  0.10327504789E+01  0.10326899680E+01 0.  0.
     999903    2    3    3    0    0  0.83530525318E-01 -0.28893679622E-01  0.10110774718E+00  0.14196707377E+00  0.46039983871E-01 0.  0.
         14    1    1    2    0    0 -0.59861995416E-02 -0.49355700697E-03  0.94288656641E-02  0.11179521062E-01  0.00000000000E+00 0.  1.
     999901    1    3    3    0    0 -0.77544325776E-01  0.29387236629E-01 -0.11053661284E+00  0.89078340516E+00  0.88000000000E+00 0. -1.
        -11    1    4    4    0    0  0.44516074934E-01 -0.30208694501E-01  0.83048925349E-01  0.98952671887E-01  0.51100000000E-03 0. -1.
         11    1    4    4    0    0  0.39014450384E-01  0.13150148788E-02  0.18058821827E-01  0.43014401887E-01  0.51100000000E-03 0.  1.
</event>
<event>
 8    1  0.2929965E+004  0.1043930E+01  0.7957747E-01            NaN
         13   -1    0    0    0    0  0.00000000000E+00  0.00000000000E+00  0.74505805969E-08  0.10566000000E+00  0.10566000000E+00 0.  1.
     999900   -1    0    0    0    0 -0.00000000000E+00 -0.00000000000E+00 -0.74505805969E-08  0.93827000000E+00  0.93827000000E+00 0. -1.
     999902    2    1    2    0    0 -0.96989029005E-02  0.83337337409E-02 -0.41726249242E-02  0.10304789542E+01  0.10303911608E+01 0.  0.
     999903    2    3    3    0    0 -0.96304263577E-01 -0.47290755075E-01 -0.80161032824E-01  0.14122712796E+00  0.44814995153E-01 0.  0.
         14    1    1    2    0    0  0.96989029005E-02 -0.83337337409E-02  0.41726249242E-02  0.13451045844E-01  0.00000000000E+00 0.  1.
     999901    1    3    3    0    0  0.86605360676E-01  0.55624488816E-01  0.75988407899E-01  0.88925182619E+00  0.88000000000E+00 0.  1.
        -11    1    4    4    0    0 -0.43688558449E-01 -0.44986300824E-01 -0.34815772156E-01  0.71727655148E-01  0.51100000000E-03 0. -1.
         11    1    4    4    0    0 -0.52615705128E-01 -0.23044542509E-02 -0.45345260667E-01  0.69499472815E-01  0.51100000000E-03 0.  1.
</event>
<event>
 8    1  0.2929965E+004  0.1043930E+01  0.7957747E-01            NaN
         13   -1    0    0    0    0  0.00000000000E+00  0.00000000000E+00  0.74505805969E-08  0.10566000000E+00  0.10566000000E+00 0.  1.
     999900   -1    0    0    0    0 -0.00000000000E+00 -0.00000000000E+00 -0.74505805969E-08  0.93827000000E+00  0.93827000000E+00 0. -1.
     999902    2    1    2    0    0  0.57844372906E-04  0.10989535647E-01  0.90986984704E-02  0.10296625702E+01  0.10295637177E+01 0.  0.
     999903    2    3    3    0    0  0.54583889429E-01  0.73410223885E-01  0.92853946985E-01  0.14180876828E+00  0.55851672608E-01 0.  0.
         14    1    1    2    0    0 -0.57844372906E-04 -0.10989535647E-01 -0.90986984704E-02  0.14267429816E-01  0.00000000000E+00 0. -1.
     999901    1    3    3    0    0 -0.54526045056E-01 -0.62420688239E-01 -0.83755248514E-01  0.88785380191E+00  0.88000000000E+00 0. -1.
        -11    1    4    4    0    0  0.42216055122E-01  0.32782828108E-01  0.82150435896E-01  0.98009511618E-01  0.51100000000E-03 0. -1.
         11    1    4    4    0    0  0.12367834307E-01  0.40627395777E-01  0.10703511089E-01  0.43799256657E-01  0.51100000000E-03 0.  1.
</event>
<event>
 8    1  0.2929965E+004  0.1043930E+01  0.7957747E-01            NaN
         13   -1    0    0    0    0  0.00000000000E+00  0.00000000000E+00  0.74505805969E-08  0.10566000000E+00  0.10566000000E+00 0.  1.
     999900   -1    0    0    0    0 -0.00000000000E+00 -0.00000000000E+00 -0.74505805969E-08  0.93827000000E+00  0.93827000000E+00 0.  1.
     999902    2    1    2    0    0 -0.19346981451E-01 -0.11790417001E-01 -0.10263653255E-01  0.10190570789E+01  0.10187534873E+01 0.  0.
     999903    2    3    3    0    0  0.10769683536E+00  0.41101240078E-01 -0.28636897853E-01  0.12817255505E+00  0.48168575513E-01 0.  0.
         14    1    1    2    0    0  0.19346981451E-01  0.11790417001E-01  0.10263653255E-01  0.24872921068E-01  0.00000000000E+00 0.  1.
     999901    1    3    3    0    0 -0.12704381681E+00 -0.52891657079E-01  0.18373244598E-01  0.89088452388E+00  0.88000000000E+00 0. -1.
        -11    1    4    4    0    0  0.44552862455E-01 -0.54863564214E-02 -0.20268547826E-01  0.49255789626E-01  0.51100000000E-03 0.  1.
         11    1    4    4    0    0  0.63143972903E-01  0.46587596499E-01 -0.83683500274E-02  0.78916765422E-01  0.51100000000E-03 0. -1.
</event>
<event>
 8    1  0.2929965E+004  0.1043930E+01  0.7957747E-01            NaN
         13   -1    0    0    0    0  0.00000000000E+00  0.00000000000E+00  0.74505805969E-08  0.10566000000E+00  0.10566000000E+00 0. -1.
     999900   -1    0    0    0    0 -0.00000000000E+00 -0.00000000000E+00 -0.74505805969E-08  0.93827000000E+00  0.93827000000E+00 0. -1.
     999902    2    1    2    0    0  0.71041622936E-02 -0.90062413654E-02 -0.74010376386E-02  0.10302787413E+01  0.10301882973E+01 0.  0.
     999903    2    3    3    0    0 -0.99396209403E-01 -0.87064092596E-01  0.13555726072E-01  0.14018068871E+00  0.44800726728E-01 0.  0.
         14    1    1    2    0    0 -0.71041622936E-02  0.90062413654E-02  0.74010376386E-02  0.13651258680E-01  0.00000000000E+00 0. -1.
     999901    1    3    3    0    0  0.10650037170E+00  0.78057851230E-01 -0.20956763710E-01  0.89009805261E+00  0.88000000000E+00 0.  1.
        -11    1    4    4    0    0  0.10868475402E-02  0.24102884014E-02 -0.36527782187E-02  0.45381314953E-02  0.51100000000E-03 0.  1.
         11    1    4    4    0    0 -0.10048305694E+00 -0.89474380997E-01  0.17208504290E-01  0.13564255722E+00  0.51100000000E-03 0. -1.
</event>
<event>
 8    1  0.2929965E+004  0.1043930E+01  0.7957747E-01            NaN
         13   -1    0    0    0    0  0.00000000000E+00  0.00000000000E+00  0.74505805969E-08  0.10566000000E+00  0.10566000000E+00 0.  1.
     999900   -1    0    0    0    0 -0.00000000000E+00 -0.00000000000E+00 -0.74505805969E-08  0.93827000000E+00  0.93827000000E+00 0.  1.
     999902    2    1    2    0    0  0.15586784903E-02 -0.10893638596E-01  0.92114609280E-02  0.10295789773E+01  0.10294789549E+01 0.  0.
     999903    2    3    3    0    0  0.27136330799E-01 -0.42710485231E-01  0.12033316225E+00  0.14165186286E+00  0.54996493672E-01 0.  0.
         14    1    1    2    0    0 -0.15586784903E-02  0.10893638596E-01 -0.92114609280E-02  0.14351022713E-01  0.00000000000E+00 0. -1.
     999901    1    3    3    0    0 -0.25577652309E-01  0.31816846635E-01 -0.11112170133E+00  0.88792711443E+00  0.88000000000E+00 0.  1.
        -11    1    4    4    0    0  0.25256643840E-01 -0.26355306231E-01  0.11972786404E+00  0.12516997553E+00  0.51100000000E-03 0.  1.
         11    1    4    4    0    0  0.18796869591E-02 -0.16355179000E-01  0.60529821275E-03  0.16481887334E-01  0.51100000000E-03 0. -1.
</event>
<event>
 8    1  0.2929965E+004  0.1043930E+01  0.7957747E-01            NaN
         13   -1    0    0    0    0  0.00000000000E+00  0.00000000000E+00  0.74505805969E-08  0.10566000000E+00  0.10566000000E+00 0.  1.
     999900   -1    0    0    0    0 -0.00000000000E+00 -0.00000000000E+00 -0.74505805969E-08  0.93827000000E+00  0.93827000000E+00 0. -1.
     999902    2    1    2    0    0  0.59485505537E-02  0.11183791967E-01  0.58374484448E-02  0.10299823027E+01  0.10298878607E+01 0.  0.
     999903    2    3    3    0    0 -0.59626614119E-01  0.20459613809E-01  0.11724754981E+00  0.14048898972E+00  0.44902554365E-01 0.  0.
         14    1    1    2    0    0 -0.59485505537E-02 -0.11183791967E-01 -0.58374484448E-02  0.13947697330E-01  0.00000000000E+00 0.  1.
     999901    1    3    3    0    0  0.65575164673E-01 -0.92758218421E-02 -0.11141010136E+00  0.88949331295E+00  0.88000000000E+00 0. -1.
        -11    1    4    4    0    0 -0.30290109668E-01 -0.63461676352E-02  0.24134286259E-01  0.39249069819E-01  0.51100000000E-03 0. -1.
         11    1    4    4    0    0 -0.29336504450E-01  0.26805781444E-01  0.93113263550E-01  0.10123991990E+00  0.51100000000E-03 0.  1.
</event>
<event>
 8    1  0.2929965E+004  0.1043930E+01  0.7957747E-01            NaN
         13   -1    0    0    0    0  0.00000000000E+00  0.00000000000E+00  0.74505805969E-08  0.10566000000E+00  0.10566000000E+00 0.  1.
     999900   -1    0    0    0    0 -0.00000000000E+00 -0.00000000000E+00 -0.74505805969E-08  0.93827000000E+00  0.93827000000E+00 0.  1.
     999902    2    1    2    0    0  0.96233133071E-02  0.95367996899E-02  0.16498008141E-03  0.10303806116E+01  0.10302915213E+01 0.  0.
     999903    2    3    3    0    0  0.13725159340E-01 -0.52335315237E-01 -0.12017375087E+00  0.14002877446E+00  0.47317671738E-01 0.  0.
         14    1    1    2    0    0 -0.96233133071E-02 -0.95367996899E-02 -0.16498008141E-03  0.13549388391E-01  0.00000000000E+00 0.  1.
     999901    1    3    3    0    0 -0.41018460326E-02  0.61872114927E-01  0.12033873095E+00  0.89035183715E+00  0.88000000000E+00 0. -1.
        -11    1    4    4    0    0  0.19964868973E-01 -0.37653246627E-01 -0.40579627450E-01  0.58850065927E-01  0.51100000000E-03 0.  1.
         11    1    4    4    0    0 -0.62397096336E-02 -0.14682068611E-01 -0.79594123422E-01  0.81178708534E-01  0.51100000000E-03 0. -1.
</event>
<event>
 8    1  0.2929965E+004  0.1043930E+01  0.7957747E-01            NaN
         13   -1    0    0    0    0  0.00000000000E+00  0.00000000000E+00  0.74505805969E-08  0.10566000000E+00  0.10566000000E+00 0.  1.
     999900   -1    0    0    0    0 -0.00000000000E+00 -0.00000000000E+00 -0.74505805969E-08  0.93827000000E+00  0.93827000000E+00 0. -1.
     999902    2    1    2    0    0 -0.98296060846E-03 -0.38144841687E-02  0.13045097897E-01  0.10303031486E+01  0.10302130298E+01 0.  0.
     999903    2    3    3    0    0  0.60202273214E-01  0.11795502349E+00  0.36142112848E-02  0.13976376849E+00  0.44532540822E-01 0.  0.
         14    1    1    2    0    0  0.98296060846E-03  0.38144841687E-02 -0.13045097897E-01  0.13626851441E-01  0.00000000000E+00 0. -1.
     999901    1    3    3    0    0 -0.61185233823E-01 -0.12176950766E+00  0.94308866127E-02  0.89053938007E+00  0.88000000000E+00 0. -1.
        -11    1    4    4    0    0  0.63297858204E-01  0.96526732599E-01  0.13000003370E-01  0.11616062228E+00  0.51100000000E-03 0.  1.
         11    1    4    4    0    0 -0.30955849895E-02  0.21428290892E-01 -0.93857920852E-02  0.23603146211E-01  0.51100000000E-03 0. -1.
</event>
<event>
 8    1  0.2929965E+004  0.1043930E+01  0.7957747E-01            NaN
         13   -1    0    0    0    0  0.00000000000E+00  0.00000000000E+00  0.74505805969E-08  0.10566000000E+00  0.10566000000E+00 0. -1.
     999900   -1    0    0    0    0 -0.00000000000E+00 -0.00000000000E+00 -0.74505805969E-08  0.93827000000E+00  0.93827000000E+00 0.  1.
     999902    2    1    2    0    0  0.96151250071E-02  0.72823700867E-02 -0.18921933706E-02  0.10317208256E+01  0.10316485827E+01 0.  0.
     999903    2    3    3    0    0 -0.17239067908E-02  0.58879054298E-01 -0.12138350996E+00  0.14207540964E+00  0.44516857975E-01 0.  0.
         14    1    1    2    0    0 -0.96151250071E-02 -0.72823700867E-02  0.18921933706E-02  0.12209174367E-01  0.00000000000E+00 0. -1.
     999901    1    3    3    0    0  0.11339031798E-01 -0.51596684211E-01  0.11949131659E+00  0.88964541600E+00  0.88000000000E+00 0. -1.
        -11    1    4    4    0    0  0.71555572889E-02  0.30162473267E-01 -0.10125831613E+00  0.10589846317E+00  0.51100000000E-03 0.  1.
         11    1    4    4    0    0 -0.88794640797E-02  0.28716581031E-01 -0.20125193824E-01  0.36176946470E-01  0.51100000000E-03 0. -1.
</event>
<event>
 7    1  0.2929965E+004  0.1043930E+01  0.7957747E-01            NaN
         13   -1    0    0    0    0  0.00000000000E+00  0.00000000000E+00  0.74505805969E-08  0.10566000000E+00  0.10566000000E+00 0. -1.
     999900   -1    0    0    0    0 -0.00000000000E+00 -0.00000000000E+00 -0.74505805969E-08  0.93827000000E+00  0.93827000000E+00 0. -1.
     999903    2    1    2    0    0 -0.85288605766E-01 -0.95616218770E-02 -0.99320489538E-02  0.97362027304E-01  0.44890398504E-01 0.  0.
         14    1    1    2    0    0 -0.85925247921E-02  0.50853803968E-01  0.31345272235E-01  0.60352853717E-01  0.00000000000E+00 0. -1.
     999901    1    1    2    0    0  0.93881130558E-01 -0.41292182091E-01 -0.21413223281E-01  0.88621511898E+00  0.88000000000E+00 0. -1.
        -11    1    3    3    0    0 -0.91484403690E-02 -0.17810720066E-01  0.69136990909E-03  0.20041327896E-01  0.51100000000E-03 0.  1.
         11    1    3    3    0    0 -0.76140165397E-01  0.82490981893E-02 -0.10623418863E-01  0.77320699408E-01  0.51100000000E-03 0. -1.
</event>
<event>
 8    1  0.2929965E+004  0.1043930E+01  0.7957747E-01            NaN
         13   -1    0    0    0    0  0.00000000000E+00  0.00000000000E+00  0.74505805969E-08  0.10566000000E+00  0.10566000000E+00 0.  1.
     999900   -1    0    0    0    0 -0.00000000000E+00 -0.00000000000E+00 -0.74505805969E-08  0.93827000000E+00  0.93827000000E+00 0. -1.
     999902    2    1    2    0    0 -0.10428442391E-02  0.13709862746E-01 -0.47719481941E-02  0.10293759851E+01  0.10292730927E+01 0.  0.
     999903    2    3    3    0    0  0.12396637360E+00 -0.75269023694E-02 -0.44767947406E-01  0.13938835332E+00  0.44728378955E-01 0.  0.
         14    1    1    2    0    0  0.10428442391E-02 -0.13709862746E-01  0.47719481941E-02  0.14554014916E-01  0.00000000000E+00 0. -1.
     999901    1    3    3    0    0 -0.12500921784E+00  0.21236765115E-01  0.39995999211E-01  0.88998763176E+00  0.88000000000E+00 0.  1.
        -11    1    4    4    0    0  0.57865695954E-01  0.16562251645E-01 -0.10383864940E-01  0.61080542892E-01  0.51100000000E-03 0.  1.
         11    1    4    4    0    0  0.66100677645E-01 -0.24089154015E-01 -0.34384082465E-01  0.78307810430E-01  0.51100000000E-03 0. -1.
</event>
<event>
 8    1  0.2929965E+004  0.1043930E+01  0.7957747E-01            NaN
         13   -1    0    0    0    0  0.00000000000E+00  0.00000000000E+00  0.74505805969E-08  0.10566000000E+00  0.10566000000E+00 0. -1.
     999900   -1    0    0    0    0 -0.00000000000E+00 -0.00000000000E+00 -0.74505805969E-08  0.93827000000E+00  0.93827000000E+00 0. -1.
     999902    2    1    2    0    0  0.12769192369E-02  0.69625585031E-02 -0.10588654407E-01  0.10311931501E+01  0.10311144871E+01 0.  0.
     999903    2    3    3    0    0 -0.46818977795E-03  0.28006001028E-01  0.12975535560E+00  0.13982212014E+00  0.43922860549E-01 0.  0.
         14    1    1    2    0    0 -0.12769192369E-02 -0.69625585031E-02  0.10588654407E-01  0.12736849917E-01  0.00000000000E+00 0. -1.
     999901    1    3    3    0    0  0.17451090149E-02 -0.21043442525E-01 -0.14034401000E+00  0.89137102994E+00  0.88000000000E+00 0. -1.
        -11    1    4    4    0    0 -0.18705705539E-01  0.16899500470E-01  0.10040429957E+00  0.10352188671E+00  0.51100000000E-03 0.  1.
         11    1    4    4    0    0  0.18237515761E-01  0.11106500559E-01  0.29351056029E-01  0.36300233426E-01  0.51100000000E-03 0. -1.
</event>
<event>
 8    1  0.2929965E+004  0.1043930E+01  0.7957747E-01            NaN
         13   -1    0    0    0    0  0.00000000000E+00  0.00000000000E+00  0.74505805969E-08  0.10566000000E+00  0.10566000000E+00 0.  1.
     999900   -1    0    0    0    0 -0.00000000000E+00 -0.00000000000E+00 -0.74505805969E-08  0.93827000000E+00  0.93827000000E+00 0. -1.
     999902    2    1    2    0    0 -0.64995060464E-02 -0.51705121244E-02 -0.93099560881E-02  0.10314539006E+01  0.10313784446E+01 0.  0.
     999903    2    3    3    0    0 -0.22598925373E-01  0.56817616840E-01 -0.11959237270E+00  0.14226104700E+00  0.46871279844E-01 0.  0.
         14    1    1    2    0    0  0.64995060464E-02  0.51705121244E-02  0.93099560881E-02  0.12476099424E-01  0.00000000000E+00 0.  1.
     999901    1    3    3    0    0  0.16099419327E-01 -0.61988128964E-01  0.11028241661E+00  0.88919285358E+00  0.88000000000E+00 0.  1.
        -11    1    4    4    0    0  0.13958229116E-01  0.97417870923E-02 -0.33033747663E-01  0.37164824518E-01  0.51100000000E-03 0.  1.
         11    1    4    4    0    0 -0.36557154489E-01  0.47075829748E-01 -0.86558625038E-01  0.10509622248E+00  0.51100000000E-03 0. -1.
</event>
<event>
 8    1  0.2929965E+004  0.1043930E+01  0.7957747E-01            NaN
         13   -1    0    0    0    0  0.00000000000E+00  0.00000000000E+00  0.74505805969E-08  0.10566000000E+00  0.10566000000E+00 0.  1.
     999900   -1    0    0    0    0 -0.00000000000E+00 -0.00000000000E+00 -0.74505805969E-08  0.93827000000E+00  0.93827000000E+00 0. -1.
     999902    2    1    2    0    0 -0.13198593723E-01  0.31179224179E-02  0.31611852241E-02  0.10300045769E+01  0.10299104384E+01 0.  0.
     999903    2    3    3    0    0  0.43614316115E-01  0.37869810764E-01  0.11919256783E+00  0.13989296468E+00  0.45020464254E-01 0.  0.
         14    1    1    2    0    0  0.13198593723E-01 -0.31179224179E-02 -0.31611852241E-02  0.13925423099E-01  0.00000000000E+00 0. -1.
     999901    1    3    3    0    0 -0.56812909838E-01 -0.34751888346E-01 -0.11603138261E+00  0.89011161223E+00  0.88000000000E+00 0. -1.
        -11    1    4    4    0    0  0.64883431785E-02  0.27601269677E-01  0.23823126553E-01  0.37036889242E-01  0.51100000000E-03 0. -1.
         11    1    4    4    0    0  0.37125972937E-01  0.10268541088E-01  0.95369441280E-01  0.10285607543E+00  0.51100000000E-03 0.  1.
</event>
<event>
 8    1  0.2929965E+004  0.1043930E+01  0.7957747E-01            NaN
         13   -1    0    0    0    0  0.00000000000E+00  0.00000000000E+00  0.74505805969E-08  0.10566000000E+00  0.10566000000E+00 0. -1.
     999900   -1    0    0    0    0 -0.00000000000E+00 -0.00000000000E+00 -0.74505805969E-08  0.93827000000E+00  0.93827000000E+00 0. -1.
     999902    2    1    2    0    0 -0.41605856123E-02  0.32865804749E-02  0.12271897658E-01  0.10305616958E+01  0.10304749863E+01 0.  0.
     999903    2    3    3    0    0 -0.92224289965E-01  0.29391544381E-01  0.94216966404E-01  0.14199448991E+00  0.43776887360E-01 0.  0.
         14    1    1    2    0    0  0.41605856123E-02 -0.32865804749E-02 -0.12271897658E-01  0.13368304155E-01  0.00000000000E+00 0.  1.
     999901    1    3    3    0    0  0.88063704352E-01 -0.26104963906E-01 -0.81945068746E-01  0.88856720593E+00  0.88000000000E+00 0. -1.
        -11    1    4    4    0    0 -0.58889915398E-02 -0.25487828506E-02  0.27658140169E-01  0.28397365265E-01  0.51100000000E-03 0. -1.
         11    1    4    4    0    0 -0.86335298425E-01  0.31940327231E-01  0.66558826235E-01  0.11359712465E+00  0.51100000000E-03 0.  1.
</event>
<event>
 8    1  0.2929965E+004  0.1043930E+01  0.7957747E-01            NaN
         13   -1    0    0    0    0  0.00000000000E+00  0.00000000000E+00  0.74505805969E-08  0.10566000000E+00  0.10566000000E+00 0. -1.
     999900   -1    0    0    0    0 -0.00000000000E+00 -0.00000000000E+00 -0.74505805969E-08  0.93827000000E+00  0.93827000000E+00 0. -1.
     999902    2    1    2    0    0 -0.45815164155E-02 -0.13026713374E-01  0.30728610978E-02  0.10297833386E+01  0.10296861640E+01 0.  0.
     999903    2    3    3    0    0 -0.34652386867E-01 -0.24741344185E-01 -0.12532049252E+00  0.13988090400E+00  0.45260572588E-01 0.  0.
         14    1    1    2    0    0  0.45815164155E-02  0.13026713374E-01 -0.30728610978E-02  0.14146661420E-01  0.00000000000E+00 0.  1.
     999901    1    3    3    0    0  0.30070870452E-01  0.11714630811E-01  0.12839335361E+00  0.88990243458E+00  0.88000000000E+00 0.  1.
        -11    1    4    4    0    0  0.81095831542E-02 -0.39249698500E-02 -0.49946239950E-01  0.50754888764E-01  0.51100000000E-03 0.  1.
         11    1    4    4    0    0 -0.42761970021E-01 -0.20816374335E-01 -0.75374252566E-01  0.89126015234E-01  0.51100000000E-03 0. -1.
</event>
<event>
 8    1  0.2929965E+004  0.1043930E+01  0.7957747E-01            NaN
         13   -1    0    0    0    0  0.00000000000E+00  0.00000000000E+00  0.74505805969E-08  0.10566000000E+00  0.10566000000E+00 0. -1.
     999900   -1    0    0    0    0 -0.00000000000E+00 -0.00000000000E+00 -0.74505805969E-08  0.93827000000E+00  0.93827000000E+00 0.  1.
     999902    2    1    2    0    0  0.12028269097E-01  0.86810109796E-02 -0.64501877291E-03  0.10290822642E+01  0.10289751461E+01 0.  0.
     999903    2    3    3    0    0  0.87410341324E-01  0.51711560301E-02 -0.99615462521E-01  0.14032474686E+00  0.45831054791E-01 0.  0.
         14    1    1    2    0    0 -0.12028269097E-01 -0.86810109796E-02  0.64501877291E-03  0.14847735798E-01  0.00000000000E+00 0.  1.
     999901    1    3    3    0    0 -0.75382072227E-01  0.35098549496E-02  0.98970443748E-01  0.88875751734E+00  0.88000000000E+00 0. -1.
        -11    1    4    4    0    0  0.52979396215E-01  0.25413658834E-01 -0.55792947236E-01  0.81029528944E-01  0.51100000000E-03 0. -1.
         11    1    4    4    0    0  0.34430945109E-01 -0.20242502804E-01 -0.43822515285E-01  0.59295217917E-01  0.51100000000E-03 0.  1.
</event>
<event>
 8    1  0.2929965E+004  0.1043930E+01  0.7957747E-01            NaN
         13   -1    0    0    0    0  0.00000000000E+00  0.00000000000E+00  0.74505805969E-08  0.10566000000E+00  0.10566000000E+00 0.  1.
     999900   -1    0    0    0    0 -0.00000000000E+00 -0.00000000000E+00 -0.74505805969E-08  0.93827000000E+00  0.93827000000E+00 0.  1.
     999902    2    1    2    0    0 -0.12339049603E-01  0.90282216208E-03 -0.55144491549E-02  0.10303846546E+01  0.10302956178E+01 0.  0.
     999903    2    3    3    0    0 -0.11662821851E+00 -0.20324739017E-01 -0.64098982890E-01  0.14203844522E+00  0.45288011037E-01 0.  0.
         14    1    1    2    0    0  0.12339049603E-01 -0.90282216208E-03  0.55144491549E-02  0.13545345416E-01  0.00000000000E+00 0.  1.
     999901    1    3    3    0    0  0.10428916890E+00  0.21227561179E-01  0.58584533736E-01  0.88834620937E+00  0.88000000000E+00 0. -1.
        -11    1    4    4    0    0 -0.67562636483E-01 -0.31729275026E-01 -0.49587553112E-01  0.89613856556E-01  0.51100000000E-03 0. -1.
         11    1    4    4    0    0 -0.49065582024E-01  0.11404536010E-01 -0.14511429778E-01  0.52424588660E-01  0.51100000000E-03 0.  1.
</event>
<event>
 8    1  0.2929965E+004  0.1043930E+01  0.7957747E-01            NaN
         13   -1    0    0    0    0  0.00000000000E+00  0.00000000000E+00  0.74505805969E-08  0.10566000000E+00  0.10566000000E+00 0.  1.
     999900   -1    0    0    0    0 -0.00000000000E+00 -0.00000000000E+00 -0.74505805969E-08  0.93827000000E+00  0.93827000000E+00 0. -1.
     999902    2    1    2    0    0 -0.77298164521E-02 -0.40645398862E-02  0.10832381869E-01  0.10300155814E+01  0.10299215926E+01 0.  0.
     999903    2    3    3    0    0 -0.58515058689E-01  0.25739486174E-01  0.11719511660E+00  0.14165729103E+00  0.47387334866E-01 0.  0.
         14    1    1    2    0    0  0.77298164521E-02  0.40645398862E-02 -0.10832381869E-01  0.13914418559E-01  0.00000000000E+00 0. -1.
     999901    1    3    3    0    0  0.50785242237E-01 -0.29804026060E-01 -0.10636273473E+00  0.88835829041E+00  0.88000000000E+00 0. -1.
        -11    1    4    4    0    0 -0.95019249294E-04  0.10666091415E-01  0.50936373005E-01  0.52043729215E-01  0.51100000000E-03 0. -1.
         11    1    4    4    0    0 -0.58420039439E-01  0.15073394759E-01  0.66258743596E-01  0.89613561817E-01  0.51100000000E-03 0.  1.
</event>
<event>
 8    1  0.2929965E+004  0.1043930E+01  0.7957747E-01            NaN
         13   -1    0    0    0    0  0.00000000000E+00  0.00000000000E+00  0.74505805969E-08  0.10566000000E+00  0.10566000000E+00 0. -1.
     999900   -1    0    0    0    0 -0.00000000000E+00 -0.00000000000E+00 -0.74505805969E-08  0.93827000000E+00  0.93827000000E+00 0. -1.
     999902    2    1    2    0    0  0.92363952873E-02 -0.59765614646E-02  0.84088838295E-02  0.10300829927E+01  0.10299899185E+01 0.  0.
     999903    2    3    3    0    0  0.37394702677E-01 -0.80008525774E-01  0.10152151586E+00  0.14163289038E+00  0.44198749644E-01 0.  0.
         14    1    1    2    0    0 -0.92363952873E-02  0.59765614646E-02 -0.84088838295E-02  0.13847007334E-01  0.00000000000E+00 0.  1.
     999901    1    3    3    0    0 -0.28158307389E-01  0.74031964310E-01 -0.93112632026E-01  0.88845010229E+00  0.88000000000E+00 0. -1.
        -11    1    4    4    0    0 -0.61598320003E-02 -0.33330865619E-01  0.45179698164E-01  0.56483239818E-01  0.51100000000E-03 0.  1.
         11    1    4    4    0    0  0.43554534677E-01 -0.46677660156E-01  0.56341817692E-01  0.85149650559E-01  0.51100000000E-03 0. -1.
</event>
<event>
 8    1  0.2929965E+004  0.1043930E+01  0.7957747E-01            NaN
         13   -1    0    0    0    0  0.00000000000E+00  0.00000000000E+00  0.74505805969E-08  0.10566000000E+00  0.10566000000E+00 0. -1.
     999900   -1    0    0    0    0 -0.00000000000E+00 -0.00000000000E+00 -0.74505805969E-08  0.93827000000E+00  0.93827000000E+00 0. -1.
     999902    2    1    2    0    0  0.11663668372E-01  0.59556754326E-02 -0.28076606374E-02  0.10305361884E+01  0.10304491455E+01 0.  0.
     999903    2    3    3    0    0 -0.12582219342E+00  0.20725094749E-01 -0.32654808618E-01  0.13923862299E+00  0.45390568362E-01 0.  0.
         14    1    1    2    0    0 -0.11663668372E-01 -0.59556754326E-02  0.28076606374E-02  0.13393811557E-01  0.00000000000E+00 0. -1.
     999901    1    3    3    0    0  0.13748586180E+00 -0.14769419316E-01  0.29847147980E-01  0.89129756545E+00  0.88000000000E+00 0. -1.
        -11    1    4    4    0    0 -0.85411046351E-01  0.87075462094E-02 -0.42711370175E-01  0.95892598583E-01  0.51100000000E-03 0. -1.
         11    1    4    4    0    0 -0.40411147072E-01  0.12017548539E-01  0.10056561557E-01  0.43346024407E-01  0.51100000000E-03 0.  1.
</event>
<event>
 8    1  0.2929965E+004  0.1043930E+01  0.7957747E-01            NaN
         13   -1    0    0    0    0  0.00000000000E+00  0.00000000000E+00  0.74505805969E-08  0.10566000000E+00  0.10566000000E+00 0.  1.
     999900   -1    0    0    0    0 -0.00000000000E+00 -0.00000000000E+00 -0.74505805969E-08  0.93827000000E+00  0.93827000000E+00 0. -1.
     999902    2    1    2    0    0 -0.10007352301E-01  0.56564963288E-02  0.74986980773E-02  0.10302050766E+01  0.10301136472E+01 0.  0.
     999903    2    3    3    0    0  0.54522579301E-01  0.12031469920E+00  0.13465609002E-01  0.14040385179E+00  0.45646253693E-01 0.  0.
         14    1    1    2    0    0  0.10007352301E-01 -0.56564963288E-02 -0.74986980773E-02  0.13724923448E-01  0.00000000000E+00 0. -1.
     999901    1    3    3    0    0 -0.64529931602E-01 -0.11465820287E+00 -0.59669109246E-02  0.88980122476E+00  0.88000000000E+00 0.  1.
        -11    1    4    4    0    0  0.50203159549E-01  0.61506192284E-01 -0.20707410639E-02  0.79422402429E-01  0.51100000000E-03 0. -1.
         11    1    4    4    0    0  0.43194197523E-02  0.58808506912E-01  0.15536350066E-01  0.60981449364E-01  0.51100000000E-03 0.  1.
</event>
<event>
 8    1  0.2929965E+004  0.1043930E+01  0.7957747E-01            NaN
         13   -1    0    0    0    0  0.00000000000E+00  0.00000000000E+00  0.74505805969E-08  0.10566000000E+00  0.10566000000E+00 0. -1.
     999900   -1    0    0    0    0 -0.00000000000E+00 -0.00000000000E+00 -0.74505805969E-08  0.93827000000E+00  0.93827000000E+00 0. -1.
     999902    2    1    2    0    0 -0.27167871587E-02 -0.13285970514E-01  0.81103330737E-03  0.10303448714E+01  0.10302553073E+01 0.  0.
     999903    2    3    3    0    0  0.92611326096E-01 -0.69738599008E-01  0.66056124408E-01  0.14100170343E+00  0.45582221160E-01 0.  0.
         14    1    1    2    0    0  0.27167871587E-02  0.13285970514E-01 -0.81103330737E-03  0.13585128633E-01  0.00000000000E+00 0.  1.
     999901    1    3    3    0    0 -0.95328113255E-01  0.56452628495E-01 -0.65245091100E-01  0.88934316794E+00  0.88000000000E+00 0. -1.
        -11    1    4    4    0    0  0.56647286272E-01 -0.67309670277E-01  0.52728537878E-01  0.10256737582E+00  0.51100000000E-03 0.  1.
         11    1    4    4    0    0  0.35964039825E-01 -0.24289287317E-02  0.13327586530E-01  0.38434327612E-01  0.51100000000E-03 0. -1.
</event>
<event>
 8    1  0.2929965E+004  0.1043930E+01  0.7957747E-01            NaN
         13   -1    0    0    0    0  0.00000000000E+00  0.00000000000E+00  0.74505805969E-08  0.10566000000E+00  0.10566000000E+00 0. -1.
     999900   -1    0    0    0    0 -0.00000000000E+00 -0.00000000000E+00 -0.74505805969E-08  0.93827000000E+00  0.93827000000E+00 0.  1.
     999902    2    1    2    0    0  0.10230055996E-01  0.22405198398E-02 -0.29080967529E-02  0.10330611913E+01  0.10330040145E+01 0.  0.
     999903    2    3    3    0    0  0.99274246352E-01 -0.71930802279E-01  0.58642167400E-01  0.14333163250E+00  0.45559156855E-01 0.  0.
         14    1    1    2    0    0 -0.10230055996E-01 -0.22405198398E-02  0.29080967529E-02  0.10868808654E-01  0.00000000000E+00 0.  1.
     999901    1    3    3    0    0 -0.89044190356E-01  0.74171322119E-01 -0.61550264153E-01  0.88972955884E+00  0.88000000000E+00 0. -1.
        -11    1    4    4    0    0  0.51344710180E-01 -0.43084674127E-01  0.73439841911E-02  0.67429694000E-01  0.51100000000E-03 0.  1.
         11    1    4    4    0    0  0.47929536172E-01 -0.28846128152E-01  0.51298183209E-01  0.75901938504E-01  0.51100000000E-03 0. -1.
</event>
<event>
 8    1  0.2929965E+004  0.1043930E+01  0.7957747E-01            NaN
         13   -1    0    0    0    0  0.00000000000E+00  0.00000000000E+00  0.74505805969E-08  0.10566000000E+00  0.10566000000E+00 0. -1.
     999900   -1    0    0    0    0 -0.00000000000E+00 -0.00000000000E+00 -0.74505805969E-08  0.93827000000E+00  0.93827000000E+00 0. -1.
     999902    2    1    2    0    0  0.21850070291E-02 -0.10590903150E-01  0.67557943649E-02  0.10311792258E+01  0.10311003896E+01 0.  0.
     999903    2    3    3    0    0  0.10241212846E+00  0.77103330868E-01 -0.35192002248E-01  0.14017116063E+00  0.44455703392E-01 0.  0.
         14    1    1    2    0    0 -0.21850070291E-02  0.10590903150E-01 -0.67557943649E-02  0.12750774202E-01  0.00000000000E+00 0. -1.
     999901    1    3    3    0    0 -0.10022712143E+00 -0.87694234019E-01  0.41947796612E-01  0.89100806517E+00  0.88000000000E+00 0.  1.
        -11    1    4    4    0    0  0.65376989528E-01  0.43122415902E-01  0.84261575410E-03  0.78324099965E-01  0.51100000000E-03 0. -1.
         11    1    4    4    0    0  0.37035138931E-01  0.33980914967E-01 -0.36034618002E-01  0.61847060667E-01  0.51100000000E-03 0.  1.
</event>
<event>
 8    1  0.2929965E+004  0.1043930E+01  0.7957747E-01            NaN
         13   -1    0    0    0    0  0.00000000000E+00  0.00000000000E+00  0.74505805969E-08  0.10566000000E+00  0.10566000000E+00 0. -1.
     999900   -1    0    0    0    0 -0.00000000000E+00 -0.00000000000E+00 -0.74505805969E-08  0.93827000000E+00  0.93827000000E+00 0.  1.
     999902    2    1    2    0    0 -0.99375263763E-03 -0.12529164426E-01  0.68131945526E-02  0.10296335975E+01  0.10295343403E+01 0.  0.
     999903    2    3    3    0    0 -0.66264679132E-01  0.11219642781E+00  0.75769670113E-02  0.13844486854E+00  0.46157611324E-01 0.  0.
         14    1    1    2    0    0  0.99375263763E-03  0.12529164426E-01 -0.68131945526E-02  0.14296402538E-01  0.00000000000E+00 0.  1.
     999901    1    3    3    0    0  0.65270926494E-01 -0.12472559224E+00 -0.76377245873E-03  0.89118872892E+00  0.88000000000E+00 0. -1.
        -11    1    4    4    0    0 -0.14223909095E-01  0.49031680970E-01 -0.15595635351E-01  0.53384551058E-01  0.51100000000E-03 0.  1.
         11    1    4    4    0    0 -0.52040770037E-01  0.63164746840E-01  0.23172602363E-01  0.85060317485E-01  0.51100000000E-03 0. -1.
</event>
<event>
 8    1  0.2929965E+004  0.1043930E+01  0.7957747E-01            NaN
         13   -1    0    0    0    0  0.00000000000E+00  0.00000000000E+00  0.74505805969E-08  0.10566000000E+00  0.10566000000E+00 0.  1.
     999900   -1    0    0    0    0 -0.00000000000E+00 -0.00000000000E+00 -0.74505805969E-08  0.93827000000E+00  0.93827000000E+00 0.  1.
     999902    2    1    2    0    0 -0.10293850138E-01  0.47700391047E-03  0.98032791768E-02  0.10297069495E+01  0.10296087153E+01 0.  0.
     999903    2    3    3    0    0 -0.10455788530E+00 -0.43548394261E-01 -0.69081608996E-01  0.14007400855E+00  0.44940462261E-01 0.  0.
         14    1    1    2    0    0  0.10293850138E-01 -0.47700391047E-03 -0.98032791768E-02  0.14223050517E-01  0.00000000000E+00 0. -1.
     999901    1    3    3    0    0  0.94264035165E-01  0.44025398171E-01  0.78884888173E-01  0.88963294093E+00  0.88000000000E+00 0. -1.
        -11    1    4    4    0    0 -0.62974966942E-01 -0.27740097044E-02 -0.29099668243E-01  0.69430493330E-01  0.51100000000E-03 0.  1.
         11    1    4    4    0    0 -0.41582918361E-01 -0.40774384556E-01 -0.39981940753E-01  0.70643515221E-01  0.51100000000E-03 0. -1.
</event>
<event>
 8    1  0.2929965E+004  0.1043930E+01  0.7957747E-01            NaN
         13   -1    0    0    0    0  0.00000000000E+00  0.00000000000E+00  0.74505805969E-08  0.10566000000E+00  0.10566000000E+00 0.  1.
     999900   -1    0    0    0    0 -0.00000000000E+00 -0.00000000000E+00 -0.74505805969E-08  0.93827000000E+00  0.93827000000E+00 0. -1.
     999902    2    1    2    0    0  0.14716761209E-01 -0.98821537497E-03 -0.42281504775E-02  0.10285860472E+01  0.10284715940E+01 0.  0.
     999903    2    3    3    0    0  0.10372174405E+00 -0.79068313125E-01  0.27278665518E-01  0.14009796735E+00  0.43281826836E-01 0.  0.
         14    1    1    2    0    0 -0.14716761209E-01  0.98821537497E-03  0.42281504775E-02  0.15343952768E-01  0.00000000000E+00 0.  1.
     999901    1    3    3    0    0 -0.89004982842E-01  0.78080097750E-01 -0.31506815995E-01  0.88848807988E+00  0.88000000000E+00 0. -1.
        -11    1    4    4    0    0  0.72901896241E-01 -0.74500390610E-01  0.10653314450E-01  0.10477952522E+00  0.51100000000E-03 0. -1.
         11    1    4    4    0    0  0.30819847809E-01 -0.45679225150E-02  0.16625351068E-01  0.35318442126E-01  0.51100000000E-03 0.  1.
</event>
<event>
 8    1  0.2929965E+004  0.1043930E+01  0.7957747E-01            NaN
         13   -1    0    0    0    0  0.00000000000E+00  0.00000000000E+00  0.74505805969E-08  0.10566000000E+00  0.10566000000E+00 0.  1.
     999900   -1    0    0    0    0 -0.00000000000E+00 -0.00000000000E+00 -0.74505805969E-08  0.93827000000E+00  0.93827000000E+00 0. -1.
     999902    2    1    2    0    0  0.34674365183E-02 -0.98639379622E-02 -0.80060436921E-02  0.10307612064E+01  0.10306770821E+01 0.  0.
     999903    2    3    3    0    0  0.51432150834E-01  0.95883152270E-01 -0.76859237353E-01  0.14046697239E+00  0.44550902766E-01 0.  0.
         14    1    1    2    0    0 -0.34674365183E-02  0.98639379622E-02  0.80060436921E-02  0.13168793556E-01  0.00000000000E+00 0.  1.
     999901    1    3    3    0    0 -0.47964714315E-01 -0.10574709023E+00  0.68853193661E-01  0.89029423405E+00  0.88000000000E+00 0.  1.
        -11    1    4    4    0    0  0.24356657025E-01  0.16020947466E-01 -0.48123549067E-02  0.29552282144E-01  0.51100000000E-03 0. -1.
         11    1    4    4    0    0  0.27075493808E-01  0.79862204804E-01 -0.72046882447E-01  0.11091469025E+00  0.51100000000E-03 0.  1.
</event>
<event>
 8    1  0.2929965E+004  0.1043930E+01  0.7957747E-01            NaN
         13   -1    0    0    0    0  0.00000000000E+00  0.00000000000E+00  0.74505805969E-08  0.10566000000E+00  0.10566000000E+00 0. -1.
     999900   -1    0    0    0    0 -0.00000000000E+00 -0.00000000000E+00 -0.74505805969E-08  0.93827000000E+00  0.93827000000E+00 0.  1.
     999902    2    1    2    0    0  0.11981027531E-01 -0.55199559851E-02 -0.50870571363E-02  0.10297916449E+01  0.10296945852E+01 0.  0.
     999903    2    3    3    0    0  0.11532763694E+00 -0.53127995719E-01  0.42327380063E-01  0.14119996365E+00  0.44975269421E-01 0.  0.
         14    1    1    2    0    0 -0.11981027531E-01  0.55199559851E-02  0.50870571363E-02  0.14138355106E-01  0.00000000000E+00 0. -1.
     999901    1    3    3    0    0 -0.10334660941E+00  0.47608039734E-01 -0.47414437200E-01  0.88859168125E+00  0.88000000000E+00 0. -1.
        -11    1    4    4    0    0  0.10749075571E+00 -0.32181873836E-01  0.32950264557E-01  0.11694407476E+00  0.51100000000E-03 0. -1.
         11    1    4    4    0    0  0.78368812302E-02 -0.20946121882E-01  0.93771155065E-02  0.24255888884E-01  0.51100000000E-03 0.  1.
</event>
<event>
 8    1  0.2929965E+004  0.1043930E+01  0.7957747E-01            NaN
         13   -1    0    0    0    0  0.00000000000E+00  0.00000000000E+00  0.74505805969E-08  0.10566000000E+00  0.10566000000E+00 0.  1.
     999900   -1    0    0    0    0 -0.00000000000E+00 -0.00000000000E+00 -0.74505805969E-08  0.93827000000E+00  0.93827000000E+00 0. -1.
     999902    2    1    2    0    0  0.36157537290E-02  0.12678169577E-01  0.67503282273E-02  0.10291186331E+01  0.10290120429E+01 0.  0.
     999903    2    3    3    0    0  0.33631496762E-01 -0.10623141589E+00 -0.68846688767E-01  0.13740380012E+00  0.41518025451E-01 0.  0.
         14    1    1    2    0    0 -0.36157537290E-02 -0.12678169577E-01 -0.67503282273E-02  0.14811366920E-01  0.00000000000E+00 0.  1.
     999901    1    3    3    0    0 -0.30015743033E-01  0.11890958546E+00  0.75597016994E-01  0.89171483296E+00  0.88000000000E+00 0.  1.
        -11    1    4    4    0    0 -0.71065086611E-02 -0.23109846631E-01 -0.43242312846E-02  0.24566798201E-01  0.51100000000E-03 0.  1.
         11    1    4    4    0    0  0.40738005423E-01 -0.83121569255E-01 -0.64522457482E-01  0.11283700192E+00  0.51100000000E-03 0. -1.
</event>
<event>
 8    1  0.2929965E+004  0.1043930E+01  0.7957747E-01            NaN
         13   -1    0    0    0    0  0.00000000000E+00  0.00000000000E+00  0.74505805969E-08  0.10566000000E+00  0.10566000000E+00 0. -1.
     999900   -1    0    0    0    0 -0.00000000000E+00 -0.00000000000E+00 -0.74505805969E-08  0.93827000000E+00  0.93827000000E+00 0. -1.
     999902    2    1    2    0    0 -0.11720832937E-01  0.45647404494E-02 -0.59199833881E-02  0.10300281662E+01  0.10299343485E+01 0.  0.
     999903    2    3    3    0    0 -0.26643962652E-01  0.11150576464E+00 -0.68609163698E-01  0.14121490358E+00  0.45727402667E-01 0.  0.
         14    1    1    2    0    0  0.11720832937E-01 -0.45647404494E-02  0.59199833881E-02  0.13901833815E-01  0.00000000000E+00 0. -1.
     999901    1    3    3    0    0  0.14923129715E-01 -0.10694102419E+00  0.62689180310E-01  0.88881326261E+00  0.88000000000E+00 0.  1.
        -11    1    4    4    0    0 -0.30340916228E-01  0.55650502379E-01 -0.54227524536E-01  0.83417235334E-01  0.51100000000E-03 0.  1.
         11    1    4    4    0    0  0.36969535756E-02  0.55855262265E-01 -0.14381639163E-01  0.57797668244E-01  0.51100000000E-03 0. -1.
</event>
<event>
 8    1  0.2929965E+004  0.1043930E+01  0.7957747E-01            NaN
         13   -1    0    0    0    0  0.00000000000E+00  0.00000000000E+00  0.74505805969E-08  0.10566000000E+00  0.10566000000E+00 0.  1.
     999900   -1    0    0    0    0 -0.00000000000E+00 -0.00000000000E+00 -0.74505805969E-08  0.93827000000E+00  0.93827000000E+00 0. -1.
     999902    2    1    2    0    0 -0.56954392516E-02  0.12176268362E-01  0.98441616136E-03  0.10304515500E+01  0.10303633962E+01 0.  0.
     999903    2    3    3    0    0  0.75948021807E-01  0.20554102518E-01 -0.10682772496E+00  0.14008123343E+00  0.44944588019E-01 0.  0.
         14    1    1    2    0    0  0.56954392516E-02 -0.12176268362E-01 -0.98441616136E-03  0.13478450010E-01  0.00000000000E+00 0.  1.
     999901    1    3    3    0    0 -0.81643461059E-01 -0.83778341554E-02  0.10781214112E+00  0.89037031656E+00  0.88000000000E+00 0.  1.
        -11    1    4    4    0    0 -0.14420099670E-02  0.10849366434E-01 -0.56455728111E-02  0.12325654471E-01  0.51100000000E-03 0.  1.
         11    1    4    4    0    0  0.77390031774E-01  0.97047360832E-02 -0.10118215215E+00  0.12775557896E+00  0.51100000000E-03 0. -1.
</event>
<event>
 8    1  0.2929965E+004  0.1043930E+01  0.7957747E-01            NaN
         13   -1    0    0    0    0  0.00000000000E+00  0.00000000000E+00  0.74505805969E-08  0.10566000000E+00  0.10566000000E+00 0. -1.
     999900   -1    0    0    0    0 -0.00000000000E+00 -0.00000000000E+00 -0.74505805969E-08  0.93827000000E+00  0.93827000000E+00 0. -1.
     999902    2    1    2    0    0  0.36426679714E-02 -0.12258586756E-01  0.53116888278E-02  0.10300824003E+01  0.10299893181E+01 0.  0.
     999903    2    3    3    0    0 -0.15298922754E-01  0.12247909174E+00 -0.42393054648E-01  0.13834882551E+00  0.45913412910E-01 0.  0.
         14    1    1    2    0    0 -0.36426679714E-02  0.12258586756E-01 -0.53116888278E-02  0.13847599698E-01  0.00000000000E+00 0.  1.
     999901    1    3    3    0    0  0.18941590725E-01 -0.13473767850E+00  0.47704743476E-01  0.89173357479E+00  0.88000000000E+00 0. -1.
        -11    1    4    4    0    0 -0.16389080150E-01  0.12137279234E-01 -0.78132285788E-03  0.20415363866E-01  0.51100000000E-03 0.  1.
         11    1    4    4    0    0  0.10901573962E-02  0.11034181251E+00 -0.41611731791E-01  0.11793346164E+00  0.51100000000E-03 0. -1.
</event>
<event>
 8    1  0.2929965E+004  0.1043930E+01  0.7957747E-01            NaN
         13   -1    0    0    0    0  0.00000000000E+00  0.00000000000E+00  0.74505805969E-08  0.10566000000E+00  0.10566000000E+00 0. -1.
     999900   -1    0    0    0    0 -0.00000000000E+00 -0.00000000000E+00 -0.74505805969E-08  0.93827000000E+00  0.93827000000E+00 0. -1.
     999902    2    1    2    0    0 -0.13124031893E-01 -0.77741715234E-02 -0.78870251013E-02  0.10267578388E+01  0.10266142296E+01 0.  0.
     999903    2    3    3    0    0 -0.56481059137E-01 -0.91338127406E-01 -0.75775291610E-01  0.13913653256E+00  0.45654313201E-01 0.  0.
         14    1    1    2    0    0  0.13124031893E-01  0.77741715234E-02  0.78870251013E-02  0.17172161219E-01  0.00000000000E+00 0. -1.
     999901    1    3    3    0    0  0.43357027244E-01  0.83563955883E-01  0.67888266508E-01  0.88762130622E+00  0.88000000000E+00 0.  1.
        -11    1    4    4    0    0 -0.37284797030E-01 -0.39779036214E-01 -0.61713521113E-01  0.82348938189E-01  0.51100000000E-03 0.  1.
         11    1    4    4    0    0 -0.19196262107E-01 -0.51559091193E-01 -0.14061770496E-01  0.56787594367E-01  0.51100000000E-03 0. -1.
</event>
<event>
 7    1  0.2929965E+004  0.1043930E+01  0.7957747E-01            NaN
         13   -1    0    0    0    0  0.00000000000E+00  0.00000000000E+00  0.74505805969E-08  0.10566000000E+00  0.10566000000E+00 0.  1.
     999900   -1    0    0    0    0 -0.00000000000E+00 -0.00000000000E+00 -0.74505805969E-08  0.93827000000E+00  0.93827000000E+00 0.  1.
     999902    2    1    2    0    0 -0.13629401033E-01 -0.12585122101E-03 -0.31415296291E-02  0.10299426622E+01  0.10298476789E+01 0.  0.
         14    1    1    2    0    0  0.13629401033E-01  0.12585122101E-03  0.31415296291E-02  0.13987337826E-01  0.00000000000E+00 0. -1.
     999901    1    3    3    0    0 -0.68435340210E-01  0.10594320810E+00  0.31730147279E-01  0.88955840808E+00  0.88000000000E+00 0.  1.
        -11    1    3    3    0    0  0.36516092083E-01 -0.11031131641E+00 -0.23898550457E-01  0.11863141803E+00  0.51100000000E-03 0. -1.
         11    1    3    3    0    0  0.18289847094E-01  0.42422570890E-02 -0.10973126451E-01  0.21752836069E-01  0.51100000000E-03 0.  1.
</event>
<event>
 8    1  0.2929965E+004  0.1043930E+01  0.7957747E-01            NaN
         13   -1    0    0    0    0  0.00000000000E+00  0.00000000000E+00  0.74505805969E-08  0.10566000000E+00  0.10566000000E+00 0.  1.
     999900   -1    0    0    0    0 -0.00000000000E+00 -0.00000000000E+00 -0.74505805969E-08  0.93827000000E+00  0.93827000000E+00 0. -1.
     999902    2    1    2    0    0  0.50088961634E-02 -0.50574860491E-02 -0.13701282216E-01  0.10284900408E+01  0.10283741399E+01 0.  0.
     999903    2    3    3    0    0  0.20127389243E-02 -0.11465645754E+00 -0.66778864535E-01  0.14009928147E+00  0.44924798791E-01 0.  0.
         14    1    1    2    0    0 -0.50088961634E-02  0.50574860491E-02  0.13701282216E-01  0.15439959206E-01  0.00000000000E+00 0.  1.
     999901    1    3    3    0    0  0.29961572391E-02  0.10959897149E+00  0.53077582319E-01  0.88839075933E+00  0.88000000000E+00 0.  1.
        -11    1    4    4    0    0  0.16862539147E-01 -0.89699069113E-01 -0.36956963399E-01  0.98470028389E-01  0.51100000000E-03 0.  1.
         11    1    4    4    0    0 -0.14849800223E-01 -0.24957388425E-01 -0.29821901136E-01  0.41629253080E-01  0.51100000000E-03 0. -1.
</event>
<event>
 8    1  0.2929965E+004  0.1043930E+01  0.7957747E-01            NaN
         13   -1    0    0    0    0  0.00000000000E+00  0.00000000000E+00  0.74505805969E-08  0.10566000000E+00  0.10566000000E+00 0.  1.
     999900   -1    0    0    0    0 -0.00000000000E+00 -0.00000000000E+00 -0.74505805969E-08  0.93827000000E+00  0.93827000000E+00 0. -1.
     999902    2    1    2    0    0  0.87867117433E-02  0.20529578966E-03  0.84148857474E-02  0.10317620605E+01  0.10316903076E+01 0.  0.
     999903    2    3    3    0    0 -0.13276696684E+00  0.53841702029E-03  0.82639563324E-02  0.14044978207E+00  0.45060969051E-01 0.  0.
         14    1    1    2    0    0 -0.87867117433E-02 -0.20529578966E-03 -0.84148857474E-02  0.12167939504E-01  0.00000000000E+00 0. -1.
     999901    1    3    3    0    0  0.14155367859E+00 -0.33312123064E-03  0.15092941500E-03  0.89131227842E+00  0.88000000000E+00 0. -1.
        -11    1    4    4    0    0 -0.12624326119E+00 -0.10823059446E-01  0.44107704211E-02  0.12678413003E+00  0.51100000000E-03 0. -1.
         11    1    4    4    0    0 -0.65237056543E-02  0.11361476466E-01  0.38531859113E-02  0.13665652038E-01  0.51100000000E-03 0.  1.
</event>
<event>
 8    1  0.2929965E+004  0.1043930E+01  0.7957747E-01            NaN
         13   -1    0    0    0    0  0.00000000000E+00  0.00000000000E+00  0.74505805969E-08  0.10566000000E+00  0.10566000000E+00 0.  1.
     999900   -1    0    0    0    0 -0.00000000000E+00 -0.00000000000E+00 -0.74505805969E-08  0.93827000000E+00  0.93827000000E+00 0. -1.
     999902    2    1    2    0    0 -0.37826871518E-02 -0.68349964420E-02  0.11557160275E-01  0.10299803100E+01  0.10298858408E+01 0.  0.
     999903    2    3    3    0    0 -0.11346863120E+00 -0.44022371916E-01 -0.52041196097E-01  0.14011590560E+00  0.45946506040E-01 0.  0.
         14    1    1    2    0    0  0.37826871518E-02  0.68349964420E-02 -0.11557160275E-01  0.13949690035E-01  0.00000000000E+00 0. -1.
     999901    1    3    3    0    0  0.10968594404E+00  0.37187375474E-01  0.63598356372E-01  0.88986440436E+00  0.88000000000E+00 0.  1.
        -11    1    4    4    0    0 -0.58179883491E-01 -0.46892513712E-01 -0.29650615850E-01  0.80394196473E-01  0.51100000000E-03 0.  1.
         11    1    4    4    0    0 -0.55288747706E-01  0.28701417952E-02 -0.22390580247E-01  0.59721709132E-01  0.51100000000E-03 0. -1.
</event>
<event>
 8    1  0.2929965E+004  0.1043930E+01  0.7957747E-01            NaN
         13   -1    0    0    0    0  0.00000000000E+00  0.00000000000E+00  0.74505805969E-08  0.10566000000E+00  0.10566000000E+00 0. -1.
     999900   -1    0    0    0    0 -0.00000000000E+00 -0.00000000000E+00 -0.74505805969E-08  0.93827000000E+00  0.93827000000E+00 0. -1.
     999902    2    1    2    0    0 -0.95300543423E-02  0.11763045251E-01 -0.13507993357E-02  0.10287307951E+01  0.10286185071E+01 0.  0.
     999903    2    3    3    0    0 -0.36783030756E-01 -0.12628361168E+00 -0.73193253688E-02  0.13753203644E+00  0.39508816657E-01 0.  0.
         14    1    1    2    0    0  0.95300543423E-02 -0.11763045251E-01  0.13507993357E-02  0.15199204854E-01  0.00000000000E+00 0.  1.
     999901    1    3    3    0    0  0.27252976414E-01  0.13804665693E+00  0.59685260331E-02  0.89119875870E+00  0.88000000000E+00 0. -1.
        -11    1    4    4    0    0 -0.42092456511E-01 -0.12256391543E+00 -0.11003973607E-01  0.13005782105E+00  0.51100000000E-03 0. -1.
         11    1    4    4    0    0  0.53094257552E-02 -0.37196962462E-02  0.36846482379E-02  0.74742153869E-02  0.51100000000E-03 0.  1.
</event>
<event>
 8    1  0.2929965E+004  0.1043930E+01  0.7957747E-01            NaN
         13   -1    0    0    0    0  0.00000000000E+00  0.00000000000E+00  0.74505805969E-08  0.10566000000E+00  0.10566000000E+00 0. -1.
     999900   -1    0    0    0    0 -0.00000000000E+00 -0.00000000000E+00 -0.74505805969E-08  0.93827000000E+00  0.93827000000E+00 0. -1.
     999902    2    1    2    0    0  0.73292007369E-02 -0.70240345659E-02  0.91725763806E-02  0.10302482456E+01  0.10301573944E+01 0.  0.
     999903    2    3    3    0    0  0.15924861778E-01  0.11037149699E+00  0.72090866516E-01  0.14018403028E+00  0.44933292123E-01 0.  0.
         14    1    1    2    0    0 -0.73292007369E-02  0.70240345659E-02 -0.91725763806E-02  0.13681754364E-01  0.00000000000E+00 0.  1.
     999901    1    3    3    0    0 -0.85956610413E-02 -0.11739553156E+00 -0.62918290135E-01  0.89006421535E+00  0.88000000000E+00 0. -1.
        -11    1    4    4    0    0  0.97154461553E-02  0.63080259168E-01  0.66473132608E-01  0.92154476128E-01  0.51100000000E-03 0.  1.
         11    1    4    4    0    0  0.62094156228E-02  0.47291237822E-01  0.56177339080E-02  0.48029554156E-01  0.51100000000E-03 0. -1.
</event>
<event>
 8    1  0.2929965E+004  0.1043930E+01  0.7957747E-01            NaN
         13   -1    0    0    0    0  0.00000000000E+00  0.00000000000E+00  0.74505805969E-08  0.10566000000E+00  0.10566000000E+00 0. -1.
     999900   -1    0    0    0    0 -0.00000000000E+00 -0.00000000000E+00 -0.74505805969E-08  0.93827000000E+00  0.93827000000E+00 0. -1.
     999902    2    1    2    0    0  0.11028113119E-01 -0.56671145662E-02 -0.48286401477E-02  0.10306239400E+01  0.10305380413E+01 0.  0.
     999903    2    3    3    0    0  0.68310535440E-01 -0.86327362321E-01 -0.77339705616E-01  0.14211664906E+00  0.45792675595E-01 0.  0.
         14    1    1    2    0    0 -0.11028113119E-01  0.56671145662E-02  0.48286401477E-02  0.13306059978E-01  0.00000000000E+00 0. -1.
     999901    1    3    3    0    0 -0.57282422321E-01  0.80660247755E-01  0.72511065468E-01  0.88850729096E+00  0.88000000000E+00 0.  1.
        -11    1    4    4    0    0  0.20649519877E-02 -0.35891772943E-01 -0.24304388439E-01  0.43398707470E-01  0.51100000000E-03 0. -1.
         11    1    4    4    0    0  0.66245583452E-01 -0.50435589379E-01 -0.53035317177E-01  0.98717941591E-01  0.51100000000E-03 0.  1.
</event>
<event>
 8    1  0.2929965E+004  0.1043930E+01  0.7957747E-01            NaN
         13   -1    0    0    0    0  0.00000000000E+00  0.00000000000E+00  0.74505805969E-08  0.10566000000E+00  0.10566000000E+00 0. -1.
     999900   -1    0    0    0    0 -0.00000000000E+00 -0.00000000000E+00 -0.74505805969E-08  0.93827000000E+00  0.93827000000E+00 0. -1.
     999902    2    1    2    0    0  0.50962477746E-02 -0.12288168659E-01  0.13932366348E-02  0.10305542032E+01  0.10304673958E+01 0.  0.
     999903    2    3    3    0    0 -0.12578354509E+00 -0.34722107797E-01  0.28171104989E-01  0.14018919044E+00  0.42805057803E-01 0.  0.
         14    1    1    2    0    0 -0.50962477746E-02  0.12288168659E-01 -0.13932366348E-02  0.13375796750E-01  0.00000000000E+00 0.  1.
     999901    1    3    3    0    0  0.13087979287E+00  0.22433939137E-01 -0.26777868354E-01  0.89036501281E+00  0.88000000000E+00 0. -1.
        -11    1    4    4    0    0 -0.83978589724E-01 -0.40235885261E-01  0.30406400560E-01  0.97959891337E-01  0.51100000000E-03 0.  1.
         11    1    4    4    0    0 -0.41804955368E-01  0.55137774638E-02 -0.22352955712E-02  0.42229299101E-01  0.51100000000E-03 0. -1.
</event>
<event>
 8    1  0.2929965E+004  0.1043930E+01  0.7957747E-01            NaN
         13   -1    0    0    0    0  0.00000000000E+00  0.00000000000E+00  0.74505805969E-08  0.10566000000E+00  0.10566000000E+00 0. -1.
     999900   -1    0    0    0    0 -0.00000000000E+00 -0.00000000000E+00 -0.74505805969E-08  0.93827000000E+00  0.93827000000E+00 0. -1.
     999902    2    1    2    0    0 -0.93766915320E-02  0.97083132573E-02  0.13654624492E-02  0.10303639328E+01  0.10302746216E+01 0.  0.
     999903    2    3    3    0    0 -0.56505714282E-01  0.11971919459E+00  0.25527396338E-01  0.14193422946E+00  0.44363230611E-01 0.  0.
         14    1    1    2    0    0  0.93766915320E-02 -0.97083132573E-02 -0.13654624492E-02  0.13566067156E-01  0.00000000000E+00 0.  1.
     999901    1    3    3    0    0  0.47129022750E-01 -0.11001088133E+00 -0.24161933889E-01  0.88842970338E+00  0.88000000000E+00 0.  1.
        -11    1    4    4    0    0 -0.66178159340E-03  0.33297073028E-01 -0.69687338401E-02  0.34028773111E-01  0.51100000000E-03 0. -1.
         11    1    4    4    0    0 -0.55843932689E-01  0.86422121561E-01  0.32496130178E-01  0.10790545635E+00  0.51100000000E-03 0.  1.
</event>
<event>
 8    1  0.2929965E+004  0.1043930E+01  0.7957747E-01            NaN
         13   -1    0    0    0    0  0.00000000000E+00  0.00000000000E+00  0.74505805969E-08  0.10566000000E+00  0.10566000000E+00 0.  1.
     999900   -1    0    0    0    0 -0.00000000000E+00 -0.00000000000E+00 -0.74505805969E-08  0.93827000000E+00  0.93827000000E+00 0. -1.
     999902    2    1    2    0    0  0.12359055423E-01 -0.15512271573E-02 -0.73033246346E-02  0.10294907789E+01  0.10293895145E+01 0.  0.
     999903    2    3    3    0    0 -0.78067699747E-01 -0.48785805235E-01 -0.94125940017E-01  0.13935243569E+00  0.45659481095E-01 0.  0.
         14    1    1    2    0    0 -0.12359055423E-01  0.15512271573E-02  0.73033246346E-02  0.14439221148E-01  0.00000000000E+00 0.  1.
     999901    1    3    3    0    0  0.90426755170E-01  0.47234578077E-01  0.86822615382E-01  0.89013834316E+00  0.88000000000E+00 0.  1.
        -11    1    4    4    0    0 -0.12308088707E-01 -0.15791890076E-01 -0.49263550241E-01  0.53179237896E-01  0.51100000000E-03 0. -1.
         11    1    4    4    0    0 -0.65759611039E-01 -0.32993915158E-01 -0.44862389775E-01  0.86173197799E-01  0.51100000000E-03 0.  1.
</event>
<event>
 8    1  0.2929965E+004  0.1043930E+01  0.7957747E-01            NaN
         13   -1    0    0    0    0  0.00000000000E+00  0.00000000000E+00  0.74505805969E-08  0.10566000000E+00  0.10566000000E+00 0. -1.
     999900   -1    0    0    0    0 -0.00000000000E+00 -0.00000000000E+00 -0.74505805969E-08  0.93827000000E+00  0.93827000000E+00 0.  1.
     999902    2    1    2    0    0 -0.91064425242E-03  0.19650418375E-01 -0.29396342556E-02  0.10240400612E+01  0.10238468818E+01 0.  0.
     999903    2    3    3    0    0 -0.42015880985E-01 -0.57973894890E-01 -0.10380443349E+00  0.13393395393E+00  0.45129113218E-01 0.  0.
         14    1    1    2    0    0  0.91064425242E-03 -0.19650418375E-01  0.29396342556E-02  0.19889938784E-01  0.00000000000E+00 0. -1.
     999901    1    3    3    0    0  0.41105236732E-01  0.77624313266E-01  0.10086479924E+00  0.89010610728E+00  0.88000000000E+00 0. -1.
        -11    1    4    4    0    0 -0.14816710861E-01 -0.92889144524E-02 -0.61483975397E-01  0.63924636910E-01  0.51100000000E-03 0.  1.
         11    1    4    4    0    0 -0.27199170124E-01 -0.48684980438E-01 -0.42320458095E-01  0.70009317023E-01  0.51100000000E-03 0. -1.
</event>
<event>
 8    1  0.2929965E+004  0.1043930E+01  0.7957747E-01            NaN
         13   -1    0    0    0    0  0.00000000000E+00  0.00000000000E+00  0.74505805969E-08  0.10566000000E+00  0.10566000000E+00 0.  1.
     999900   -1    0    0    0    0 -0.00000000000E+00 -0.00000000000E+00 -0.74505805969E-08  0.93827000000E+00  0.93827000000E+00 0. -1.
     999902    2    1    2    0    0  0.64509786147E-02  0.54378061696E-02  0.16791079901E-01  0.10251383735E+01  0.10249661261E+01 0.  0.
     999903    2    3    3    0    0  0.91028449362E-01 -0.88747314180E-01  0.15841132438E-01  0.13607983336E+00  0.45874995402E-01 0.  0.
         14    1    1    2    0    0 -0.64509786147E-02 -0.54378061696E-02 -0.16791079901E-01  0.18791626467E-01  0.00000000000E+00 0. -1.
     999901    1    3    3    0    0 -0.84577470747E-01  0.94185120350E-01  0.94994746311E-03  0.88905854017E+00  0.88000000000E+00 0.  1.
        -11    1    4    4    0    0  0.22378670946E-01 -0.53197767426E-01  0.38290405558E-02  0.57842285960E-01  0.51100000000E-03 0.  1.
         11    1    4    4    0    0  0.68649778416E-01 -0.35549546753E-01  0.12012091882E-01  0.78237547401E-01  0.51100000000E-03 0. -1.
</event>
<event>
 8    1  0.2929965E+004  0.1043930E+01  0.7957747E-01            NaN
         13   -1    0    0    0    0  0.00000000000E+00  0.00000000000E+00  0.74505805969E-08  0.10566000000E+00  0.10566000000E+00 0.  1.
     999900   -1    0    0    0    0 -0.00000000000E+00 -0.00000000000E+00 -0.74505805969E-08  0.93827000000E+00  0.93827000000E+00 0.  1.
     999902    2    1    2    0    0 -0.30478162224E-02 -0.10515298648E-01 -0.67145273536E-02  0.10310868864E+01  0.10310068970E+01 0.  0.
     999903    2    3    3    0    0 -0.48283181540E-01 -0.17143879607E-01 -0.12452726133E+00  0.14205931841E+00  0.45261826115E-01 0.  0.
         14    1    1    2    0    0  0.30478162224E-02  0.10515298648E-01  0.67145273536E-02  0.12843113601E-01  0.00000000000E+00 0. -1.
     999901    1    3    3    0    0  0.45235365317E-01  0.66285809591E-02  0.11781273398E+00  0.88902756799E+00  0.88000000000E+00 0. -1.
        -11    1    4    4    0    0 -0.54573020565E-01 -0.51580648945E-02 -0.99536027042E-01  0.11363319061E+00  0.51100000000E-03 0.  1.
         11    1    4    4    0    0  0.62898390253E-02 -0.11985814713E-01 -0.24991234293E-01  0.28426127801E-01  0.51100000000E-03 0. -1.
</event>
<event>
 8    1  0.2929965E+004  0.1043930E+01  0.7957747E-01            NaN
         13   -1    0    0    0    0  0.00000000000E+00  0.00000000000E+00  0.74505805969E-08  0.10566000000E+00  0.10566000000E+00 0.  1.
     999900   -1    0    0    0    0 -0.00000000000E+00 -0.00000000000E+00 -0.74505805969E-08  0.93827000000E+00  0.93827000000E+00 0.  1.
     999902    2    1    2    0    0 -0.49261631607E-02 -0.12444822763E-01  0.56126760255E-02  0.10294164605E+01  0.10293141436E+01 0.  0.
     999903    2    3    3    0    0 -0.37917576004E-01  0.51259263213E-01 -0.11471916726E+00  0.13833487253E+00  0.43712641015E-01 0.  0.
         14    1    1    2    0    0  0.49261631607E-02  0.12444822763E-01 -0.56126760255E-02  0.14513539515E-01  0.00000000000E+00 0. -1.
     999901    1    3    3    0    0  0.32991412844E-01 -0.63704085976E-01  0.12033184329E+00  0.89108158796E+00  0.88000000000E+00 0. -1.
        -11    1    4    4    0    0 -0.13515759423E-01  0.39439246825E-01 -0.36033754850E-01  0.55107372941E-01  0.51100000000E-03 0.  1.
         11    1    4    4    0    0 -0.24401816581E-01  0.11820016389E-01 -0.78685412410E-01  0.83227499584E-01  0.51100000000E-03 0. -1.
</event>
<event>
 8    1  0.2929965E+004  0.1043930E+01  0.7957747E-01            NaN
         13   -1    0    0    0    0  0.00000000000E+00  0.00000000000E+00  0.74505805969E-08  0.10566000000E+00  0.10566000000E+00 0. -1.
     999900   -1    0    0    0    0 -0.00000000000E+00 -0.00000000000E+00 -0.74505805969E-08  0.93827000000E+00  0.93827000000E+00 0. -1.
     999902    2    1    2    0    0 -0.57077296200E-02 -0.11371833456E-01 -0.59132839361E-02  0.10298991875E+01  0.10298036088E+01 0.  0.
     999903    2    3    3    0    0  0.29473766840E-01 -0.92067861299E-01  0.91108093285E-01  0.14020107336E+00  0.44838178962E-01 0.  0.
         14    1    1    2    0    0  0.57077296200E-02  0.11371833456E-01  0.59132839361E-02  0.14030812538E-01  0.00000000000E+00 0.  1.
     999901    1    3    3    0    0 -0.35181496460E-01  0.80696027843E-01 -0.97021377221E-01  0.88969811410E+00  0.88000000000E+00 0. -1.
        -11    1    4    4    0    0  0.29161837501E-01 -0.24465339160E-01  0.24350833360E-01  0.45190594076E-01  0.51100000000E-03 0. -1.
         11    1    4    4    0    0  0.31192933899E-03 -0.67602522140E-01  0.66757259925E-01  0.95010479281E-01  0.51100000000E-03 0.  1.
</event>
<event>
 8    1  0.2929965E+004  0.1043930E+01  0.7957747E-01            NaN
         13   -1    0    0    0    0  0.00000000000E+00  0.00000000000E+00  0.74505805969E-08  0.10566000000E+00  0.10566000000E+00 0.  1.
     999900   -1    0    0    0    0 -0.00000000000E+00 -0.00000000000E+00 -0.74505805969E-08  0.93827000000E+00  0.93827000000E+00 0. -1.
     999902    2    1    2    0    0  0.11740243279E-01 -0.30371965766E-02 -0.58999515605E-02  0.10304441814E+01  0.10303559306E+01 0.  0.
     999903    2    3    3    0    0 -0.47287704552E-01 -0.12355590012E+00 -0.10568160562E-01  0.14025833073E+00  0.45370980430E-01 0.  0.
         14    1    1    2    0    0 -0.11740243279E-01  0.30371965766E-02  0.58999515605E-02  0.13485818614E-01  0.00000000000E+00 0.  1.
     999901    1    3    3    0    0  0.59027947830E-01  0.12051870355E+00  0.46682090014E-02  0.89018585065E+00  0.88000000000E+00 0. -1.
        -11    1    4    4    0    0 -0.21172986877E-01 -0.56558067910E-01 -0.27535285226E-01  0.66374418811E-01  0.51100000000E-03 0. -1.
         11    1    4    4    0    0 -0.26114717674E-01 -0.66997832212E-01  0.16967124664E-01  0.73883911921E-01  0.51100000000E-03 0.  1.
</event>
<event>
 8    1  0.2929965E+004  0.1043930E+01  0.7957747E-01            NaN
         13   -1    0    0    0    0  0.00000000000E+00  0.00000000000E+00  0.74505805969E-08  0.10566000000E+00  0.10566000000E+00 0.  1.
     999900   -1    0    0    0    0 -0.00000000000E+00 -0.00000000000E+00 -0.74505805969E-08  0.93827000000E+00  0.93827000000E+00 0.  1.
     999902    2    1    2    0    0  0.40512123048E-02 -0.83989450503E-02 -0.14164213892E-01  0.10269718293E+01  0.10268318064E+01 0.  0.
     999903    2    3    3    0    0  0.67617289554E-01 -0.10726773983E+00  0.30809808368E-01  0.13801831675E+00  0.44959377351E-01 0.  0.
         14    1    1    2    0    0 -0.40512123048E-02  0.83989450503E-02  0.14164213892E-01  0.16958170723E-01  0.00000000000E+00 0.  1.
     999901    1    3    3    0    0 -0.63566077249E-01  0.98868794779E-01 -0.44974022260E-01  0.88895351253E+00  0.88000000000E+00 0.  1.
        -11    1    4    4    0    0  0.49858003544E-01 -0.72319478415E-01  0.41831199182E-01  0.97293565160E-01  0.51100000000E-03 0. -1.
         11    1    4    4    0    0  0.17759286009E-01 -0.34948261415E-01 -0.11021390813E-01  0.40724751589E-01  0.51100000000E-03 0.  1.
</event>
<event>
 8    1  0.2929965E+004  0.1043930E+01  0.7957747E-01            NaN
         13   -1    0    0    0    0  0.00000000000E+00  0.00000000000E+00  0.74505805969E-08  0.10566000000E+00  0.10566000000E+00 0. -1.
     999900   -1    0    0    0    0 -0.00000000000E+00 -0.00000000000E+00 -0.74505805969E-08  0.93827000000E+00  0.93827000000E+00 0.  1.
     999902    2    1    2    0    0  0.25510440639E-02 -0.15980823285E-01  0.92022117218E-03  0.10277207019E+01  0.10275928667E+01 0.  0.
     999903    2    3    3    0    0 -0.11338285040E+00  0.58254641678E-01  0.18026764603E-01  0.13685359283E+00  0.46418397083E-01 0.  0.
         14    1    1    2    0    0 -0.25510440639E-02  0.15980823285E-01 -0.92022117218E-03  0.16209298124E-01  0.00000000000E+00 0. -1.
     999901    1    3    3    0    0  0.11593389446E+00 -0.74235464963E-01 -0.17106543431E-01  0.89086710904E+00  0.88000000000E+00 0. -1.
        -11    1    4    4    0    0 -0.91390606735E-01  0.65407863059E-01  0.12573503143E-01  0.11308751324E+00  0.51100000000E-03 0. -1.
         11    1    4    4    0    0 -0.21992243665E-01 -0.71532213814E-02  0.54532614599E-02  0.23766079591E-01  0.51100000000E-03 0.  1.
</event>
<event>
 8    1  0.2929965E+004  0.1043930E+01  0.7957747E-01            NaN
         13   -1    0    0    0    0  0.00000000000E+00  0.00000000000E+00  0.74505805969E-08  0.10566000000E+00  0.10566000000E+00 0.  1.
     999900   -1    0    0    0    0 -0.00000000000E+00 -0.00000000000E+00 -0.74505805969E-08  0.93827000000E+00  0.93827000000E+00 0. -1.
     999902    2    1    2    0    0  0.94952104229E-02  0.48911509256E-02  0.86483393855E-02  0.10301867779E+01  0.10300951030E+01 0.  0.
     999903    2    3    3    0    0 -0.95968073749E-01 -0.80857332503E-01  0.39556891108E-01  0.13921503581E+00  0.45478557165E-01 0.  0.
         14    1    1    2    0    0 -0.94952104229E-02 -0.48911509256E-02 -0.86483393855E-02  0.13743222056E-01  0.00000000000E+00 0. -1.
     999901    1    3    3    0    0  0.10546328417E+00  0.85748483428E-01 -0.30908551722E-01  0.89097174214E+00  0.88000000000E+00 0. -1.
        -11    1    4    4    0    0 -0.25087444160E-01 -0.48676310274E-01  0.24185926540E-01  0.59866377876E-01  0.51100000000E-03 0. -1.
         11    1    4    4    0    0 -0.70880629589E-01 -0.32181022229E-01  0.15370964568E-01  0.79348657930E-01  0.51100000000E-03 0.  1.
</event>
<event>
 8    1  0.2929965E+004  0.1043930E+01  0.7957747E-01            NaN
         13   -1    0    0    0    0  0.00000000000E+00  0.00000000000E+00  0.74505805969E-08  0.10566000000E+00  0.10566000000E+00 0.  1.
     999900   -1    0    0    0    0 -0.00000000000E+00 -0.00000000000E+00 -0.74505805969E-08  0.93827000000E+00  0.93827000000E+00 0. -1.
     999902    2    1    2    0    0 -0.96253077629E-02 -0.35397666657E-02 -0.15172220550E-02  0.10335628181E+01  0.10335108226E+01 0.  0.
     999903    2    3    3    0    0 -0.65723113227E-01  0.11722203404E+00  0.20133376456E-01  0.14328245513E+00  0.45431005105E-01 0.  0.
         14    1    1    2    0    0  0.96253077629E-02  0.35397666657E-02  0.15172220550E-02  0.10367181890E-01  0.00000000000E+00 0.  1.
     999901    1    3    3    0    0  0.56097805464E-01 -0.12076180070E+00 -0.21650598511E-01  0.89028036298E+00  0.88000000000E+00 0. -1.
        -11    1    4    4    0    0 -0.25704605932E-01  0.64208679343E-01 -0.10810489161E-01  0.70004350336E-01  0.51100000000E-03 0.  1.
         11    1    4    4    0    0 -0.40018507295E-01  0.53013354696E-01  0.30943865617E-01  0.73278104797E-01  0.51100000000E-03 0. -1.
</event>
<event>
 8    1  0.2929965E+004  0.1043930E+01  0.7957747E-01            NaN
         13   -1    0    0    0    0  0.00000000000E+00  0.00000000000E+00  0.74505805969E-08  0.10566000000E+00  0.10566000000E+00 0. -1.
     999900   -1    0    0    0    0 -0.00000000000E+00 -0.00000000000E+00 -0.74505805969E-08  0.93827000000E+00  0.93827000000E+00 0. -1.
     999902    2    1    2    0    0 -0.10321706461E-02 -0.10630585368E-01 -0.62232992140E-02  0.10315686014E+01  0.10314945348E+01 0.  0.
     999903    2    3    3    0    0  0.86816050525E-01 -0.54021115253E-01 -0.88056619335E-01  0.14235729902E+00  0.45346718232E-01 0.  0.
         14    1    1    2    0    0  0.10321706461E-02  0.10630585368E-01  0.62232992140E-02  0.12361398570E-01  0.00000000000E+00 0. -1.
     999901    1    3    3    0    0 -0.87848221171E-01  0.43390529885E-01  0.81833320121E-01  0.88921130241E+00  0.88000000000E+00 0.  1.
        -11    1    4    4    0    0  0.41778711817E-01 -0.10500741332E-01 -0.59661835151E-01  0.73590230494E-01  0.51100000000E-03 0.  1.
         11    1    4    4    0    0  0.45037338708E-01 -0.43520373921E-01 -0.28394784184E-01  0.68767068528E-01  0.51100000000E-03 0. -1.
</event>
<event>
 8    1  0.2929965E+004  0.1043930E+01  0.7957747E-01            NaN
         13   -1    0    0    0    0  0.00000000000E+00  0.00000000000E+00  0.74505805969E-08  0.10566000000E+00  0.10566000000E+00 0. -1.
     999900   -1    0    0    0    0 -0.00000000000E+00 -0.00000000000E+00 -0.74505805969E-08  0.93827000000E+00  0.93827000000E+00 0.  1.
     999902    2    1    2    0    0 -0.11874034243E-01 -0.25708131055E-02  0.77251734601E-02  0.10295327755E+01  0.10294321035E+01 0.  0.
     999903    2    3    3    0    0  0.95875324733E-01 -0.79446780248E-01 -0.40093695384E-01  0.13835014385E+00  0.45048741480E-01 0.  0.
         14    1    1    2    0    0  0.11874034243E-01  0.25708131055E-02 -0.77251734601E-02  0.14397224532E-01  0.00000000000E+00 0.  1.
     999901    1    3    3    0    0 -0.10774935898E+00  0.76875967142E-01  0.47818868844E-01  0.89118263162E+00  0.88000000000E+00 0. -1.
        -11    1    4    4    0    0  0.44106629033E-01 -0.93890950053E-02 -0.17339147308E-01  0.48316218603E-01  0.51100000000E-03 0. -1.
         11    1    4    4    0    0  0.51768695700E-01 -0.70057685242E-01 -0.22754548076E-01  0.90033925245E-01  0.51100000000E-03 0.  1.
</event>
<event>
 8    1  0.2929965E+004  0.1043930E+01  0.7957747E-01            NaN
         13   -1    0    0    0    0  0.00000000000E+00  0.00000000000E+00  0.74505805969E-08  0.10566000000E+00  0.10566000000E+00 0. -1.
     999900   -1    0    0    0    0 -0.00000000000E+00 -0.00000000000E+00 -0.74505805969E-08  0.93827000000E+00  0.93827000000E+00 0.  1.
     999902    2    1    2    0    0 -0.77889194404E-02 -0.89947342419E-02 -0.64525478535E-02  0.10303945693E+01  0.10303056637E+01 0.  0.
     999903    2    3    3    0    0 -0.38243411972E-02 -0.40553256664E-01 -0.12601347074E+00  0.14174026504E+00  0.50514509922E-01 0.  0.
         14    1    1    2    0    0  0.77889194404E-02  0.89947342419E-02  0.64525478535E-02  0.13535430689E-01  0.00000000000E+00 0.  1.
     999901    1    3    3    0    0 -0.39645782431E-02  0.31558522422E-01  0.11956092289E+00  0.88865430427E+00  0.88000000000E+00 0. -1.
        -11    1    4    4    0    0 -0.26918646789E-01 -0.19420798073E-01 -0.72550387469E-01  0.79784715238E-01  0.51100000000E-03 0.  1.
         11    1    4    4    0    0  0.23094305591E-01 -0.21132458591E-01 -0.53463083275E-01  0.61955549801E-01  0.51100000000E-03 0. -1.
</event>
<event>
 8    1  0.2929965E+004  0.1043930E+01  0.7957747E-01            NaN
         13   -1    0    0    0    0  0.00000000000E+00  0.00000000000E+00  0.74505805969E-08  0.10566000000E+00  0.10566000000E+00 0. -1.
     999900   -1    0    0    0    0 -0.00000000000E+00 -0.00000000000E+00 -0.74505805969E-08  0.93827000000E+00  0.93827000000E+00 0.  1.
     999902    2    1    2    0    0 -0.63524049801E-04  0.74239826222E-02 -0.11222350796E-01  0.10304741198E+01  0.10303862630E+01 0.  0.
     999903    2    3    3    0    0  0.83626916492E-01 -0.93041459146E-01  0.41621325481E-01  0.13924471675E+00  0.44794889500E-01 0.  0.
         14    1    1    2    0    0  0.63524049801E-04 -0.74239826222E-02  0.11222350796E-01  0.13455880152E-01  0.00000000000E+00 0. -1.
     999901    1    3    3    0    0 -0.83690440542E-01  0.10046544177E+00 -0.52843676277E-01  0.89122940310E+00  0.88000000000E+00 0. -1.
        -11    1    4    4    0    0  0.42990853401E-01 -0.51153669431E-01 -0.12418164578E-02  0.66833484134E-01  0.51100000000E-03 0.  1.
         11    1    4    4    0    0  0.40636063092E-01 -0.41887789716E-01  0.42863141939E-01  0.72411232614E-01  0.51100000000E-03 0. -1.
</event>
<event>
 8    1  0.2929965E+004  0.1043930E+01  0.7957747E-01            NaN
         13   -1    0    0    0    0  0.00000000000E+00  0.00000000000E+00  0.74505805969E-08  0.10566000000E+00  0.10566000000E+00 0.  1.
     999900   -1    0    0    0    0 -0.00000000000E+00 -0.00000000000E+00 -0.74505805969E-08  0.93827000000E+00  0.93827000000E+00 0.  1.
     999902    2    1    2    0    0 -0.28457650866E-02  0.46122568700E-02 -0.12409946800E-01  0.10303882840E+01  0.10302992952E+01 0.  0.
     999903    2    3    3    0    0  0.35095190146E-01 -0.74258084710E-01  0.10274144600E+00  0.13858119157E+00  0.43623461752E-01 0.  0.
         14    1    1    2    0    0  0.28457650866E-02 -0.46122568700E-02  0.12409946800E-01  0.13541715989E-01  0.00000000000E+00 0.  1.
     999901    1    3    3    0    0 -0.37940955233E-01  0.78870341580E-01 -0.11515139280E+00  0.89180709244E+00  0.88000000000E+00 0.  1.
        -11    1    4    4    0    0  0.34557461363E-02 -0.56689941871E-01  0.61815416904E-01  0.83946998628E-01  0.51100000000E-03 0.  1.
         11    1    4    4    0    0  0.31639444010E-01 -0.17568142839E-01  0.40926029093E-01  0.54634192941E-01  0.51100000000E-03 0. -1.
</event>
<event>
 8    1  0.2929965E+004  0.1043930E+01  0.7957747E-01            NaN
         13   -1    0    0    0    0  0.00000000000E+00  0.00000000000E+00  0.74505805969E-08  0.10566000000E+00  0.10566000000E+00 0. -1.
     999900   -1    0    0    0    0 -0.00000000000E+00 -0.00000000000E+00 -0.74505805969E-08  0.93827000000E+00  0.93827000000E+00 0. -1.
     999902    2    1    2    0    0 -0.20428899992E-02 -0.11136525816E-01 -0.69607544443E-02  0.10306391118E+01  0.10305534101E+01 0.  0.
     999903    2    3    3    0    0  0.15844123563E-01  0.34773012432E-01  0.12617626427E+00  0.13926203294E+00  0.44869427321E-01 0.  0.
         14    1    1    2    0    0  0.20428899992E-02  0.11136525816E-01  0.69607544443E-02  0.13290888203E-01  0.00000000000E+00 0. -1.
     999901    1    3    3    0    0 -0.17887013562E-01 -0.45909538248E-01 -0.13313701872E+00  0.89137707886E+00  0.88000000000E+00 0. -1.
        -11    1    4    4    0    0  0.14831585724E-02  0.27893529612E-01  0.11817756636E+00  0.12143494993E+00  0.51100000000E-03 0.  1.
         11    1    4    4    0    0  0.14360964990E-01  0.68794828200E-02  0.79986979147E-02  0.17827083010E-01  0.51100000000E-03 0. -1.
</event>
<event>
 8    1  0.2929965E+004  0.1043930E+01  0.7957747E-01            NaN
         13   -1    0    0    0    0  0.00000000000E+00  0.00000000000E+00  0.74505805969E-08  0.10566000000E+00  0.10566000000E+00 0. -1.
     999900   -1    0    0    0    0 -0.00000000000E+00 -0.00000000000E+00 -0.74505805969E-08  0.93827000000E+00  0.93827000000E+00 0.  1.
     999902    2    1    2    0    0 -0.80413654584E-02 -0.96429092042E-02 -0.39907450572E-02  0.10307552020E+01  0.10306710004E+01 0.  0.
     999903    2    3    3    0    0  0.76307535160E-01  0.48889900540E-01  0.95561339943E-01  0.13921078668E+00  0.45106664023E-01 0.  0.
         14    1    1    2    0    0  0.80413654584E-02  0.96429092042E-02  0.39907450572E-02  0.13174798005E-01  0.00000000000E+00 0. -1.
     999901    1    3    3    0    0 -0.84348900619E-01 -0.58532809744E-01 -0.99552085000E-01  0.89154441532E+00  0.88000000000E+00 0.  1.
        -11    1    4    4    0    0  0.64760529164E-01  0.21063300878E-01  0.80756993503E-01  0.10563873296E+00  0.51100000000E-03 0. -1.
         11    1    4    4    0    0  0.11547005996E-01  0.27826599662E-01  0.14804346440E-01  0.33572053716E-01  0.51100000000E-03 0.  1.
</event>
<event>
 8    1  0.2929965E+004  0.1043930E+01  0.7957747E-01            NaN
         13   -1    0    0    0    0  0.00000000000E+00  0.00000000000E+00  0.74505805969E-08  0.10566000000E+00  0.10566000000E+00 0. -1.
     999900   -1    0    0    0    0 -0.00000000000E+00 -0.00000000000E+00 -0.74505805969E-08  0.93827000000E+00  0.93827000000E+00 0.  1.
     999902    2    1    2    0    0 -0.95839318320E-02  0.82559349607E-02 -0.72162101902E-02  0.10293668307E+01  0.10292638079E+01 0.  0.
     999903    2    3    3    0    0 -0.49832837712E-01  0.53288045609E-01  0.11018097997E+00  0.13951854828E+00  0.44750971463E-01 0.  0.
         14    1    1    2    0    0  0.95839318320E-02 -0.82559349607E-02  0.72162101902E-02  0.14563169330E-01  0.00000000000E+00 0. -1.
     999901    1    3    3    0    0  0.40248905880E-01 -0.45032110648E-01 -0.11739719016E+00  0.88984828239E+00  0.88000000000E+00 0.  1.
        -11    1    4    4    0    0 -0.34335093774E-01  0.53771991809E-02  0.37891674434E-01  0.51418411566E-01  0.51100000000E-03 0. -1.
         11    1    4    4    0    0 -0.15497743937E-01  0.47910846428E-01  0.72289305539E-01  0.88100136714E-01  0.51100000000E-03 0.  1.
</event>
<event>
 8    1  0.2929965E+004  0.1043930E+01  0.7957747E-01            NaN
         13   -1    0    0    0    0  0.00000000000E+00  0.00000000000E+00  0.74505805969E-08  0.10566000000E+00  0.10566000000E+00 0.  1.
     999900   -1    0    0    0    0 -0.00000000000E+00 -0.00000000000E+00 -0.74505805969E-08  0.93827000000E+00  0.93827000000E+00 0.  1.
     999902    2    1    2    0    0  0.29727364554E-02 -0.13550354587E-01 -0.28476166742E-02  0.10297681431E+01  0.10296707582E+01 0.  0.
     999903    2    3    3    0    0  0.37236136258E-01 -0.80790530635E-01  0.99546167357E-01  0.14062264942E+00  0.44177487598E-01 0.  0.
         14    1    1    2    0    0 -0.29727364554E-02  0.13550354587E-01  0.28476166742E-02  0.14161856947E-01  0.00000000000E+00 0. -1.
     999901    1    3    3    0    0 -0.34263399803E-01  0.67240176048E-01 -0.10239378403E+00  0.88914549363E+00  0.88000000000E+00 0.  1.
        -11    1    4    4    0    0  0.96538543054E-02 -0.30433603370E-01  0.86038735366E-02  0.33070967295E-01  0.51100000000E-03 0. -1.
         11    1    4    4    0    0  0.27582281953E-01 -0.50356927265E-01  0.90942293821E-01  0.10755168212E+00  0.51100000000E-03 0.  1.
</event>
<event>
 8    1  0.2929965E+004  0.1043930E+01  0.7957747E-01            NaN
         13   -1    0    0    0    0  0.00000000000E+00  0.00000000000E+00  0.74505805969E-08  0.10566000000E+00  0.10566000000E+00 0.  1.
     999900   -1    0    0    0    0 -0.00000000000E+00 -0.00000000000E+00 -0.74505805969E-08  0.93827000000E+00  0.93827000000E+00 0.  1.
     999902    2    1    2    0    0 -0.88409622292E-02 -0.10485184625E-01  0.28386101872E-03  0.10302120451E+01  0.10301207092E+01 0.  0.
     999903    2    3    3    0    0 -0.94837843320E-01 -0.34429588566E-01  0.87981373586E-01  0.14135904726E+00  0.45409746211E-01 0.  0.
         14    1    1    2    0    0  0.88409622292E-02  0.10485184625E-01 -0.28386101872E-03  0.13717954908E-01  0.00000000000E+00 0.  1.
     999901    1    3    3    0    0  0.85996881091E-01  0.23944403940E-01 -0.87697512567E-01  0.88885299783E+00  0.88000000000E+00 0.  1.
        -11    1    4    4    0    0 -0.79156373743E-01 -0.34909658121E-01  0.49209555981E-01  0.99530182634E-01  0.51100000000E-03 0.  1.
         11    1    4    4    0    0 -0.15681469577E-01  0.48006955521E-03  0.38771817605E-01  0.41828864630E-01  0.51100000000E-03 0. -1.
</event>
<event>
 8    1  0.2929965E+004  0.1043930E+01  0.7957747E-01            NaN
         13   -1    0    0    0    0  0.00000000000E+00  0.00000000000E+00  0.74505805969E-08  0.10566000000E+00  0.10566000000E+00 0. -1.
     999900   -1    0    0    0    0 -0.00000000000E+00 -0.00000000000E+00 -0.74505805969E-08  0.93827000000E+00  0.93827000000E+00 0. -1.
     999902    2    1    2    0    0  0.78729397018E-02 -0.16110921121E-02 -0.11744371980E-01  0.10296994318E+01  0.10296010931E+01 0.  0.
     999903    2    3    3    0    0 -0.15579448368E-01 -0.32566436926E-01  0.12569799091E+00  0.13818462489E+00  0.44628618743E-01 0.  0.
         14    1    1    2    0    0 -0.78729397018E-02  0.16110921121E-02  0.11744371980E-01  0.14230568174E-01  0.00000000000E+00 0. -1.
     999901    1    3    3    0    0  0.23452388070E-01  0.30955344814E-01 -0.13744236289E+00  0.89151480694E+00  0.88000000000E+00 0. -1.
        -11    1    4    4    0    0 -0.21821240855E-01 -0.18903679350E-01  0.31249311270E-01  0.42547575974E-01  0.51100000000E-03 0. -1.
         11    1    4    4    0    0  0.62417924875E-02 -0.13662757575E-01  0.94448679638E-01  0.95637048911E-01  0.51100000000E-03 0.  1.
</event>
<event>
 8    1  0.2929965E+004  0.1043930E+01  0.7957747E-01            NaN
         13   -1    0    0    0    0  0.00000000000E+00  0.00000000000E+00  0.74505805969E-08  0.10566000000E+00  0.10566000000E+00 0. -1.
     999900   -1    0    0    0    0 -0.00000000000E+00 -0.00000000000E+00 -0.74505805969E-08  0.93827000000E+00  0.93827000000E+00 0. -1.
     999902    2    1    2    0    0  0.11278327855E-01 -0.58800122400E-02  0.57377965437E-02  0.10299765942E+01  0.10298820744E+01 0.  0.
     999903    2    3    3    0    0  0.63786656781E-01  0.11525032912E+00  0.17796381610E-01  0.14004676910E+00  0.44102271953E-01 0.  0.
         14    1    1    2    0    0 -0.11278327855E-01  0.58800122400E-02 -0.57377965437E-02  0.13953405761E-01  0.00000000000E+00 0.  1.
     999901    1    3    3    0    0 -0.52508328926E-01 -0.12113034136E+00 -0.12058585066E-01  0.88992982514E+00  0.88000000000E+00 0.  1.
        -11    1    4    4    0    0  0.37146178922E-01  0.10108927018E+00  0.20915049354E-01  0.10971134657E+00  0.51100000000E-03 0.  1.
         11    1    4    4    0    0  0.26640477859E-01  0.14161058932E-01 -0.31186677439E-02  0.30335422531E-01  0.51100000000E-03 0. -1.
</event>
<event>
 8    1  0.2929965E+004  0.1043930E+01  0.7957747E-01            NaN
         13   -1    0    0    0    0  0.00000000000E+00  0.00000000000E+00  0.74505805969E-08  0.10566000000E+00  0.10566000000E+00 0. -1.
     999900   -1    0    0    0    0 -0.00000000000E+00 -0.00000000000E+00 -0.74505805969E-08  0.93827000000E+00  0.93827000000E+00 0. -1.
     999902    2    1    2    0    0  0.16303466580E-02  0.60906464859E-02  0.94671242316E-02  0.10325554474E+01  0.10324927949E+01 0.  0.
     999903    2    3    3    0    0  0.12576525431E+00  0.39161327515E-01  0.28380149410E-01  0.14302700620E+00  0.47966476408E-01 0.  0.
         14    1    1    2    0    0 -0.16303466580E-02 -0.60906464859E-02 -0.94671242316E-02  0.11374552565E-01  0.00000000000E+00 0.  1.
     999901    1    3    3    0    0 -0.12413490765E+00 -0.33070681029E-01 -0.18913025179E-01  0.88952844123E+00  0.88000000000E+00 0.  1.
        -11    1    4    4    0    0  0.84938745140E-01  0.31175879725E-02  0.24342698779E-01  0.88414579598E-01  0.51100000000E-03 0. -1.
         11    1    4    4    0    0  0.40826509167E-01  0.36043739542E-01  0.40374506314E-02  0.54612426604E-01  0.51100000000E-03 0.  1.
</event>
<event>
 8    1  0.2929965E+004  0.1043930E+01  0.7957747E-01            NaN
         13   -1    0    0    0    0  0.00000000000E+00  0.00000000000E+00  0.74505805969E-08  0.10566000000E+00  0.10566000000E+00 0. -1.
     999900   -1    0    0    0    0 -0.00000000000E+00 -0.00000000000E+00 -0.74505805969E-08  0.93827000000E+00  0.93827000000E+00 0. -1.
     999902    2    1    2    0    0 -0.13136132722E-01 -0.16955719343E-02  0.33169508585E-02  0.10302758757E+01  0.10301853935E+01 0.  0.
     999903    2    3    3    0    0  0.82220125898E-01  0.59339446127E-01 -0.83313270406E-01  0.13880356278E+00  0.45210718259E-01 0.  0.
         14    1    1    2    0    0  0.13136132722E-01  0.16955719343E-02 -0.33169508585E-02  0.13654124288E-01  0.00000000000E+00 0. -1.
     999901    1    3    3    0    0 -0.95356258620E-01 -0.61035018061E-01  0.86630221265E-01  0.89147231293E+00  0.88000000000E+00 0.  1.
        -11    1    4    4    0    0 -0.56794571890E-02  0.23854426773E-02 -0.60560072915E-02  0.86534915521E-02  0.51100000000E-03 0.  1.
         11    1    4    4    0    0  0.87899583087E-01  0.56954003449E-01 -0.77257263115E-01  0.13015007123E+00  0.51100000000E-03 0. -1.
</event>
<event>
 8    1  0.2929965E+004  0.1043930E+01  0.7957747E-01            NaN
         13   -1    0    0    0    0  0.00000000000E+00  0.00000000000E+00  0.74505805969E-08  0.10566000000E+00  0.10566000000E+00 0. -1.
     999900   -1    0    0    0    0 -0.00000000000E+00 -0.00000000000E+00 -0.74505805969E-08  0.93827000000E+00  0.93827000000E+00 0.  1.
     999902    2    1    2    0    0 -0.29015910133E-02 -0.58177594773E-03 -0.14086106878E-01  0.10295363868E+01  0.10294357657E+01 0.  0.
     999903    2    3    3    0    0 -0.99485444782E-01  0.87262265656E-01 -0.28228929734E-02  0.13983313491E+00  0.45091907958E-01 0.  0.
         14    1    1    2    0    0  0.29015910133E-02  0.58177594773E-03  0.14086106878E-01  0.14393613189E-01  0.00000000000E+00 0. -1.
     999901    1    3    3    0    0  0.96583853769E-01 -0.87844041604E-01 -0.11263213904E-01  0.88970325190E+00  0.88000000000E+00 0. -1.
        -11    1    4    4    0    0 -0.24781237401E-01  0.14948462839E-01  0.17596962453E-01  0.33874481206E-01  0.51100000000E-03 0.  1.
         11    1    4    4    0    0 -0.74704207381E-01  0.72313802818E-01 -0.20419855427E-01  0.10595865370E+00  0.51100000000E-03 0. -1.
</event>
<event>
 8    1  0.2929965E+004  0.1043930E+01  0.7957747E-01            NaN
         13   -1    0    0    0    0  0.00000000000E+00  0.00000000000E+00  0.74505805969E-08  0.10566000000E+00  0.10566000000E+00 0.  1.
     999900   -1    0    0    0    0 -0.00000000000E+00 -0.00000000000E+00 -0.74505805969E-08  0.93827000000E+00  0.93827000000E+00 0.  1.
     999902    2    1    2    0    0 -0.12004935422E-01  0.63938151303E-02  0.52244046433E-02  0.10293596963E+01  0.10292565718E+01 0.  0.
     999903    2    3    3    0    0 -0.96942449332E-01 -0.81062619677E-01 -0.39076322553E-01  0.13985108830E+00  0.45413446489E-01 0.  0.
         14    1    1    2    0    0  0.12004935422E-01 -0.63938151303E-02 -0.52244046433E-02  0.14570303713E-01  0.00000000000E+00 0. -1.
     999901    1    3    3    0    0  0.84937513910E-01  0.87456434807E-01  0.44300727197E-01  0.88950860799E+00  0.88000000000E+00 0. -1.
        -11    1    4    4    0    0 -0.60437455434E-01 -0.38931079113E-01 -0.43328783803E-01  0.83940214243E-01  0.51100000000E-03 0.  1.
         11    1    4    4    0    0 -0.36504993898E-01 -0.42131540564E-01  0.42524612498E-02  0.55910874054E-01  0.51100000000E-03 0. -1.
</event>
<event>
 8    1  0.2929965E+004  0.1043930E+01  0.7957747E-01            NaN
         13   -1    0    0    0    0  0.00000000000E+00  0.00000000000E+00  0.74505805969E-08  0.10566000000E+00  0.10566000000E+00 0.  1.
     999900   -1    0    0    0    0 -0.00000000000E+00 -0.00000000000E+00 -0.74505805969E-08  0.93827000000E+00  0.93827000000E+00 0.  1.
     999902    2    1    2    0    0 -0.12665030433E-01  0.50634337792E-02  0.46614757058E-02  0.10295157462E+01  0.10294148342E+01 0.  0.
     999903    2    3    3    0    0  0.10245314345E+00 -0.80558808133E-01  0.11381401339E-02  0.13789038978E+00  0.45012176804E-01 0.  0.
         14    1    1    2    0    0  0.12665030433E-01 -0.50634337792E-02 -0.46614757058E-02  0.14414253822E-01  0.00000000000E+00 0. -1.
     999901    1    3    3    0    0 -0.11511817389E+00  0.85622241912E-01  0.35233355719E-02  0.89162535639E+00  0.88000000000E+00 0. -1.
        -11    1    4    4    0    0  0.59767287378E-01 -0.21868903698E-01  0.11201793201E-01  0.64622897501E-01  0.51100000000E-03 0. -1.
         11    1    4    4    0    0  0.42685856075E-01 -0.58689904435E-01 -0.10063653067E-01  0.73267492284E-01  0.51100000000E-03 0.  1.
</event>
<event>
 8    1  0.2929965E+004  0.1043930E+01  0.7957747E-01            NaN
         13   -1    0    0    0    0  0.00000000000E+00  0.00000000000E+00  0.74505805969E-08  0.10566000000E+00  0.10566000000E+00 0.  1.
     999900   -1    0    0    0    0 -0.00000000000E+00 -0.00000000000E+00 -0.74505805969E-08  0.93827000000E+00  0.93827000000E+00 0.  1.
     999902    2    1    2    0    0 -0.92625393764E-02  0.46254099456E-02 -0.10504574486E-01  0.10291809276E+01  0.10290752385E+01 0.  0.
     999903    2    3    3    0    0  0.96889757668E-01 -0.31197320718E-01  0.80292712202E-01  0.13744345191E+00  0.45638633626E-01 0.  0.
         14    1    1    2    0    0  0.92625393764E-02 -0.46254099456E-02  0.10504574486E-01  0.14749072445E-01  0.00000000000E+00 0. -1.
     999901    1    3    3    0    0 -0.10615229704E+00  0.35822730663E-01 -0.90797286688E-01  0.89173747565E+00  0.88000000000E+00 0.  1.
        -11    1    4    4    0    0  0.38981403094E-01 -0.29461751296E-02  0.67631612887E-02  0.39676582598E-01  0.51100000000E-03 0. -1.
         11    1    4    4    0    0  0.57908354574E-01 -0.28251145588E-01  0.73529550913E-01  0.97766869312E-01  0.51100000000E-03 0.  1.
</event>
<event>
 8    1  0.2929965E+004  0.1043930E+01  0.7957747E-01            NaN
         13   -1    0    0    0    0  0.00000000000E+00  0.00000000000E+00  0.74505805969E-08  0.10566000000E+00  0.10566000000E+00 0. -1.
     999900   -1    0    0    0    0 -0.00000000000E+00 -0.00000000000E+00 -0.74505805969E-08  0.93827000000E+00  0.93827000000E+00 0.  1.
     999902    2    1    2    0    0  0.62337406337E-03 -0.89955129334E-02 -0.11368427350E-01  0.10294196937E+01  0.10293174228E+01 0.  0.
     999903    2    3    3    0    0  0.85254475126E-01  0.60766580214E-01 -0.81525087680E-01  0.13984050674E+00  0.44137564541E-01 0.  0.
         14    1    1    2    0    0 -0.62337406337E-03  0.89955129334E-02  0.11368427350E-01  0.14510306288E-01  0.00000000000E+00 0. -1.
     999901    1    3    3    0    0 -0.84631101063E-01 -0.69762093148E-01  0.70156660330E-01  0.88957918697E+00  0.88000000000E+00 0. -1.
        -11    1    4    4    0    0  0.75531835320E-01  0.30969568188E-01 -0.65321366511E-01  0.10455292604E+00  0.51100000000E-03 0. -1.
         11    1    4    4    0    0  0.97226398062E-02  0.29797012027E-01 -0.16203721169E-01  0.35287580694E-01  0.51100000000E-03 0.  1.
</event>
<event>
 8    1  0.2929965E+004  0.1043930E+01  0.7957747E-01            NaN
         13   -1    0    0    0    0  0.00000000000E+00  0.00000000000E+00  0.74505805969E-08  0.10566000000E+00  0.10566000000E+00 0. -1.
     999900   -1    0    0    0    0 -0.00000000000E+00 -0.00000000000E+00 -0.74505805969E-08  0.93827000000E+00  0.93827000000E+00 0.  1.
     999902    2    1    2    0    0  0.12221735540E-01  0.56135334940E-03  0.68731407621E-02  0.10298969675E+01  0.10298013584E+01 0.  0.
     999903    2    3    3    0    0  0.47062464486E-02  0.12628469632E+00 -0.38416645108E-01  0.13977674739E+00  0.45735404336E-01 0.  0.
         14    1    1    2    0    0 -0.12221735540E-01 -0.56135334940E-03 -0.68731407621E-02  0.14033032499E-01  0.00000000000E+00 0.  1.
     999901    1    3    3    0    0  0.75154890916E-02 -0.12572334297E+00  0.45289785870E-01  0.89012022011E+00  0.88000000000E+00 0. -1.
        -11    1    4    4    0    0  0.17636501932E-01  0.86907083985E-01 -0.93929062382E-02  0.89176091278E-01  0.51100000000E-03 0. -1.
         11    1    4    4    0    0 -0.12930255483E-01  0.39377612335E-01 -0.29023738869E-01  0.50600656112E-01  0.51100000000E-03 0.  1.
</event>
<event>
 8    1  0.2929965E+004  0.1043930E+01  0.7957747E-01            NaN
         13   -1    0    0    0    0  0.00000000000E+00  0.00000000000E+00  0.74505805969E-08  0.10566000000E+00  0.10566000000E+00 0. -1.
     999900   -1    0    0    0    0 -0.00000000000E+00 -0.00000000000E+00 -0.74505805969E-08  0.93827000000E+00  0.93827000000E+00 0.  1.
     999902    2    1    2    0    0 -0.10757272243E-01  0.51460651327E-02  0.60266860000E-02  0.10305687936E+01  0.10304821767E+01 0.  0.
     999903    2    3    3    0    0  0.96664342771E-01 -0.59409295733E-01 -0.65736840063E-01  0.13879707299E+00  0.45495447548E-01 0.  0.
         14    1    1    2    0    0  0.10757272243E-01 -0.51460651327E-02 -0.60266860000E-02  0.13361206405E-01  0.00000000000E+00 0.  1.
     999901    1    3    3    0    0 -0.10742161501E+00  0.64555360865E-01  0.71763526063E-01  0.89177172060E+00  0.88000000000E+00 0. -1.
        -11    1    4    4    0    0  0.75618161009E-01 -0.46745367697E-01 -0.26972664829E-01  0.92903290816E-01  0.51100000000E-03 0. -1.
         11    1    4    4    0    0  0.21046181762E-01 -0.12663928036E-01 -0.38764175235E-01  0.45893782179E-01  0.51100000000E-03 0.  1.
</event>
<event>
 8    1  0.2929965E+004  0.1043930E+01  0.7957747E-01            NaN
         13   -1    0    0    0    0  0.00000000000E+00  0.00000000000E+00  0.74505805969E-08  0.10566000000E+00  0.10566000000E+00 0.  1.
     999900   -1    0    0    0    0 -0.00000000000E+00 -0.00000000000E+00 -0.74505805969E-08  0.93827000000E+00  0.93827000000E+00 0.  1.
     999902    2    1    2    0    0 -0.11262730092E-01  0.79665628622E-02  0.21347104647E-02  0.10299703366E+01  0.10298757314E+01 0.  0.
     999903    2    3    3    0    0 -0.69118382657E-01  0.10619525875E+00 -0.43921781417E-01  0.14142244614E+00  0.44904360453E-01 0.  0.
         14    1    1    2    0    0  0.11262730092E-01 -0.79665628622E-02 -0.21347104647E-02  0.13959663382E-01  0.00000000000E+00 0.  1.
     999901    1    3    3    0    0  0.57855652564E-01 -0.98228695886E-01  0.46056491881E-01  0.88854789048E+00  0.88000000000E+00 0. -1.
        -11    1    4    4    0    0 -0.24560240367E-01  0.65141143006E-01 -0.58509331856E-02  0.69864643842E-01  0.51100000000E-03 0.  1.
         11    1    4    4    0    0 -0.44558142290E-01  0.41054115742E-01 -0.38070848231E-01  0.71557802298E-01  0.51100000000E-03 0. -1.
</event>
<event>
 8    1  0.2929965E+004  0.1043930E+01  0.7957747E-01            NaN
         13   -1    0    0    0    0  0.00000000000E+00  0.00000000000E+00  0.74505805969E-08  0.10566000000E+00  0.10566000000E+00 0.  1.
     999900   -1    0    0    0    0 -0.00000000000E+00 -0.00000000000E+00 -0.74505805969E-08  0.93827000000E+00  0.93827000000E+00 0. -1.
     999902    2    1    2    0    0  0.40516545566E-02 -0.49794007899E-02 -0.12081319296E-01  0.10302490420E+01  0.10301582014E+01 0.  0.
     999903    2    3    3    0    0 -0.11531251199E+00  0.62637241927E-01  0.11207535629E-01  0.13931571932E+00  0.45418732889E-01 0.  0.
         14    1    1    2    0    0 -0.40516545566E-02  0.49794007899E-02  0.12081319296E-01  0.13680958037E-01  0.00000000000E+00 0.  1.
     999901    1    3    3    0    0  0.11936416655E+00 -0.67616642717E-01 -0.23288854925E-01  0.89093332264E+00  0.88000000000E+00 0. -1.
        -11    1    4    4    0    0 -0.49552848600E-01  0.62100186014E-02  0.16240709422E-01  0.52517339032E-01  0.51100000000E-03 0. -1.
         11    1    4    4    0    0 -0.65759663391E-01  0.56427223326E-01 -0.50331737932E-02  0.86798380290E-01  0.51100000000E-03 0.  1.
</event>
<event>
 8    1  0.2929965E+004  0.1043930E+01  0.7957747E-01            NaN
         13   -1    0    0    0    0  0.00000000000E+00  0.00000000000E+00  0.74505805969E-08  0.10566000000E+00  0.10566000000E+00 0. -1.
     999900   -1    0    0    0    0 -0.00000000000E+00 -0.00000000000E+00 -0.74505805969E-08  0.93827000000E+00  0.93827000000E+00 0. -1.
     999902    2    1    2    0    0  0.77476397128E-02 -0.62909780763E-02  0.79508504325E-02  0.10311699707E+01  0.10310910193E+01 0.  0.
     999903    2    3    3    0    0  0.11590083575E+00 -0.38602226903E-01  0.58339034977E-01  0.14253050509E+00  0.44591100356E-01 0.  0.
         14    1    1    2    0    0 -0.77476397128E-02  0.62909780763E-02 -0.79508504325E-02  0.12760029345E-01  0.00000000000E+00 0. -1.
     999901    1    3    3    0    0 -0.10815319604E+00  0.32311248827E-01 -0.50388184544E-01  0.88863946556E+00  0.88000000000E+00 0. -1.
        -11    1    4    4    0    0  0.41380194901E-01 -0.12514531435E-01 -0.18113798833E-02  0.43272118566E-01  0.51100000000E-03 0. -1.
         11    1    4    4    0    0  0.74520640848E-01 -0.26087695468E-01  0.60150414860E-01  0.99258386527E-01  0.51100000000E-03 0.  1.
</event>
<event>
 8    1  0.2929965E+004  0.1043930E+01  0.7957747E-01            NaN
         13   -1    0    0    0    0  0.00000000000E+00  0.00000000000E+00  0.74505805969E-08  0.10566000000E+00  0.10566000000E+00 0.  1.
     999900   -1    0    0    0    0 -0.00000000000E+00 -0.00000000000E+00 -0.74505805969E-08  0.93827000000E+00  0.93827000000E+00 0.  1.
     999902    2    1    2    0    0  0.88460009587E-03 -0.11652123726E-01  0.47206404979E-02  0.10313268674E+01  0.10312498574E+01 0.  0.
     999903    2    3    3    0    0  0.11257970128E+00 -0.63970735814E-01 -0.36761313551E-01  0.14175742924E+00  0.44467183293E-01 0.  0.
         14    1    1    2    0    0 -0.88460009587E-03  0.11652123726E-01 -0.47206404979E-02  0.12603132601E-01  0.00000000000E+00 0.  1.
     999901    1    3    3    0    0 -0.11169510118E+00  0.52318612088E-01  0.41481954049E-01  0.88956943816E+00  0.88000000000E+00 0.  1.
        -11    1    4    4    0    0  0.72109852176E-01 -0.16582110854E-01 -0.13366953880E-01  0.75191314380E-01  0.51100000000E-03 0.  1.
         11    1    4    4    0    0  0.40469849100E-01 -0.47388624960E-01 -0.23394359671E-01  0.66566114857E-01  0.51100000000E-03 0. -1.
</event>
<event>
 8    1  0.2929965E+004  0.1043930E+01  0.7957747E-01            NaN
         13   -1    0    0    0    0  0.00000000000E+00  0.00000000000E+00  0.74505805969E-08  0.10566000000E+00  0.10566000000E+00 0. -1.
     999900   -1    0    0    0    0 -0.00000000000E+00 -0.00000000000E+00 -0.74505805969E-08  0.93827000000E+00  0.93827000000E+00 0. -1.
     999902    2    1    2    0    0 -0.12505657644E-01 -0.11384868595E-02  0.56046553639E-02  0.10301786442E+01  0.10300868600E+01 0.  0.
     999903    2    3    3    0    0 -0.81461417870E-01  0.73441278894E-01 -0.78694778543E-01  0.14033403252E+00  0.38356074692E-01 0.  0.
         14    1    1    2    0    0  0.12505657644E-01  0.11384868595E-02 -0.56046553639E-02  0.13751355831E-01  0.00000000000E+00 0.  1.
     999901    1    3    3    0    0  0.68955760226E-01 -0.74579765754E-01  0.84299433907E-01  0.88984461165E+00  0.88000000000E+00 0. -1.
        -11    1    4    4    0    0 -0.14674612703E-01  0.25484305188E-01 -0.39499061164E-01  0.49246634633E-01  0.51100000000E-03 0.  1.
         11    1    4    4    0    0 -0.66786805167E-01  0.47956973707E-01 -0.39195717379E-01  0.91087397885E-01  0.51100000000E-03 0. -1.
</event>
<event>
 8    1  0.2929965E+004  0.1043930E+01  0.7957747E-01            NaN
         13   -1    0    0    0    0  0.00000000000E+00  0.00000000000E+00  0.74505805969E-08  0.10566000000E+00  0.10566000000E+00 0. -1.
     999900   -1    0    0    0    0 -0.00000000000E+00 -0.00000000000E+00 -0.74505805969E-08  0.93827000000E+00  0.93827000000E+00 0. -1.
     999902    2    1    2    0    0 -0.27664715959E-03  0.84743537048E-02 -0.10962280574E-01  0.10300713276E+01  0.10299780955E+01 0.  0.
     999903    2    3    3    0    0 -0.11231469248E+00 -0.82098287756E-02  0.67533860323E-01  0.13934548335E+00  0.46629926044E-01 0.  0.
         14    1    1    2    0    0  0.27664715959E-03 -0.84743537048E-02  0.10962280574E-01  0.13858672366E-01  0.00000000000E+00 0. -1.
     999901    1    3    3    0    0  0.11203804532E+00  0.16684182480E-01 -0.78496140897E-01  0.89072584429E+00  0.88000000000E+00 0. -1.
        -11    1    4    4    0    0 -0.78505635514E-01 -0.69143702192E-02  0.70011277419E-01  0.10541718745E+00  0.51100000000E-03 0.  1.
         11    1    4    4    0    0 -0.33809056970E-01 -0.12954585565E-02 -0.24774170956E-02  0.33928295898E-01  0.51100000000E-03 0. -1.
</event>
<event>
 7    1  0.2929965E+004  0.1043930E+01  0.7957747E-01            NaN
         13   -1    0    0    0    0  0.00000000000E+00  0.00000000000E+00  0.74505805969E-08  0.10566000000E+00  0.10566000000E+00 0. -1.
     999900   -1    0    0    0    0 -0.00000000000E+00 -0.00000000000E+00 -0.74505805969E-08  0.93827000000E+00  0.93827000000E+00 0.  1.
     999902    2    1    2    0    0  0.76058896987E-03 -0.10829803222E-01  0.35630817096E-02  0.10325037721E+01  0.10324405458E+01 0.  0.
         14    1    1    2    0    0 -0.76058896987E-03  0.10829803222E-01 -0.35630817096E-02  0.11426227929E-01  0.00000000000E+00 0. -1.
     999901    1    3    3    0    0 -0.53192454622E-02  0.71739449818E-01 -0.21367887917E-01  0.88319388000E+00  0.88000000000E+00 0.  1.
        -11    1    3    3    0    0  0.21721072422E-01  0.77649900427E-02 -0.33438324359E-01  0.40626133393E-01  0.51100000000E-03 0. -1.
         11    1    3    3    0    0 -0.15641237990E-01 -0.90334243083E-01  0.58369293986E-01  0.10868375868E+00  0.51100000000E-03 0.  1.
</event>
<event>
 8    1  0.2929965E+004  0.1043930E+01  0.7957747E-01            NaN
         13   -1    0    0    0    0  0.00000000000E+00  0.00000000000E+00  0.74505805969E-08  0.10566000000E+00  0.10566000000E+00 0.  1.
     999900   -1    0    0    0    0 -0.00000000000E+00 -0.00000000000E+00 -0.74505805969E-08  0.93827000000E+00  0.93827000000E+00 0.  1.
     999902    2    1    2    0    0 -0.20886505800E-02  0.63378540022E-02  0.13941755893E-01  0.10284734994E+01  0.10283573481E+01 0.  0.
     999903    2    3    3    0    0 -0.66276132893E-01 -0.86781033969E-01  0.75618460520E-01  0.13909440354E+00  0.41299247911E-01 0.  0.
         14    1    1    2    0    0  0.20886505800E-02 -0.63378540022E-02 -0.13941755893E-01  0.15456500639E-01  0.00000000000E+00 0. -1.
     999901    1    3    3    0    0  0.64187482313E-01  0.93118887971E-01 -0.61676704627E-01  0.88937909582E+00  0.88000000000E+00 0.  1.
        -11    1    4    4    0    0 -0.60717346387E-01 -0.66066856300E-01  0.41668089116E-01  0.98933899272E-01  0.51100000000E-03 0.  1.
         11    1    4    4    0    0 -0.55587865060E-02 -0.20714177669E-01  0.33950371404E-01  0.40160504272E-01  0.51100000000E-03 0. -1.
</event>
<event>
 8    1  0.2929965E+004  0.1043930E+01  0.7957747E-01            NaN
         13   -1    0    0    0    0  0.00000000000E+00  0.00000000000E+00  0.74505805969E-08  0.10566000000E+00  0.10566000000E+00 0. -1.
     999900   -1    0    0    0    0 -0.00000000000E+00 -0.00000000000E+00 -0.74505805969E-08  0.93827000000E+00  0.93827000000E+00 0.  1.
     999902    2    1    2    0    0 -0.31221185952E-02  0.10847368571E-01  0.82727721105E-02  0.10299352943E+01  0.10298402102E+01 0.  0.
     999903    2    3    3    0    0  0.87048200087E-01 -0.90049872553E-01  0.40151585728E-01  0.13902160689E+00  0.45038746223E-01 0.  0.
         14    1    1    2    0    0  0.31221185952E-02 -0.10847368571E-01 -0.82727721105E-02  0.13994705708E-01  0.00000000000E+00 0.  1.
     999901    1    3    3    0    0 -0.90170318683E-01  0.10089724112E+00 -0.31878813617E-01  0.89091368740E+00  0.88000000000E+00 0.  1.
        -11    1    4    4    0    0  0.77275502569E-01 -0.51479318224E-01  0.22812140898E-01  0.95615262356E-01  0.51100000000E-03 0. -1.
         11    1    4    4    0    0  0.97726975186E-02 -0.38570554329E-01  0.17339444830E-01  0.43406344537E-01  0.51100000000E-03 0.  1.
</event>
<event>
 8    1  0.2929965E+004  0.1043930E+01  0.7957747E-01            NaN
         13   -1    0    0    0    0  0.00000000000E+00  0.00000000000E+00  0.74505805969E-08  0.10566000000E+00  0.10566000000E+00 0. -1.
     999900   -1    0    0    0    0 -0.00000000000E+00 -0.00000000000E+00 -0.74505805969E-08  0.93827000000E+00  0.93827000000E+00 0.  1.
     999902    2    1    2    0    0 -0.23508709897E-02  0.48649642256E-02  0.11671517880E-01  0.10310684759E+01  0.10309882557E+01 0.  0.
     999903    2    3    3    0    0  0.17725488048E-01  0.10680679456E+00  0.80492002714E-01  0.14228759401E+00  0.45220710054E-01 0.  0.
         14    1    1    2    0    0  0.23508709897E-02 -0.48649642256E-02 -0.11671517880E-01  0.12861524052E-01  0.00000000000E+00 0.  1.
     999901    1    3    3    0    0 -0.20076359038E-01 -0.10194183033E+00 -0.68820484834E-01  0.88878088194E+00  0.88000000000E+00 0. -1.
        -11    1    4    4    0    0  0.15836831853E-01  0.60647412314E-01  0.71736649036E-01  0.95264483410E-01  0.51100000000E-03 0. -1.
         11    1    4    4    0    0  0.18886561952E-02  0.46159382246E-01  0.87553536786E-02  0.47023110601E-01  0.51100000000E-03 0.  1.
</event>
<event>
 8    1  0.2929965E+004  0.1043930E+01  0.7957747E-01            NaN
         13   -1    0    0    0    0  0.00000000000E+00  0.00000000000E+00  0.74505805969E-08  0.10566000000E+00  0.10566000000E+00 0.  1.
     999900   -1    0    0    0    0 -0.00000000000E+00 -0.00000000000E+00 -0.74505805969E-08  0.93827000000E+00  0.93827000000E+00 0.  1.
     999902    2    1    2    0    0  0.29834675950E-02  0.13271007342E-01 -0.10605087395E-02  0.10302864890E+01  0.10301961483E+01 0.  0.
     999903    2    3    3    0    0  0.30993086218E-02  0.49997820936E-01  0.12349392920E+00  0.14075701768E+00  0.45303417813E-01 0.  0.
         14    1    1    2    0    0 -0.29834675950E-02 -0.13271007342E-01  0.10605087395E-02  0.13643511042E-01  0.00000000000E+00 0. -1.
     999901    1    3    3    0    0 -0.11584102685E-03 -0.36726813594E-01 -0.12455443794E+00  0.88952947127E+00  0.88000000000E+00 0.  1.
        -11    1    4    4    0    0 -0.71109854291E-02  0.20891001569E-02  0.60514259076E-01  0.60968574904E-01  0.51100000000E-03 0. -1.
         11    1    4    4    0    0  0.10210294051E-01  0.47908720779E-01  0.62979670124E-01  0.79788442780E-01  0.51100000000E-03 0.  1.
</event>
<event>
 8    1  0.2929965E+004  0.1043930E+01  0.7957747E-01            NaN
         13   -1    0    0    0    0  0.00000000000E+00  0.00000000000E+00  0.74505805969E-08  0.10566000000E+00  0.10566000000E+00 0. -1.
     999900   -1    0    0    0    0 -0.00000000000E+00 -0.00000000000E+00 -0.74505805969E-08  0.93827000000E+00  0.93827000000E+00 0.  1.
     999902    2    1    2    0    0  0.96606803077E-02  0.90776967528E-02  0.37292389827E-02  0.10301589962E+01  0.10300669478E+01 0.  0.
     999903    2    3    3    0    0 -0.74702943902E-01 -0.97201896302E-02 -0.10738195015E+00  0.13897086905E+00  0.45902149320E-01 0.  0.
         14    1    1    2    0    0 -0.96606803077E-02 -0.90776967528E-02 -0.37292389827E-02  0.13771003803E-01  0.00000000000E+00 0.  1.
     999901    1    3    3    0    0  0.84363624210E-01  0.18797886383E-01  0.11111118913E+00  0.89118812715E+00  0.88000000000E+00 0. -1.
        -11    1    4    4    0    0 -0.74654435914E-02 -0.18896598902E-01 -0.23272055107E-01  0.30897636932E-01  0.51100000000E-03 0.  1.
         11    1    4    4    0    0 -0.67237500311E-01  0.91764092715E-02 -0.84109895041E-01  0.10807323212E+00  0.51100000000E-03 0. -1.
</event>
<event>
 8    1  0.2929965E+004  0.1043930E+01  0.7957747E-01            NaN
         13   -1    0    0    0    0  0.00000000000E+00  0.00000000000E+00  0.74505805969E-08  0.10566000000E+00  0.10566000000E+00 0. -1.
     999900   -1    0    0    0    0 -0.00000000000E+00 -0.00000000000E+00 -0.74505805969E-08  0.93827000000E+00  0.93827000000E+00 0. -1.
     999902    2    1    2    0    0  0.80084828803E-02 -0.94226389414E-02 -0.68287452445E-02  0.10298036528E+01  0.10297067591E+01 0.  0.
     999903    2    3    3    0    0  0.77850934230E-01  0.79649064344E-01 -0.72167294476E-01  0.14015155097E+00  0.45051053653E-01 0.  0.
         14    1    1    2    0    0 -0.80084828803E-02  0.94226389414E-02  0.68287452445E-02  0.14126347167E-01  0.00000000000E+00 0.  1.
     999901    1    3    3    0    0 -0.69842451350E-01 -0.89071703286E-01  0.65338549232E-01  0.88965210186E+00  0.88000000000E+00 0.  1.
        -11    1    4    4    0    0  0.14776006928E-01  0.40252976603E-01 -0.41602163243E-01  0.59746410885E-01  0.51100000000E-03 0. -1.
         11    1    4    4    0    0  0.63074927302E-01  0.39396087742E-01 -0.30565131233E-01  0.80405140083E-01  0.51100000000E-03 0.  1.
</event>
<event>
 8    1  0.2929965E+004  0.1043930E+01  0.7957747E-01            NaN
         13   -1    0    0    0    0  0.00000000000E+00  0.00000000000E+00  0.74505805969E-08  0.10566000000E+00  0.10566000000E+00 0. -1.
     999900   -1    0    0    0    0 -0.00000000000E+00 -0.00000000000E+00 -0.74505805969E-08  0.93827000000E+00  0.93827000000E+00 0. -1.
     999902    2    1    2    0    0 -0.13753837568E-01 -0.42002107543E-02 -0.63268581335E-02  0.10282188908E+01  0.10280988515E+01 0.  0.
     999903    2    3    3    0    0  0.78663127999E-01  0.91926429452E-01 -0.47385518154E-01  0.13722672471E+00  0.44129700949E-01 0.  0.
         14    1    1    2    0    0  0.13753837568E-01  0.42002107543E-02  0.63268581335E-02  0.15711109193E-01  0.00000000000E+00 0. -1.
     999901    1    3    3    0    0 -0.92416965567E-01 -0.96126640206E-01  0.41058660020E-01  0.89099216610E+00  0.88000000000E+00 0. -1.
        -11    1    4    4    0    0  0.21162215627E-01  0.26163117093E-01  0.69292335152E-02  0.34360201751E-01  0.51100000000E-03 0. -1.
         11    1    4    4    0    0  0.57500912372E-01  0.65763312359E-01 -0.54314751669E-01  0.10286652296E+00  0.51100000000E-03 0.  1.
</event>
<event>
 8    1  0.2929965E+004  0.1043930E+01  0.7957747E-01            NaN
         13   -1    0    0    0    0  0.00000000000E+00  0.00000000000E+00  0.74505805969E-08  0.10566000000E+00  0.10566000000E+00 0.  1.
     999900   -1    0    0    0    0 -0.00000000000E+00 -0.00000000000E+00 -0.74505805969E-08  0.93827000000E+00  0.93827000000E+00 0. -1.
     999902    2    1    2    0    0 -0.11207695819E-01  0.49644158423E-02 -0.58942869815E-02  0.10303285115E+01  0.10302387302E+01 0.  0.
     999903    2    3    3    0    0  0.75532377593E-01  0.81707296748E-01  0.71584302271E-01  0.13936485237E+00  0.43783870756E-01 0.  0.
         14    1    1    2    0    0  0.11207695819E-01 -0.49644158423E-02  0.58942869815E-02  0.13601488494E-01  0.00000000000E+00 0. -1.
     999901    1    3    3    0    0 -0.86740073412E-01 -0.76742880905E-01 -0.77478589253E-01  0.89096365913E+00  0.88000000000E+00 0.  1.
        -11    1    4    4    0    0  0.42841231679E-01  0.67546364287E-01  0.65139287688E-01  0.10315653339E+00  0.51100000000E-03 0.  1.
         11    1    4    4    0    0  0.32691145914E-01  0.14160932461E-01  0.64450145835E-02  0.36208318979E-01  0.51100000000E-03 0. -1.
</event>
<event>
 8    1  0.2929965E+004  0.1043930E+01  0.7957747E-01            NaN
         13   -1    0    0    0    0  0.00000000000E+00  0.00000000000E+00  0.74505805969E-08  0.10566000000E+00  0.10566000000E+00 0.  1.
     999900   -1    0    0    0    0 -0.00000000000E+00 -0.00000000000E+00 -0.74505805969E-08  0.93827000000E+00  0.93827000000E+00 0.  1.
     999902    2    1    2    0    0 -0.40752618635E-02 -0.10273121913E-01  0.87779571543E-02  0.10298162718E+01  0.10297195522E+01 0.  0.
     999903    2    3    3    0    0 -0.10794047199E+00  0.52622345441E-01 -0.56311348124E-01  0.13909721428E+00  0.41914321671E-01 0.  0.
         14    1    1    2    0    0  0.40752618635E-02  0.10273121913E-01 -0.87779571543E-02  0.14113728242E-01  0.00000000000E+00 0.  1.
     999901    1    3    3    0    0  0.10386521012E+00 -0.62895467354E-01  0.65089305278E-01  0.89071905748E+00  0.88000000000E+00 0. -1.
        -11    1    4    4    0    0 -0.74330752799E-01  0.56088744960E-01 -0.45322488372E-01  0.10356349355E+00  0.51100000000E-03 0. -1.
         11    1    4    4    0    0 -0.33609719188E-01 -0.34663995185E-02 -0.10988859751E-01  0.35533720734E-01  0.51100000000E-03 0.  1.
</event>
<event>
 8    1  0.2929965E+004  0.1043930E+01  0.7957747E-01            NaN
         13   -1    0    0    0    0  0.00000000000E+00  0.00000000000E+00  0.74505805969E-08  0.10566000000E+00  0.10566000000E+00 0.  1.
     999900   -1    0    0    0    0 -0.00000000000E+00 -0.00000000000E+00 -0.74505805969E-08  0.93827000000E+00  0.93827000000E+00 0.  1.
     999902    2    1    2    0    0 -0.14021300012E-01 -0.11300799673E-02  0.43204344895E-02  0.10292146988E+01  0.10291094967E+01 0.  0.
     999903    2    3    3    0    0  0.67712978657E-01  0.96122742609E-01  0.57887791753E-01  0.13848013365E+00  0.44733900542E-01 0.  0.
         14    1    1    2    0    0  0.14021300012E-01  0.11300799673E-02 -0.43204344895E-02  0.14715301184E-01  0.00000000000E+00 0. -1.
     999901    1    3    3    0    0 -0.81734278669E-01 -0.97252822576E-01 -0.53567357264E-01  0.89073456516E+00  0.88000000000E+00 0.  1.
        -11    1    4    4    0    0 -0.65693922918E-02  0.85521972146E-02  0.70670848671E-02  0.12903557719E-01  0.51100000000E-03 0.  1.
         11    1    4    4    0    0  0.74282370949E-01  0.87570545394E-01  0.50820706886E-01  0.12557657594E+00  0.51100000000E-03 0. -1.
</event>
<event>
 8    1  0.2929965E+004  0.1043930E+01  0.7957747E-01            NaN
         13   -1    0    0    0    0  0.00000000000E+00  0.00000000000E+00  0.74505805969E-08  0.10566000000E+00  0.10566000000E+00 0. -1.
     999900   -1    0    0    0    0 -0.00000000000E+00 -0.00000000000E+00 -0.74505805969E-08  0.93827000000E+00  0.93827000000E+00 0.  1.
     999902    2    1    2    0    0  0.25464705153E-02  0.56123309585E-02 -0.11754629266E-01  0.10306576950E+01  0.10305722343E+01 0.  0.
     999903    2    3    3    0    0 -0.57196253690E-01  0.77220557887E-01 -0.94925163192E-01  0.14183022638E+00  0.43250439433E-01 0.  0.
         14    1    1    2    0    0 -0.25464705153E-02 -0.56123309585E-02  0.11754629266E-01  0.13272305001E-01  0.00000000000E+00 0. -1.
     999901    1    3    3    0    0  0.59742724205E-01 -0.71608226929E-01  0.83170533926E-01  0.88882746862E+00  0.88000000000E+00 0. -1.
        -11    1    4    4    0    0 -0.29287626180E-02  0.29562511066E-01 -0.45392111340E-01  0.54251494025E-01  0.51100000000E-03 0. -1.
         11    1    4    4    0    0 -0.54267491072E-01  0.47658046822E-01 -0.49533051851E-01  0.87578732354E-01  0.51100000000E-03 0.  1.
</event>
<event>
 8    1  0.2929965E+004  0.1043930E+01  0.7957747E-01            NaN
         13   -1    0    0    0    0  0.00000000000E+00  0.00000000000E+00  0.74505805969E-08  0.10566000000E+00  0.10566000000E+00 0. -1.
     999900   -1    0    0    0    0 -0.00000000000E+00 -0.00000000000E+00 -0.74505805969E-08  0.93827000000E+00  0.93827000000E+00 0.  1.
     999902    2    1    2    0    0 -0.13594783879E-01 -0.21151655440E-02 -0.20250426360E-02  0.10300234234E+01  0.10299295413E+01 0.  0.
     999903    2    3    3    0    0 -0.32306095342E-01  0.13323688366E-01 -0.12846895409E+00  0.14065480800E+00  0.45368473418E-01 0.  0.
         14    1    1    2    0    0  0.13594783879E-01  0.21151655440E-02  0.20250426360E-02  0.13906576562E-01  0.00000000000E+00 0.  1.
     999901    1    3    3    0    0  0.18711311463E-01 -0.15438853910E-01  0.12644391145E+00  0.88936861544E+00  0.88000000000E+00 0. -1.
        -11    1    4    4    0    0 -0.14877651183E-01  0.94401686993E-03 -0.11368173975E+00  0.11465615878E+00  0.51100000000E-03 0.  1.
         11    1    4    4    0    0 -0.17428444160E-01  0.12379671496E-01 -0.14787214335E-01  0.25998649214E-01  0.51100000000E-03 0. -1.
</event>
<event>
 8    1  0.2929965E+004  0.1043930E+01  0.7957747E-01            NaN
         13   -1    0    0    0    0  0.00000000000E+00  0.00000000000E+00  0.74505805969E-08  0.10566000000E+00  0.10566000000E+00 0. -1.
     999900   -1    0    0    0    0 -0.00000000000E+00 -0.00000000000E+00 -0.74505805969E-08  0.93827000000E+00  0.93827000000E+00 0. -1.
     999902    2    1    2    0    0 -0.63642198346E-02  0.53513760272E-02 -0.59997697059E-02  0.10336763296E+01  0.10336254722E+01 0.  0.
     999903    2    3    3    0    0 -0.59741465775E-01 -0.98233240873E-01  0.71311637484E-01  0.14263426726E+00  0.45170479403E-01 0.  0.
         14    1    1    2    0    0  0.63642198346E-02 -0.53513760272E-02  0.59997697059E-02  0.10253670368E-01  0.00000000000E+00 0.  1.
     999901    1    3    3    0    0  0.53377245941E-01  0.10358461690E+00 -0.77311407190E-01  0.89104206238E+00  0.88000000000E+00 0.  1.
        -11    1    4    4    0    0  0.25012510812E-02 -0.32512344328E-01  0.13949542353E-01  0.35470546140E-01  0.51100000000E-03 0.  1.
         11    1    4    4    0    0 -0.62242716856E-01 -0.65720896546E-01  0.57362095131E-01  0.10716372112E+00  0.51100000000E-03 0. -1.
</event>
<event>
 8    1  0.2929965E+004  0.1043930E+01  0.7957747E-01            NaN
         13   -1    0    0    0    0  0.00000000000E+00  0.00000000000E+00  0.74505805969E-08  0.10566000000E+00  0.10566000000E+00 0.  1.
     999900   -1    0    0    0    0 -0.00000000000E+00 -0.00000000000E+00 -0.74505805969E-08  0.93827000000E+00  0.93827000000E+00 0.  1.
     999902    2    1    2    0    0  0.96193076390E-02 -0.96896693591E-02 -0.14914337831E-02  0.10301951849E+01  0.10301036228E+01 0.  0.
     999903    2    3    3    0    0 -0.36313823523E-01 -0.56348133602E-01 -0.11505772179E+00  0.14048502612E+00  0.44765581441E-01 0.  0.
         14    1    1    2    0    0 -0.96193076390E-02  0.96896693591E-02  0.14914337831E-02  0.13734815123E-01  0.00000000000E+00 0. -1.
     999901    1    3    3    0    0  0.45933131162E-01  0.46658464243E-01  0.11356628800E+00  0.88971015876E+00  0.88000000000E+00 0. -1.
        -11    1    4    4    0    0 -0.17998816046E-01 -0.14451575146E-01 -0.78842403727E-01  0.82153460972E-01  0.51100000000E-03 0. -1.
         11    1    4    4    0    0 -0.18315007477E-01 -0.41896558457E-01 -0.36215318061E-01  0.58331565148E-01  0.51100000000E-03 0.  1.
</event>
<event>
 8    1  0.2929965E+004  0.1043930E+01  0.7957747E-01            NaN
         13   -1    0    0    0    0  0.00000000000E+00  0.00000000000E+00  0.74505805969E-08  0.10566000000E+00  0.10566000000E+00 0. -1.
     999900   -1    0    0    0    0 -0.00000000000E+00 -0.00000000000E+00 -0.74505805969E-08  0.93827000000E+00  0.93827000000E+00 0. -1.
     999902    2    1    2    0    0 -0.13672819688E-01  0.17717210653E-02  0.30564606063E-03  0.10301394810E+01  0.10300471698E+01 0.  0.
     999903    2    3    3    0    0 -0.47215726309E-01  0.11217867386E+00 -0.55340635424E-01  0.14086374739E+00  0.44346699088E-01 0.  0.
         14    1    1    2    0    0  0.13672819688E-01 -0.17717210653E-02 -0.30564606063E-03  0.13790518963E-01  0.00000000000E+00 0.  1.
     999901    1    3    3    0    0  0.33542906621E-01 -0.11040695279E+00  0.55646281485E-01  0.88927573365E+00  0.88000000000E+00 0.  1.
        -11    1    4    4    0    0 -0.51909926823E-01  0.76724949309E-01 -0.31357475153E-01  0.97800361545E-01  0.51100000000E-03 0.  1.
         11    1    4    4    0    0  0.46942005139E-02  0.35453724550E-01 -0.23983160271E-01  0.43063385845E-01  0.51100000000E-03 0. -1.
</event>
<event>
 8    1  0.2929965E+004  0.1043930E+01  0.7957747E-01            NaN
         13   -1    0    0    0    0  0.00000000000E+00  0.00000000000E+00  0.74505805969E-08  0.10566000000E+00  0.10566000000E+00 0.  1.
     999900   -1    0    0    0    0 -0.00000000000E+00 -0.00000000000E+00 -0.74505805969E-08  0.93827000000E+00  0.93827000000E+00 0.  1.
     999902    2    1    2    0    0  0.20712952587E-01  0.44604311615E-02  0.11742454767E-01  0.10197058985E+01  0.10194181244E+01 0.  0.
     999903    2    3    3    0    0  0.75776141466E-01 -0.89009681345E-01  0.42943294551E-01  0.13249560260E+00  0.45235065731E-01 0.  0.
         14    1    1    2    0    0 -0.20712952587E-01 -0.44604311615E-02 -0.11742454767E-01  0.24224101531E-01  0.00000000000E+00 0. -1.
     999901    1    3    3    0    0 -0.55063188879E-01  0.93470112506E-01 -0.31200839784E-01  0.88721029587E+00  0.88000000000E+00 0.  1.
        -11    1    4    4    0    0  0.25406421333E-01 -0.59846099717E-01  0.34733999594E-01  0.73713999654E-01  0.51100000000E-03 0. -1.
         11    1    4    4    0    0  0.50369720133E-01 -0.29163581628E-01  0.82092949574E-02  0.58781602941E-01  0.51100000000E-03 0.  1.
</event>
<event>
 8    1  0.2929965E+004  0.1043930E+01  0.7957747E-01            NaN
         13   -1    0    0    0    0  0.00000000000E+00  0.00000000000E+00  0.74505805969E-08  0.10566000000E+00  0.10566000000E+00 0.  1.
     999900   -1    0    0    0    0 -0.00000000000E+00 -0.00000000000E+00 -0.74505805969E-08  0.93827000000E+00  0.93827000000E+00 0. -1.
     999902    2    1    2    0    0 -0.77532319743E-02  0.56845160321E-02  0.98267965995E-02  0.10301825544E+01  0.10300908228E+01 0.  0.
     999903    2    3    3    0    0  0.99733953746E-01 -0.83383119152E-01 -0.10530268339E-01  0.13894692406E+00  0.47914038285E-01 0.  0.
         14    1    1    2    0    0  0.77532319743E-02 -0.56845160321E-02 -0.98267965995E-02  0.13747445580E-01  0.00000000000E+00 0. -1.
     999901    1    3    3    0    0 -0.10748718572E+00  0.89067635185E-01  0.20357064939E-01  0.89123563036E+00  0.88000000000E+00 0. -1.
        -11    1    4    4    0    0  0.59708894790E-01 -0.22394077092E-01  0.62887912051E-02  0.64081641846E-01  0.51100000000E-03 0.  1.
         11    1    4    4    0    0  0.40025058956E-01 -0.60989042061E-01 -0.16819059544E-01  0.74865282213E-01  0.51100000000E-03 0. -1.
</event>
<event>
 7    1  0.2929965E+004  0.1043930E+01  0.7957747E-01            NaN
         13   -1    0    0    0    0  0.00000000000E+00  0.00000000000E+00  0.74505805969E-08  0.10566000000E+00  0.10566000000E+00 0.  1.
     999900   -1    0    0    0    0 -0.00000000000E+00 -0.00000000000E+00 -0.74505805969E-08  0.93827000000E+00  0.93827000000E+00 0. -1.
     999903    2    1    2    0    0 -0.87970455715E-01  0.33756759877E-01  0.57892922305E-01  0.11940862983E+00  0.45038988767E-01 0.  0.
         14    1    1    2    0    0 -0.27876158578E-01  0.16729878536E-01  0.65399672886E-02  0.33162331417E-01  0.00000000000E+00 0.  1.
     999901    1    1    2    0    0  0.11584661429E+00 -0.50486638414E-01 -0.64432889594E-01  0.89135903875E+00  0.88000000000E+00 0. -1.
        -11    1    3    3    0    0 -0.31873887337E-01  0.32107779922E-01  0.11733872548E-01  0.46741834704E-01  0.51100000000E-03 0. -1.
         11    1    3    3    0    0 -0.56096568378E-01  0.16489799550E-02  0.46159049757E-01  0.72666795128E-01  0.51100000000E-03 0.  1.
</event>
<event>
 8    1  0.2929965E+004  0.1043930E+01  0.7957747E-01            NaN
         13   -1    0    0    0    0  0.00000000000E+00  0.00000000000E+00  0.74505805969E-08  0.10566000000E+00  0.10566000000E+00 0. -1.
     999900   -1    0    0    0    0 -0.00000000000E+00 -0.00000000000E+00 -0.74505805969E-08  0.93827000000E+00  0.93827000000E+00 0. -1.
     999902    2    1    2    0    0  0.12433921060E-01  0.12643884817E-02 -0.64381589834E-02  0.10298711607E+01  0.10297751972E+01 0.  0.
     999903    2    3    3    0    0  0.41305417454E-01  0.10566949400E+00  0.68269845202E-01  0.14008732446E+00  0.45732999421E-01 0.  0.
         14    1    1    2    0    0 -0.12433921060E-01 -0.12643884817E-02  0.64381589834E-02  0.14058839292E-01  0.00000000000E+00 0. -1.
     999901    1    3    3    0    0 -0.28871496394E-01 -0.10440510552E+00 -0.74708004185E-01  0.88978383625E+00  0.88000000000E+00 0. -1.
        -11    1    4    4    0    0  0.46669428631E-01  0.62692262078E-01  0.51713785511E-01  0.93717298436E-01  0.51100000000E-03 0. -1.
         11    1    4    4    0    0 -0.53640111767E-02  0.42977231924E-01  0.16556059690E-01  0.46370026021E-01  0.51100000000E-03 0.  1.
</event>
<event>
 8    1  0.2929965E+004  0.1043930E+01  0.7957747E-01            NaN
         13   -1    0    0    0    0  0.00000000000E+00  0.00000000000E+00  0.74505805969E-08  0.10566000000E+00  0.10566000000E+00 0. -1.
     999900   -1    0    0    0    0 -0.00000000000E+00 -0.00000000000E+00 -0.74505805969E-08  0.93827000000E+00  0.93827000000E+00 0.  1.
     999902    2    1    2    0    0  0.10254771916E-01 -0.48959378329E-02  0.83336645627E-02  0.10298381400E+01  0.10297417220E+01 0.  0.
     999903    2    3    3    0    0 -0.48727370085E-01 -0.72099400980E-01  0.10227803551E+00  0.14033224152E+00  0.40738940153E-01 0.  0.
         14    1    1    2    0    0 -0.10254771916E-01  0.48959378329E-02 -0.83336645627E-02  0.14091860039E-01  0.00000000000E+00 0. -1.
     999901    1    3    3    0    0  0.58982142001E-01  0.67203463148E-01 -0.93944370945E-01  0.88950589844E+00  0.88000000000E+00 0.  1.
        -11    1    4    4    0    0 -0.23790550902E-01 -0.53688678728E-02  0.20392755237E-01  0.31795292759E-01  0.51100000000E-03 0. -1.
         11    1    4    4    0    0 -0.24936819183E-01 -0.66730533108E-01  0.81885280270E-01  0.10853694876E+00  0.51100000000E-03 0.  1.
</event>
<event>
 8    1  0.2929965E+004  0.1043930E+01  0.7957747E-01            NaN
         13   -1    0    0    0    0  0.00000000000E+00  0.00000000000E+00  0.74505805969E-08  0.10566000000E+00  0.10566000000E+00 0. -1.
     999900   -1    0    0    0    0 -0.00000000000E+00 -0.00000000000E+00 -0.74505805969E-08  0.93827000000E+00  0.93827000000E+00 0.  1.
     999902    2    1    2    0    0  0.52793159426E-02  0.10996844869E-01 -0.10467063002E-01  0.10278563824E+01  0.10277306951E+01 0.  0.
     999903    2    3    3    0    0  0.17954266046E-01 -0.81402454075E-02 -0.13001797557E+00  0.13947622547E+00  0.46479288248E-01 0.  0.
         14    1    1    2    0    0 -0.52793159426E-02 -0.10996844869E-01  0.10467063002E-01  0.16073617570E-01  0.00000000000E+00 0.  1.
     999901    1    3    3    0    0 -0.12674950104E-01  0.19137090276E-01  0.11955091257E+00  0.88838015696E+00  0.88000000000E+00 0. -1.
        -11    1    4    4    0    0 -0.14992536488E-01 -0.16141517065E-02 -0.24826525366E-01  0.29051662927E-01  0.51100000000E-03 0.  1.
         11    1    4    4    0    0  0.32946802534E-01 -0.65260937010E-02 -0.10519145020E+00  0.11042456254E+00  0.51100000000E-03 0. -1.
</event>
<event>
 8    1  0.2929965E+004  0.1043930E+01  0.7957747E-01            NaN
         13   -1    0    0    0    0  0.00000000000E+00  0.00000000000E+00  0.74505805969E-08  0.10566000000E+00  0.10566000000E+00 0.  1.
     999900   -1    0    0    0    0 -0.00000000000E+00 -0.00000000000E+00 -0.74505805969E-08  0.93827000000E+00  0.93827000000E+00 0. -1.
     999902    2    1    2    0    0  0.48797057403E-02 -0.92919641183E-02  0.89606544179E-02  0.10301298024E+01  0.10300373607E+01 0.  0.
     999903    2    3    3    0    0  0.88090241185E-01 -0.90967396904E-01 -0.45740561141E-01  0.14075525113E+00  0.41047337239E-01 0.  0.
         14    1    1    2    0    0 -0.48797057403E-02  0.92919641183E-02 -0.89606544179E-02  0.13800197567E-01  0.00000000000E+00 0. -1.
     999901    1    3    3    0    0 -0.83210535444E-01  0.81675432786E-01  0.54701215559E-01  0.88937455131E+00  0.88000000000E+00 0. -1.
        -11    1    4    4    0    0  0.85656711429E-02 -0.19602125272E-01 -0.23181140976E-01  0.31547431833E-01  0.51100000000E-03 0.  1.
         11    1    4    4    0    0  0.79524570042E-01 -0.71365271632E-01 -0.22559420165E-01  0.10920781929E+00  0.51100000000E-03 0. -1.
</event>
<event>
 8    1  0.2929965E+004  0.1043930E+01  0.7957747E-01            NaN
         13   -1    0    0    0    0  0.00000000000E+00  0.00000000000E+00  0.74505805969E-08  0.10566000000E+00  0.10566000000E+00 0.  1.
     999900   -1    0    0    0    0 -0.00000000000E+00 -0.00000000000E+00 -0.74505805969E-08  0.93827000000E+00  0.93827000000E+00 0. -1.
     999902    2    1    2    0    0  0.92116003885E-02 -0.29015143422E-02 -0.12686704725E-01  0.10279855701E+01  0.10278619107E+01 0.  0.
     999903    2    3    3    0    0 -0.95572273654E-01  0.62526554919E-01 -0.63284489477E-01  0.13791780398E+00  0.44415813466E-01 0.  0.
         14    1    1    2    0    0 -0.92116003885E-02  0.29015143422E-02  0.12686704725E-01  0.15944429873E-01  0.00000000000E+00 0.  1.
     999901    1    3    3    0    0  0.10478387404E+00 -0.65428069261E-01  0.50597784752E-01  0.89006776614E+00  0.88000000000E+00 0.  1.
        -11    1    4    4    0    0 -0.59364437793E-01  0.50748909532E-01 -0.20713674915E-01  0.80801644430E-01  0.51100000000E-03 0. -1.
         11    1    4    4    0    0 -0.36207835861E-01  0.11777645387E-01 -0.42570814562E-01  0.57116159553E-01  0.51100000000E-03 0.  1.
</event>
<event>
 8    1  0.2929965E+004  0.1043930E+01  0.7957747E-01            NaN
         13   -1    0    0    0    0  0.00000000000E+00  0.00000000000E+00  0.74505805969E-08  0.10566000000E+00  0.10566000000E+00 0.  1.
     999900   -1    0    0    0    0 -0.00000000000E+00 -0.00000000000E+00 -0.74505805969E-08  0.93827000000E+00  0.93827000000E+00 0. -1.
     999902    2    1    2    0    0  0.10651124775E-01  0.79371702089E-02  0.29484600286E-02  0.10303234374E+01  0.10302335886E+01 0.  0.
     999903    2    3    3    0    0 -0.79554824783E-01 -0.92341119956E-01  0.49598498242E-01  0.13882521815E+00  0.44233218133E-01 0.  0.
         14    1    1    2    0    0 -0.10651124775E-01 -0.79371702089E-02 -0.29484600286E-02  0.13606562624E-01  0.00000000000E+00 0. -1.
     999901    1    3    3    0    0  0.90205949557E-01  0.10027829016E+00 -0.46650038213E-01  0.89149821922E+00  0.88000000000E+00 0.  1.
        -11    1    4    4    0    0 -0.75429079318E-01 -0.58990460459E-01  0.40769596179E-01  0.10407613331E+00  0.51100000000E-03 0. -1.
         11    1    4    4    0    0 -0.41257454642E-02 -0.33350659497E-01  0.88289020631E-02  0.34749084839E-01  0.51100000000E-03 0.  1.
</event>
<event>
 8    1  0.2929965E+004  0.1043930E+01  0.7957747E-01            NaN
         13   -1    0    0    0    0  0.00000000000E+00  0.00000000000E+00  0.74505805969E-08  0.10566000000E+00  0.10566000000E+00 0. -1.
     999900   -1    0    0    0    0 -0.00000000000E+00 -0.00000000000E+00 -0.74505805969E-08  0.93827000000E+00  0.93827000000E+00 0.  1.
     999902    2    1    2    0    0 -0.60171391091E-02 -0.38902892816E-02 -0.11749813462E-01  0.10301677898E+01  0.10300758597E+01 0.  0.
     999903    2    3    3    0    0 -0.11450048441E+00  0.20586185137E-01  0.63727446914E-01  0.13996300950E+00  0.44657637519E-01 0.  0.
         14    1    1    2    0    0  0.60171391091E-02  0.38902892816E-02  0.11749813462E-01  0.13762210220E-01  0.00000000000E+00 0. -1.
     999901    1    3    3    0    0  0.10848334530E+00 -0.24476474419E-01 -0.75477260376E-01  0.89020478028E+00  0.88000000000E+00 0. -1.
        -11    1    4    4    0    0 -0.93875918091E-01  0.53131917343E-02  0.32379675341E-01  0.99446581138E-01  0.51100000000E-03 0.  1.
         11    1    4    4    0    0 -0.20624566317E-01  0.15272993403E-01  0.31347771573E-01  0.40516428357E-01  0.51100000000E-03 0. -1.
</event>
<event>
 8    1  0.2929965E+004  0.1043930E+01  0.7957747E-01            NaN
         13   -1    0    0    0    0  0.00000000000E+00  0.00000000000E+00  0.74505805969E-08  0.10566000000E+00  0.10566000000E+00 0.  1.
     999900   -1    0    0    0    0 -0.00000000000E+00 -0.00000000000E+00 -0.74505805969E-08  0.93827000000E+00  0.93827000000E+00 0. -1.
     999902    2    1    2    0    0  0.93135388039E-02 -0.41217550402E-02  0.95103993949E-02  0.10299952030E+01  0.10299009368E+01 0.  0.
     999903    2    3    3    0    0 -0.67473443001E-01 -0.96465678302E-01 -0.59001530254E-01  0.13919919651E+00  0.45132506436E-01 0.  0.
         14    1    1    2    0    0 -0.93135388039E-02  0.41217550402E-02 -0.95103993949E-02  0.13934796960E-01  0.00000000000E+00 0. -1.
     999901    1    3    3    0    0  0.76786981805E-01  0.92343923262E-01  0.68511929649E-01  0.89079600653E+00  0.88000000000E+00 0.  1.
        -11    1    4    4    0    0 -0.37444297501E-01 -0.30960340289E-01 -0.44088616782E-01  0.65610100876E-01  0.51100000000E-03 0.  1.
         11    1    4    4    0    0 -0.30029145500E-01 -0.65505338013E-01 -0.14912913472E-01  0.73589095638E-01  0.51100000000E-03 0. -1.
</event>
<event>
 8    1  0.2929965E+004  0.1043930E+01  0.7957747E-01            NaN
         13   -1    0    0    0    0  0.00000000000E+00  0.00000000000E+00  0.74505805969E-08  0.10566000000E+00  0.10566000000E+00 0.  1.
     999900   -1    0    0    0    0 -0.00000000000E+00 -0.00000000000E+00 -0.74505805969E-08  0.93827000000E+00  0.93827000000E+00 0. -1.
     999902    2    1    2    0    0 -0.12596925304E-01 -0.42958900370E-02  0.45025203434E-02  0.10298797371E+01  0.10297838914E+01 0.  0.
     999903    2    3    3    0    0  0.30545052557E-01 -0.23691924255E-01  0.12707372625E+00  0.14012632355E+00  0.44646916334E-01 0.  0.
         14    1    1    2    0    0  0.12596925304E-01  0.42958900370E-02 -0.45025203434E-02  0.14050262908E-01  0.00000000000E+00 0. -1.
     999901    1    3    3    0    0 -0.43141977861E-01  0.19396034218E-01 -0.12257120590E+00  0.88975341354E+00  0.88000000000E+00 0. -1.
        -11    1    4    4    0    0 -0.10220624165E-01 -0.90419191535E-02  0.48679356562E-01  0.50558464539E-01  0.51100000000E-03 0. -1.
         11    1    4    4    0    0  0.40765676722E-01 -0.14650005101E-01  0.78394369686E-01  0.89567859009E-01  0.51100000000E-03 0.  1.
</event>
<event>
 8    1  0.2929965E+004  0.1043930E+01  0.7957747E-01            NaN
         13   -1    0    0    0    0  0.00000000000E+00  0.00000000000E+00  0.74505805969E-08  0.10566000000E+00  0.10566000000E+00 0. -1.
     999900   -1    0    0    0    0 -0.00000000000E+00 -0.00000000000E+00 -0.74505805969E-08  0.93827000000E+00  0.93827000000E+00 0. -1.
     999902    2    1    2    0    0  0.33308778952E-02 -0.10714162969E-01 -0.83992439727E-02  0.10299144609E+01  0.10298190917E+01 0.  0.
     999903    2    3    3    0    0  0.11347299188E+00 -0.82168692958E-02  0.68498651286E-01  0.13971739959E+00  0.43419462144E-01 0.  0.
         14    1    1    2    0    0 -0.33308778952E-02  0.10714162969E-01  0.83992439727E-02  0.14015539055E-01  0.00000000000E+00 0. -1.
     999901    1    3    3    0    0 -0.11014211399E+00 -0.24972936736E-02 -0.76897895259E-01  0.89019706135E+00  0.88000000000E+00 0. -1.
        -11    1    4    4    0    0  0.35340893840E-01  0.11954817754E-01  0.63155051294E-02  0.37842346267E-01  0.51100000000E-03 0.  1.
         11    1    4    4    0    0  0.78132098041E-01 -0.20171687050E-01  0.62183146157E-01  0.10187505332E+00  0.51100000000E-03 0. -1.
</event>
<event>
 8    1  0.2929965E+004  0.1043930E+01  0.7957747E-01            NaN
         13   -1    0    0    0    0  0.00000000000E+00  0.00000000000E+00  0.74505805969E-08  0.10566000000E+00  0.10566000000E+00 0. -1.
     999900   -1    0    0    0    0 -0.00000000000E+00 -0.00000000000E+00 -0.74505805969E-08  0.93827000000E+00  0.93827000000E+00 0.  1.
     999902    2    1    2    0    0 -0.54758595648E-02 -0.24996443018E-02 -0.12872820346E-01  0.10297193433E+01  0.10296212815E+01 0.  0.
     999903    2    3    3    0    0  0.34404425187E-03  0.17760409011E-01 -0.13275162900E+00  0.14134145649E+00  0.45153757628E-01 0.  0.
         14    1    1    2    0    0  0.54758595648E-02  0.24996443018E-02  0.12872820346E-01  0.14210656680E-01  0.00000000000E+00 0. -1.
     999901    1    3    3    0    0 -0.58199038166E-02 -0.20260053312E-01  0.11987880865E+00  0.88837788683E+00  0.88000000000E+00 0. -1.
        -11    1    4    4    0    0 -0.18015719373E-01  0.35608574763E-02 -0.24468713508E-01  0.30597792604E-01  0.51100000000E-03 0. -1.
         11    1    4    4    0    0  0.18359763625E-01  0.14199551534E-01 -0.10828291549E+00  0.11074366389E+00  0.51100000000E-03 0.  1.
</event>
<event>
 8    1  0.2929965E+004  0.1043930E+01  0.7957747E-01            NaN
         13   -1    0    0    0    0  0.00000000000E+00  0.00000000000E+00  0.74505805969E-08  0.10566000000E+00  0.10566000000E+00 0. -1.
     999900   -1    0    0    0    0 -0.00000000000E+00 -0.00000000000E+00 -0.74505805969E-08  0.93827000000E+00  0.93827000000E+00 0.  1.
     999902    2    1    2    0    0 -0.52776117399E-02  0.46516753005E-02  0.11719284534E-01  0.10302613169E+01  0.10301706403E+01 0.  0.
     999903    2    3    3    0    0  0.75513255181E-01 -0.10331500155E+00 -0.30400606105E-01  0.13899365074E+00  0.44931023138E-01 0.  0.
         14    1    1    2    0    0  0.52776117399E-02 -0.46516753005E-02 -0.11719284534E-01  0.13668683140E-01  0.00000000000E+00 0.  1.
     999901    1    3    3    0    0 -0.80790866921E-01  0.10796667685E+00  0.42119890640E-01  0.89126766612E+00  0.88000000000E+00 0.  1.
        -11    1    4    4    0    0  0.21826802046E-01 -0.27863487617E-01 -0.29981732205E-01  0.46389100193E-01  0.51100000000E-03 0.  1.
         11    1    4    4    0    0  0.53686453134E-01 -0.75451513934E-01 -0.41887390027E-03  0.92604550544E-01  0.51100000000E-03 0. -1.
</event>
<event>
 8    1  0.2929965E+004  0.1043930E+01  0.7957747E-01            NaN
         13   -1    0    0    0    0  0.00000000000E+00  0.00000000000E+00  0.74505805969E-08  0.10566000000E+00  0.10566000000E+00 0. -1.
     999900   -1    0    0    0    0 -0.00000000000E+00 -0.00000000000E+00 -0.74505805969E-08  0.93827000000E+00  0.93827000000E+00 0. -1.
     999902    2    1    2    0    0 -0.61626827485E-02  0.12611316801E-01 -0.27843664894E-02  0.10296199802E+01  0.10295205326E+01 0.  0.
     999903    2    3    3    0    0  0.56087307480E-01  0.12014454932E+00 -0.12582122599E-01  0.14083741207E+00  0.45786111845E-01 0.  0.
         14    1    1    2    0    0  0.61626827485E-02 -0.12611316801E-01  0.27843664894E-02  0.14310019806E-01  0.00000000000E+00 0. -1.
     999901    1    3    3    0    0 -0.62249990229E-01 -0.10753323252E+00  0.97977561092E-02  0.88878256813E+00  0.88000000000E+00 0.  1.
        -11    1    4    4    0    0  0.26642493867E-01  0.27194152855E-01 -0.20082257157E-01  0.43045355179E-01  0.51100000000E-03 0.  1.
         11    1    4    4    0    0  0.29444813613E-01  0.92950396462E-01  0.75001345583E-02  0.97792056889E-01  0.51100000000E-03 0. -1.
</event>
<event>
 8    1  0.2929965E+004  0.1043930E+01  0.7957747E-01            NaN
         13   -1    0    0    0    0  0.00000000000E+00  0.00000000000E+00  0.74505805969E-08  0.10566000000E+00  0.10566000000E+00 0. -1.
     999900   -1    0    0    0    0 -0.00000000000E+00 -0.00000000000E+00 -0.74505805969E-08  0.93827000000E+00  0.93827000000E+00 0. -1.
     999902    2    1    2    0    0 -0.10273514932E-01  0.43932538154E-02  0.89213137159E-02  0.10296319013E+01  0.10295326204E+01 0.  0.
     999903    2    3    3    0    0  0.29819514646E-01  0.12886740279E+00  0.13274545852E-01  0.13995768260E+00  0.43771319326E-01 0.  0.
         14    1    1    2    0    0  0.10273514932E-01 -0.43932538154E-02 -0.89213137159E-02  0.14298098704E-01  0.00000000000E+00 0.  1.
     999901    1    3    3    0    0 -0.40093029578E-01 -0.12447414897E+00 -0.43532321363E-02  0.88967421870E+00  0.88000000000E+00 0.  1.
        -11    1    4    4    0    0 -0.78468433759E-02  0.25466783049E-01 -0.80910439513E-02  0.27854193635E-01  0.51100000000E-03 0. -1.
         11    1    4    4    0    0  0.37666358022E-01  0.10340061974E+00  0.21365589804E-01  0.11210348896E+00  0.51100000000E-03 0.  1.
</event>
<event>
 8    1  0.2929965E+004  0.1043930E+01  0.7957747E-01            NaN
         13   -1    0    0    0    0  0.00000000000E+00  0.00000000000E+00  0.74505805969E-08  0.10566000000E+00  0.10566000000E+00 0.  1.
     999900   -1    0    0    0    0 -0.00000000000E+00 -0.00000000000E+00 -0.74505805969E-08  0.93827000000E+00  0.93827000000E+00 0. -1.
     999902    2    1    2    0    0 -0.18394289449E-03 -0.68513115731E-03  0.91578387300E-02  0.10347447265E+01  0.10347039575E+01 0.  0.
     999903    2    3    3    0    0  0.40369968945E-01  0.68661817662E-01 -0.10995452177E+00  0.14309380066E+00  0.45184724541E-01 0.  0.
         14    1    1    2    0    0  0.18394289449E-03  0.68513115731E-03 -0.91578387300E-02  0.91852735341E-02  0.00000000000E+00 0. -1.
     999901    1    3    3    0    0 -0.40553911840E-01 -0.69346948819E-01  0.11911236050E+00  0.89165092581E+00  0.88000000000E+00 0.  1.
        -11    1    4    4    0    0  0.42734713381E-01  0.36353799143E-01 -0.86472013060E-01  0.10308018531E+00  0.51100000000E-03 0. -1.
         11    1    4    4    0    0 -0.23647444359E-02  0.32308018518E-01 -0.23482508706E-01  0.40013615345E-01  0.51100000000E-03 0.  1.
</event>
<event>
 8    1  0.2929965E+004  0.1043930E+01  0.7957747E-01            NaN
         13   -1    0    0    0    0  0.00000000000E+00  0.00000000000E+00  0.74505805969E-08  0.10566000000E+00  0.10566000000E+00 0. -1.
     999900   -1    0    0    0    0 -0.00000000000E+00 -0.00000000000E+00 -0.74505805969E-08  0.93827000000E+00  0.93827000000E+00 0. -1.
     999902    2    1    2    0    0 -0.11161400318E-01 -0.18109971496E-01  0.16746569908E-02  0.10225910122E+01  0.10223683416E+01 0.  0.
     999903    2    3    3    0    0 -0.99685005764E-01 -0.79588724843E-01 -0.10661756276E-01  0.13592971670E+00  0.45735646255E-01 0.  0.
         14    1    1    2    0    0  0.11161400318E-01  0.18109971496E-01 -0.16746569908E-02  0.21338987808E-01  0.00000000000E+00 0.  1.
     999901    1    3    3    0    0  0.88523605446E-01  0.61478753347E-01  0.12336413267E-01  0.88666129549E+00  0.88000000000E+00 0.  1.
        -11    1    4    4    0    0 -0.41738875014E-01 -0.42767266327E-01  0.16653040942E-01  0.62038356282E-01  0.51100000000E-03 0.  1.
         11    1    4    4    0    0 -0.57946130750E-01 -0.36821458516E-01 -0.27314797218E-01  0.73891360416E-01  0.51100000000E-03 0. -1.
</event>
<event>
 8    1  0.2929965E+004  0.1043930E+01  0.7957747E-01            NaN
         13   -1    0    0    0    0  0.00000000000E+00  0.00000000000E+00  0.74505805969E-08  0.10566000000E+00  0.10566000000E+00 0. -1.
     999900   -1    0    0    0    0 -0.00000000000E+00 -0.00000000000E+00 -0.74505805969E-08  0.93827000000E+00  0.93827000000E+00 0. -1.
     999902    2    1    2    0    0  0.31408520109E-02  0.13103552059E-01 -0.28249017360E-02  0.10301623532E+01  0.10300703500E+01 0.  0.
     999903    2    3    3    0    0 -0.56529627136E-01 -0.11710103673E+00 -0.16118559716E-01  0.13848386724E+00  0.44829922714E-01 0.  0.
         14    1    1    2    0    0 -0.31408520109E-02 -0.13103552059E-01  0.28249017360E-02  0.13767646776E-01  0.00000000000E+00 0. -1.
     999901    1    3    3    0    0  0.59670479147E-01  0.13020458879E+00  0.13293657980E-01  0.89167848598E+00  0.88000000000E+00 0. -1.
        -11    1    4    4    0    0 -0.21666805305E-01 -0.84018790252E-01  0.28419068569E-02  0.86815581108E-01  0.51100000000E-03 0.  1.
         11    1    4    4    0    0 -0.34862821831E-01 -0.33082246481E-01 -0.18960466573E-01  0.51668286132E-01  0.51100000000E-03 0. -1.
</event>
<event>
 8    1  0.2929965E+004  0.1043930E+01  0.7957747E-01            NaN
         13   -1    0    0    0    0  0.00000000000E+00  0.00000000000E+00  0.74505805969E-08  0.10566000000E+00  0.10566000000E+00 0. -1.
     999900   -1    0    0    0    0 -0.00000000000E+00 -0.00000000000E+00 -0.74505805969E-08  0.93827000000E+00  0.93827000000E+00 0. -1.
     999902    2    1    2    0    0 -0.98487037341E-02 -0.86947802634E-02 -0.60999579229E-02  0.10294453303E+01  0.10293434230E+01 0.  0.
     999903    2    3    3    0    0 -0.12310971742E+00 -0.23153006557E-01 -0.46785034648E-01  0.14113661540E+00  0.45151306783E-01 0.  0.
         14    1    1    2    0    0  0.98487037341E-02  0.86947802634E-02  0.60999579229E-02  0.14484669680E-01  0.00000000000E+00 0.  1.
     999901    1    3    3    0    0  0.11326101369E+00  0.14458226293E-01  0.40685076725E-01  0.88830871492E+00  0.88000000000E+00 0.  1.
        -11    1    4    4    0    0 -0.92198268671E-01 -0.74120081577E-02 -0.14274731258E-01  0.93592134736E-01  0.51100000000E-03 0. -1.
         11    1    4    4    0    0 -0.30911448750E-01 -0.15740998399E-01 -0.32510303390E-01  0.47544480668E-01  0.51100000000E-03 0.  1.
</event>
<event>
 8    1  0.2929965E+004  0.1043930E+01  0.7957747E-01            NaN
         13   -1    0    0    0    0  0.00000000000E+00  0.00000000000E+00  0.74505805969E-08  0.10566000000E+00  0.10566000000E+00 0. -1.
     999900   -1    0    0    0    0 -0.00000000000E+00 -0.00000000000E+00 -0.74505805969E-08  0.93827000000E+00  0.93827000000E+00 0.  1.
     999902    2    1    2    0    0  0.73765760354E-03 -0.12872888922E-01  0.34085204118E-02  0.10305930806E+01  0.10305067803E+01 0.  0.
     999903    2    3    3    0    0  0.48379776264E-01 -0.12567796858E+00  0.14141345184E-01  0.14204935573E+00  0.42924203904E-01 0.  0.
         14    1    1    2    0    0 -0.73765760354E-03  0.12872888922E-01 -0.34085204118E-02  0.13336919409E-01  0.00000000000E+00 0. -1.
     999901    1    3    3    0    0 -0.47642118660E-01  0.11280507966E+00 -0.10732824772E-01  0.88854372486E+00  0.88000000000E+00 0.  1.
        -11    1    4    4    0    0  0.50343486940E-01 -0.94053468857E-01  0.23026986908E-01  0.10913764212E+00  0.51100000000E-03 0.  1.
         11    1    4    4    0    0 -0.19637106763E-02 -0.31624499724E-01 -0.88856417246E-02  0.32911713603E-01  0.51100000000E-03 0. -1.
</event>
<event>
 8    1  0.2929965E+004  0.1043930E+01  0.7957747E-01            NaN
         13   -1    0    0    0    0  0.00000000000E+00  0.00000000000E+00  0.74505805969E-08  0.10566000000E+00  0.10566000000E+00 0. -1.
     999900   -1    0    0    0    0 -0.00000000000E+00 -0.00000000000E+00 -0.74505805969E-08  0.93827000000E+00  0.93827000000E+00 0. -1.
     999902    2    1    2    0    0  0.89919988910E-02 -0.10364501614E-01 -0.95165431697E-03  0.10301755613E+01  0.10300837357E+01 0.  0.
     999903    2    3    3    0    0 -0.60408845504E-02 -0.97005729968E-01 -0.92597933499E-01  0.14105704810E+00  0.43314080839E-01 0.  0.
         14    1    1    2    0    0 -0.89919988910E-02  0.10364501614E-01  0.95165431697E-03  0.13754438691E-01  0.00000000000E+00 0.  1.
     999901    1    3    3    0    0  0.15032883441E-01  0.86641228354E-01  0.91646279182E-01  0.88911851320E+00  0.88000000000E+00 0.  1.
        -11    1    4    4    0    0  0.17653172655E-02 -0.52582473071E-01 -0.21457624974E-01  0.56821858557E-01  0.51100000000E-03 0. -1.
         11    1    4    4    0    0 -0.78062018159E-02 -0.44423256897E-01 -0.71140308525E-01  0.84235189548E-01  0.51100000000E-03 0.  1.
</event>
<event>
 7    1  0.2929965E+004  0.1043930E+01  0.7957747E-01            NaN
         13   -1    0    0    0    0  0.00000000000E+00  0.00000000000E+00  0.74505805969E-08  0.10566000000E+00  0.10566000000E+00 0. -1.
     999900   -1    0    0    0    0 -0.00000000000E+00 -0.00000000000E+00 -0.74505805969E-08  0.93827000000E+00  0.93827000000E+00 0. -1.
     999903    2    1    2    0    0  0.70322254281E-01 -0.33557657268E-01 -0.11170009016E-01  0.90518752465E-01  0.44693843401E-01 0.  0.
         14    1    1    2    0    0 -0.23298073850E-01  0.17222593177E-01 -0.62542550580E-01  0.68927415401E-01  0.00000000000E+00 0.  1.
     999901    1    1    2    0    0 -0.47024180431E-01  0.16335064092E-01  0.73712559596E-01  0.88448383213E+00  0.88000000000E+00 0.  1.
        -11    1    3    3    0    0  0.57522075411E-01 -0.53917351425E-02 -0.46921041354E-03  0.57778380445E-01  0.51100000000E-03 0.  1.
         11    1    3    3    0    0  0.12800178870E-01 -0.28165922126E-01 -0.10700798602E-01  0.32740372020E-01  0.51100000000E-03 0. -1.
</event>
<event>
 8    1  0.2929965E+004  0.1043930E+01  0.7957747E-01            NaN
         13   -1    0    0    0    0  0.00000000000E+00  0.00000000000E+00  0.74505805969E-08  0.10566000000E+00  0.10566000000E+00 0.  1.
     999900   -1    0    0    0    0 -0.00000000000E+00 -0.00000000000E+00 -0.74505805969E-08  0.93827000000E+00  0.93827000000E+00 0. -1.
     999902    2    1    2    0    0  0.10912253769E-01  0.18790226505E-04  0.71055717211E-02  0.10309082188E+01  0.10308259741E+01 0.  0.
     999903    2    3    3    0    0  0.90953997234E-01  0.60838053233E-02 -0.97844432368E-01  0.14104420199E+00  0.44836276268E-01 0.  0.
         14    1    1    2    0    0 -0.10912253769E-01 -0.18790226505E-04 -0.71055717211E-02  0.13021781171E-01  0.00000000000E+00 0.  1.
     999901    1    3    3    0    0 -0.80041743466E-01 -0.60650150968E-02  0.10495000409E+00  0.88986401684E+00  0.88000000000E+00 0.  1.
        -11    1    4    4    0    0  0.94604563568E-01  0.41455384138E-02 -0.83989539457E-01  0.12657690467E+00  0.51100000000E-03 0. -1.
         11    1    4    4    0    0 -0.36505663342E-02  0.19382669094E-02 -0.13854892911E-01  0.14467297320E-01  0.51100000000E-03 0.  1.
</event>
<event>
 8    1  0.2929965E+004  0.1043930E+01  0.7957747E-01            NaN
         13   -1    0    0    0    0  0.00000000000E+00  0.00000000000E+00  0.74505805969E-08  0.10566000000E+00  0.10566000000E+00 0.  1.
     999900   -1    0    0    0    0 -0.00000000000E+00 -0.00000000000E+00 -0.74505805969E-08  0.93827000000E+00  0.93827000000E+00 0. -1.
     999902    2    1    2    0    0 -0.11420128849E-01 -0.43480989456E-02 -0.48630996311E-02  0.10307780022E+01  0.10306940937E+01 0.  0.
     999903    2    3    3    0    0 -0.12847432253E+00 -0.39122889303E-01  0.12028052961E-01  0.14218569901E+00  0.45120360451E-01 0.  0.
         14    1    1    2    0    0  0.11420128849E-01  0.43480989456E-02  0.48630996311E-02  0.13151997772E-01  0.00000000000E+00 0.  1.
     999901    1    3    3    0    0  0.11705419368E+00  0.34774790357E-01 -0.16891152592E-01  0.88859230322E+00  0.88000000000E+00 0. -1.
        -11    1    4    4    0    0 -0.84055432794E-01 -0.47290794594E-01  0.62189055577E-02  0.96647146584E-01  0.51100000000E-03 0.  1.
         11    1    4    4    0    0 -0.44418889738E-01  0.81679052911E-02  0.58091474035E-02  0.45538552425E-01  0.51100000000E-03 0. -1.
</event>
<event>
 8    1  0.2929965E+004  0.1043930E+01  0.7957747E-01            NaN
         13   -1    0    0    0    0  0.00000000000E+00  0.00000000000E+00  0.74505805969E-08  0.10566000000E+00  0.10566000000E+00 0.  1.
     999900   -1    0    0    0    0 -0.00000000000E+00 -0.00000000000E+00 -0.74505805969E-08  0.93827000000E+00  0.93827000000E+00 0. -1.
     999902    2    1    2    0    0  0.14864948803E-01  0.45346524073E-03  0.57511345893E-02  0.10279848477E+01  0.10278611770E+01 0.  0.
     999903    2    3    3    0    0 -0.65727939637E-01 -0.96960547190E-01 -0.54979351740E-01  0.13687716874E+00  0.44621972662E-01 0.  0.
         14    1    1    2    0    0 -0.14864948803E-01 -0.45346524073E-03 -0.57511345893E-02  0.15945152326E-01  0.00000000000E+00 0. -1.
     999901    1    3    3    0    0  0.80592888440E-01  0.97414012431E-01  0.60730486330E-01  0.89110767893E+00  0.88000000000E+00 0.  1.
        -11    1    4    4    0    0  0.56729923421E-02 -0.17931592554E-01 -0.92891722265E-02  0.20982723733E-01  0.51100000000E-03 0. -1.
         11    1    4    4    0    0 -0.71400931979E-01 -0.79028954637E-01 -0.45690179514E-01  0.11589444501E+00  0.51100000000E-03 0.  1.
</event>
<event>
 8    1  0.2929965E+004  0.1043930E+01  0.7957747E-01            NaN
         13   -1    0    0    0    0  0.00000000000E+00  0.00000000000E+00  0.74505805969E-08  0.10566000000E+00  0.10566000000E+00 0.  1.
     999900   -1    0    0    0    0 -0.00000000000E+00 -0.00000000000E+00 -0.74505805969E-08  0.93827000000E+00  0.93827000000E+00 0.  1.
     999902    2    1    2    0    0 -0.12135388530E-01 -0.33873496376E-02 -0.44468379674E-02  0.10305690060E+01  0.10304823919E+01 0.  0.
     999903    2    3    3    0    0  0.11020762982E-01 -0.12822003157E+00  0.34017529307E-01  0.14062579806E+00  0.45349631403E-01 0.  0.
         14    1    1    2    0    0  0.12135388530E-01  0.33873496376E-02  0.44468379674E-02  0.13360993984E-01  0.00000000000E+00 0.  1.
     999901    1    3    3    0    0 -0.23156151512E-01  0.12483268193E+00 -0.38464367275E-01  0.88994320795E+00  0.88000000000E+00 0. -1.
        -11    1    4    4    0    0 -0.82876908521E-02 -0.10284781606E+00  0.34308316594E-01  0.10873674998E+00  0.51100000000E-03 0.  1.
         11    1    4    4    0    0  0.19308453834E-01 -0.25372215507E-01 -0.29078728646E-03  0.31889048080E-01  0.51100000000E-03 0. -1.
</event>
<event>
 8    1  0.2929965E+004  0.1043930E+01  0.7957747E-01            NaN
         13   -1    0    0    0    0  0.00000000000E+00  0.00000000000E+00  0.74505805969E-08  0.10566000000E+00  0.10566000000E+00 0. -1.
     999900   -1    0    0    0    0 -0.00000000000E+00 -0.00000000000E+00 -0.74505805969E-08  0.93827000000E+00  0.93827000000E+00 0.  1.
     999902    2    1    2    0    0  0.97860057220E-03  0.11060311600E-01 -0.92238291022E-02  0.10294950710E+01  0.10293938673E+01 0.  0.
     999903    2    3    3    0    0  0.71918828869E-02  0.63980872667E-01  0.11451400898E+00  0.13924216130E+00  0.46148087551E-01 0.  0.
         14    1    1    2    0    0 -0.97860057220E-03 -0.11060311600E-01  0.92238291022E-02  0.14434928995E-01  0.00000000000E+00 0. -1.
     999901    1    3    3    0    0 -0.62132823147E-02 -0.52920561067E-01 -0.12373783808E+00  0.89025290970E+00  0.88000000000E+00 0.  1.
        -11    1    4    4    0    0  0.17759063864E-02  0.53430932343E-01  0.48546509648E-01  0.72215255276E-01  0.51100000000E-03 0. -1.
         11    1    4    4    0    0  0.54159765005E-02  0.10549940324E-01  0.65967499333E-01  0.67026906027E-01  0.51100000000E-03 0.  1.
</event>
<event>
 8    1  0.2929965E+004  0.1043930E+01  0.7957747E-01            NaN
         13   -1    0    0    0    0  0.00000000000E+00  0.00000000000E+00  0.74505805969E-08  0.10566000000E+00  0.10566000000E+00 0.  1.
     999900   -1    0    0    0    0 -0.00000000000E+00 -0.00000000000E+00 -0.74505805969E-08  0.93827000000E+00  0.93827000000E+00 0. -1.
     999902    2    1    2    0    0 -0.47207521889E-03  0.14262571572E-01 -0.20678689145E-02  0.10295105727E+01  0.10294095877E+01 0.  0.
     999903    2    3    3    0    0  0.92140874619E-01 -0.67472519090E-02  0.94573591427E-01  0.13914090617E+00  0.43365440038E-01 0.  0.
         14    1    1    2    0    0  0.47207521889E-03 -0.14262571572E-01  0.20678689145E-02  0.14419427336E-01  0.00000000000E+00 0.  1.
     999901    1    3    3    0    0 -0.92612949838E-01  0.21009823481E-01 -0.96641460341E-01  0.89036966650E+00  0.88000000000E+00 0. -1.
        -11    1    4    4    0    0  0.20761911051E-01 -0.14552749118E-01  0.78467397872E-02  0.26545656964E-01  0.51100000000E-03 0. -1.
         11    1    4    4    0    0  0.71378963568E-01  0.78054972086E-02  0.86726851640E-01  0.11259524920E+00  0.51100000000E-03 0.  1.
</event>
<event>
 8    1  0.2929965E+004  0.1043930E+01  0.7957747E-01            NaN
         13   -1    0    0    0    0  0.00000000000E+00  0.00000000000E+00  0.74505805969E-08  0.10566000000E+00  0.10566000000E+00 0. -1.
     999900   -1    0    0    0    0 -0.00000000000E+00 -0.00000000000E+00 -0.74505805969E-08  0.93827000000E+00  0.93827000000E+00 0.  1.
     999902    2    1    2    0    0 -0.60836146446E-02  0.59846395155E-02  0.10930049711E-01  0.10300630514E+01  0.10299697071E+01 0.  0.
     999903    2    3    3    0    0  0.64281410958E-01  0.44976541364E-01  0.10810543960E+00  0.14106661627E+00  0.45365351181E-01 0.  0.
         14    1    1    2    0    0  0.60836146446E-02 -0.59846395155E-02 -0.10930049711E-01  0.13866948618E-01  0.00000000000E+00 0.  1.
     999901    1    3    3    0    0 -0.70365025602E-01 -0.38991901848E-01 -0.97175389889E-01  0.88899643511E+00  0.88000000000E+00 0.  1.
        -11    1    4    4    0    0  0.18155336506E-01  0.40233664296E-01  0.49247098341E-01  0.66135480662E-01  0.51100000000E-03 0. -1.
         11    1    4    4    0    0  0.46126074452E-01  0.47428770677E-02  0.58858341259E-01  0.74931135611E-01  0.51100000000E-03 0.  1.
</event>
<event>
 8    1  0.2929965E+004  0.1043930E+01  0.7957747E-01            NaN
         13   -1    0    0    0    0  0.00000000000E+00  0.00000000000E+00  0.74505805969E-08  0.10566000000E+00  0.10566000000E+00 0.  1.
     999900   -1    0    0    0    0 -0.00000000000E+00 -0.00000000000E+00 -0.74505805969E-08  0.93827000000E+00  0.93827000000E+00 0. -1.
     999902    2    1    2    0    0 -0.81716755296E-02 -0.83479794781E-02  0.59115280947E-02  0.10308375897E+01  0.10307544447E+01 0.  0.
     999903    2    3    3    0    0 -0.84189027700E-01  0.16567803211E-01  0.10461025098E+00  0.14171393581E+00  0.42157448968E-01 0.  0.
         14    1    1    2    0    0  0.81716755296E-02  0.83479794781E-02 -0.59115280947E-02  0.13092410273E-01  0.00000000000E+00 0.  1.
     999901    1    3    3    0    0  0.76017352170E-01 -0.24915782690E-01 -0.98698722888E-01  0.88912365392E+00  0.88000000000E+00 0. -1.
        -11    1    4    4    0    0 -0.68505678729E-01 -0.46804115677E-02  0.68680808210E-01  0.97119765279E-01  0.51100000000E-03 0.  1.
         11    1    4    4    0    0 -0.15683348970E-01  0.21248214779E-01  0.35929442773E-01  0.44594170529E-01  0.51100000000E-03 0. -1.
</event>
<event>
 8    1  0.2929965E+004  0.1043930E+01  0.7957747E-01            NaN
         13   -1    0    0    0    0  0.00000000000E+00  0.00000000000E+00  0.74505805969E-08  0.10566000000E+00  0.10566000000E+00 0.  1.
     999900   -1    0    0    0    0 -0.00000000000E+00 -0.00000000000E+00 -0.74505805969E-08  0.93827000000E+00  0.93827000000E+00 0. -1.
     999902    2    1    2    0    0  0.33256383350E-03  0.12591748572E-01 -0.47336285727E-02  0.10304737758E+01  0.10303859144E+01 0.  0.
     999903    2    3    3    0    0  0.27816259237E-01 -0.11534671327E+00  0.55779927197E-01  0.13874203699E+00  0.45379995709E-01 0.  0.
         14    1    1    2    0    0 -0.33256383350E-03 -0.12591748572E-01  0.47336285727E-02  0.13456224220E-01  0.00000000000E+00 0.  1.
     999901    1    3    3    0    0 -0.27483695403E-01  0.12793846184E+00 -0.60513555769E-01  0.89173173879E+00  0.88000000000E+00 0. -1.
        -11    1    4    4    0    0 -0.10069781894E-01 -0.51493055089E-01  0.27933614693E-01  0.59443108773E-01  0.51100000000E-03 0. -1.
         11    1    4    4    0    0  0.37886041131E-01 -0.63853658181E-01  0.27846312503E-01  0.79298928219E-01  0.51100000000E-03 0.  1.
</event>
<event>
 8    1  0.2929965E+004  0.1043930E+01  0.7957747E-01            NaN
         13   -1    0    0    0    0  0.00000000000E+00  0.00000000000E+00  0.74505805969E-08  0.10566000000E+00  0.10566000000E+00 0.  1.
     999900   -1    0    0    0    0 -0.00000000000E+00 -0.00000000000E+00 -0.74505805969E-08  0.93827000000E+00  0.93827000000E+00 0. -1.
     999902    2    1    2    0    0  0.24705886931E-02  0.12981099118E-01  0.57383760230E-02  0.10295236923E+01  0.10294228923E+01 0.  0.
     999903    2    3    3    0    0 -0.12157307756E+00 -0.41659446387E-01  0.29860335021E-01  0.13881931413E+00  0.43169893527E-01 0.  0.
         14    1    1    2    0    0 -0.24705886931E-02 -0.12981099118E-01 -0.57383760230E-02  0.14406307722E-01  0.00000000000E+00 0.  1.
     999901    1    3    3    0    0  0.12404366625E+00  0.54640545504E-01 -0.24121958998E-01  0.89070437815E+00  0.88000000000E+00 0.  1.
        -11    1    4    4    0    0 -0.84209037052E-01 -0.48758012308E-01  0.17840828339E-01  0.98929580826E-01  0.51100000000E-03 0.  1.
         11    1    4    4    0    0 -0.37364040506E-01  0.70985659210E-02  0.12019506682E-01  0.39889733303E-01  0.51100000000E-03 0. -1.
</event>
<event>
 8    1  0.2929965E+004  0.1043930E+01  0.7957747E-01            NaN
         13   -1    0    0    0    0  0.00000000000E+00  0.00000000000E+00  0.74505805969E-08  0.10566000000E+00  0.10566000000E+00 0. -1.
     999900   -1    0    0    0    0 -0.00000000000E+00 -0.00000000000E+00 -0.74505805969E-08  0.93827000000E+00  0.93827000000E+00 0.  1.
     999902    2    1    2    0    0 -0.15322433953E-02 -0.10214682826E-01 -0.10283558690E-01  0.10293547095E+01  0.10292515139E+01 0.  0.
     999903    2    3    3    0    0  0.62636208694E-02 -0.13230246931E+00  0.13832152533E-01  0.14056464952E+00  0.44987953066E-01 0.  0.
         14    1    1    2    0    0  0.15322433953E-02  0.10214682826E-01  0.10283558690E-01  0.14575290543E-01  0.00000000000E+00 0. -1.
     999901    1    3    3    0    0 -0.77958642647E-02  0.12208778648E+00 -0.24115711223E-01  0.88879005993E+00  0.88000000000E+00 0.  1.
        -11    1    4    4    0    0 -0.45182285315E-02 -0.71159544717E-01  0.28463125281E-01  0.76775685052E-01  0.51100000000E-03 0.  1.
         11    1    4    4    0    0  0.10781849401E-01 -0.61142924590E-01 -0.14630972748E-01  0.63788964473E-01  0.51100000000E-03 0. -1.
</event>
<event>
 8    1  0.2929965E+004  0.1043930E+01  0.7957747E-01            NaN
         13   -1    0    0    0    0  0.00000000000E+00  0.00000000000E+00  0.74505805969E-08  0.10566000000E+00  0.10566000000E+00 0. -1.
     999900   -1    0    0    0    0 -0.00000000000E+00 -0.00000000000E+00 -0.74505805969E-08  0.93827000000E+00  0.93827000000E+00 0.  1.
     999902    2    1    2    0    0  0.53797893403E-02  0.99402039181E-02 -0.76706216757E-02  0.10302702700E+01  0.10301797130E+01 0.  0.
     999903    2    3    3    0    0  0.55142877099E-01  0.50175945459E-04  0.11999311152E+00  0.13961197056E+00  0.45303599179E-01 0.  0.
         14    1    1    2    0    0 -0.53797893403E-02 -0.99402039181E-02  0.76706216757E-02  0.13659730018E-01  0.00000000000E+00 0. -1.
     999901    1    3    3    0    0 -0.49763087759E-01  0.98900279726E-02 -0.12766373320E+00  0.89065829942E+00  0.88000000000E+00 0.  1.
        -11    1    4    4    0    0  0.60672302295E-01 -0.78843835880E-02  0.97296304887E-01  0.11493530283E+00  0.51100000000E-03 0. -1.
         11    1    4    4    0    0 -0.55294251956E-02  0.79345595335E-02  0.22696806634E-01  0.24676667732E-01  0.51100000000E-03 0.  1.
</event>
<event>
 8    1  0.2929965E+004  0.1043930E+01  0.7957747E-01            NaN
         13   -1    0    0    0    0  0.00000000000E+00  0.00000000000E+00  0.74505805969E-08  0.10566000000E+00  0.10566000000E+00 0. -1.
     999900   -1    0    0    0    0 -0.00000000000E+00 -0.00000000000E+00 -0.74505805969E-08  0.93827000000E+00  0.93827000000E+00 0.  1.
     999902    2    1    2    0    0 -0.11853915868E-01 -0.64513380044E-02  0.41039007049E-02  0.10298240763E+01  0.10297274644E+01 0.  0.
     999903    2    3    3    0    0 -0.66042097450E-02 -0.68888070421E-01 -0.11286425718E+00  0.13987606940E+00  0.45141914096E-01 0.  0.
         14    1    1    2    0    0  0.11853915868E-01  0.64513380044E-02 -0.41039007049E-02  0.14105923736E-01  0.00000000000E+00 0. -1.
     999901    1    3    3    0    0 -0.52497061226E-02  0.62436732416E-01  0.11696815789E+00  0.88994800687E+00  0.88000000000E+00 0. -1.
        -11    1    4    4    0    0  0.14654358615E-02 -0.68179300683E-01 -0.11273601461E+00  0.13175824321E+00  0.51100000000E-03 0. -1.
         11    1    4    4    0    0 -0.80696456065E-02 -0.70876973760E-03 -0.12824257030E-03  0.81178261815E-02  0.51100000000E-03 0.  1.
</event>
<event>
 8    1  0.2929965E+004  0.1043930E+01  0.7957747E-01            NaN
         13   -1    0    0    0    0  0.00000000000E+00  0.00000000000E+00  0.74505805969E-08  0.10566000000E+00  0.10566000000E+00 0.  1.
     999900   -1    0    0    0    0 -0.00000000000E+00 -0.00000000000E+00 -0.74505805969E-08  0.93827000000E+00  0.93827000000E+00 0. -1.
     999902    2    1    2    0    0 -0.11587099674E-01 -0.68421961045E-02 -0.29825239174E-02  0.10301469678E+01  0.10300547575E+01 0.  0.
     999903    2    3    3    0    0  0.47637121479E-01 -0.32770142782E-01 -0.11933516219E+00  0.14013702227E+00  0.45324678450E-01 0.  0.
         14    1    1    2    0    0  0.11587099674E-01  0.68421961045E-02  0.29825239174E-02  0.13783032153E-01  0.00000000000E+00 0. -1.
     999901    1    3    3    0    0 -0.59224221153E-01  0.25927946677E-01  0.11635263827E+00  0.89000994557E+00  0.88000000000E+00 0.  1.
        -11    1    4    4    0    0  0.14825384977E-01 -0.33464050371E-01 -0.39684756254E-01  0.53988662763E-01  0.51100000000E-03 0.  1.
         11    1    4    4    0    0  0.32811736502E-01  0.69390758920E-03 -0.79650405933E-01  0.86148359510E-01  0.51100000000E-03 0. -1.
</event>
<event>
 8    1  0.2929965E+004  0.1043930E+01  0.7957747E-01            NaN
         13   -1    0    0    0    0  0.00000000000E+00  0.00000000000E+00  0.74505805969E-08  0.10566000000E+00  0.10566000000E+00 0.  1.
     999900   -1    0    0    0    0 -0.00000000000E+00 -0.00000000000E+00 -0.74505805969E-08  0.93827000000E+00  0.93827000000E+00 0. -1.
     999902    2    1    2    0    0 -0.18797853848E-02 -0.11903104396E-01 -0.64262083234E-02  0.10302730003E+01  0.10301824797E+01 0.  0.
     999903    2    3    3    0    0 -0.28441485975E-01 -0.66717139319E-01 -0.11305765219E+00  0.14174592295E+00  0.45274486763E-01 0.  0.
         14    1    1    2    0    0  0.18797853848E-02  0.11903104396E-01  0.64262083234E-02  0.13656999699E-01  0.00000000000E+00 0.  1.
     999901    1    3    3    0    0  0.26561700590E-01  0.54814034923E-01  0.10663144386E+00  0.88852707735E+00  0.88000000000E+00 0.  1.
        -11    1    4    4    0    0 -0.23577391329E-01 -0.65048386273E-01 -0.70161999553E-01  0.98540109808E-01  0.51100000000E-03 0.  1.
         11    1    4    4    0    0 -0.48640946459E-02 -0.16687530466E-02 -0.42895652635E-01  0.43205813144E-01  0.51100000000E-03 0. -1.
</event>
<event>
 8    1  0.2929965E+004  0.1043930E+01  0.7957747E-01            NaN
         13   -1    0    0    0    0  0.00000000000E+00  0.00000000000E+00  0.74505805969E-08  0.10566000000E+00  0.10566000000E+00 0.  1.
     999900   -1    0    0    0    0 -0.00000000000E+00 -0.00000000000E+00 -0.74505805969E-08  0.93827000000E+00  0.93827000000E+00 0. -1.
     999902    2    1    2    0    0  0.11284308911E-01 -0.57435974678E-02 -0.47629226578E-02  0.10304018822E+01  0.10303130732E+01 0.  0.
     999903    2    3    3    0    0  0.50480727587E-01  0.24279954952E-01  0.12043487116E+00  0.14017030528E+00  0.44780980581E-01 0.  0.
         14    1    1    2    0    0 -0.11284308911E-01  0.57435974678E-02  0.47629226578E-02  0.13528117818E-01  0.00000000000E+00 0.  1.
     999901    1    3    3    0    0 -0.39196418677E-01 -0.30023552419E-01 -0.12519779381E+00  0.89023157690E+00  0.88000000000E+00 0. -1.
        -11    1    4    4    0    0  0.13240019228E-01  0.38634983610E-02  0.81148240676E-01  0.82313563977E-01  0.51100000000E-03 0. -1.
         11    1    4    4    0    0  0.37240708359E-01  0.20416456591E-01  0.39286630479E-01  0.57856741303E-01  0.51100000000E-03 0.  1.
</event>
<event>
 8    1  0.2929965E+004  0.1043930E+01  0.7957747E-01            NaN
         13   -1    0    0    0    0  0.00000000000E+00  0.00000000000E+00  0.74505805969E-08  0.10566000000E+00  0.10566000000E+00 0.  1.
     999900   -1    0    0    0    0 -0.00000000000E+00 -0.00000000000E+00 -0.74505805969E-08  0.93827000000E+00  0.93827000000E+00 0. -1.
     999902    2    1    2    0    0  0.89772036751E-02  0.25667581823E-02 -0.92203177229E-02  0.10308077787E+01  0.10307242521E+01 0.  0.
     999903    2    3    3    0    0  0.65390852303E-01  0.11697607195E+00 -0.26494487002E-02  0.14158611501E+00  0.45609685484E-01 0.  0.
         14    1    1    2    0    0 -0.89772036751E-02 -0.25667581823E-02  0.92203177229E-02  0.13122221317E-01  0.00000000000E+00 0.  1.
     999901    1    3    3    0    0 -0.56413648628E-01 -0.11440931377E+00 -0.65708690227E-02  0.88922166367E+00  0.88000000000E+00 0. -1.
        -11    1    4    4    0    0  0.41528915966E-01  0.30171271524E-01  0.26617024110E-02  0.51403329342E-01  0.51100000000E-03 0.  1.
         11    1    4    4    0    0  0.23861936337E-01  0.86804800429E-01 -0.53111511113E-02  0.90182785665E-01  0.51100000000E-03 0. -1.
</event>
<event>
 8    1  0.2929965E+004  0.1043930E+01  0.7957747E-01            NaN
         13   -1    0    0    0    0  0.00000000000E+00  0.00000000000E+00  0.74505805969E-08  0.10566000000E+00  0.10566000000E+00 0. -1.
     999900   -1    0    0    0    0 -0.00000000000E+00 -0.00000000000E+00 -0.74505805969E-08  0.93827000000E+00  0.93827000000E+00 0. -1.
     999902    2    1    2    0    0  0.87497063206E-03  0.11224570319E-03 -0.13987345040E-01  0.10299148655E+01  0.10298195018E+01 0.  0.
     999903    2    3    3    0    0 -0.79818391007E-01 -0.97210628036E-01 -0.44511117597E-01  0.14035606419E+00  0.43562637880E-01 0.  0.
         14    1    1    2    0    0 -0.87497063206E-03 -0.11224570319E-03  0.13987345040E-01  0.14015134461E-01  0.00000000000E+00 0. -1.
     999901    1    3    3    0    0  0.80693361639E-01  0.97322873740E-01  0.30523772558E-01  0.88955880135E+00  0.88000000000E+00 0.  1.
        -11    1    4    4    0    0 -0.32725346305E-01 -0.52064840217E-01 -0.43108176282E-01  0.75101743395E-01  0.51100000000E-03 0.  1.
         11    1    4    4    0    0 -0.47093044702E-01 -0.45145787820E-01 -0.14029413154E-02  0.65254320795E-01  0.51100000000E-03 0. -1.
</event>
<event>
 8    1  0.2929965E+004  0.1043930E+01  0.7957747E-01            NaN
         13   -1    0    0    0    0  0.00000000000E+00  0.00000000000E+00  0.74505805969E-08  0.10566000000E+00  0.10566000000E+00 0. -1.
     999900   -1    0    0    0    0 -0.00000000000E+00 -0.00000000000E+00 -0.74505805969E-08  0.93827000000E+00  0.93827000000E+00 0.  1.
     999902    2    1    2    0    0  0.45178862208E-02 -0.10525003209E-01  0.90975824986E-02  0.10293028678E+01  0.10291989316E+01 0.  0.
     999903    2    3    3    0    0 -0.71655276493E-01  0.97649155394E-02 -0.10873494465E+00  0.13795639424E+00  0.44484225276E-01 0.  0.
         14    1    1    2    0    0 -0.45178862208E-02  0.10525003209E-01 -0.90975824986E-02  0.14627132179E-01  0.00000000000E+00 0.  1.
     999901    1    3    3    0    0  0.76173162713E-01 -0.20289918749E-01  0.11783252714E+00  0.89134647359E+00  0.88000000000E+00 0. -1.
        -11    1    4    4    0    0 -0.77548802604E-01  0.11752057659E-01 -0.97817170345E-01  0.12538096977E+00  0.51100000000E-03 0.  1.
         11    1    4    4    0    0  0.58935261119E-02 -0.19871421199E-02 -0.10917774302E-01  0.12575424468E-01  0.51100000000E-03 0. -1.
</event>
<event>
 8    1  0.2929965E+004  0.1043930E+01  0.7957747E-01            NaN
         13   -1    0    0    0    0  0.00000000000E+00  0.00000000000E+00  0.74505805969E-08  0.10566000000E+00  0.10566000000E+00 0.  1.
     999900   -1    0    0    0    0 -0.00000000000E+00 -0.00000000000E+00 -0.74505805969E-08  0.93827000000E+00  0.93827000000E+00 0. -1.
     999902    2    1    2    0    0  0.10805263657E-01  0.92795821842E-02  0.18121525675E-02  0.10295721358E+01  0.10294720173E+01 0.  0.
     999903    2    3    3    0    0 -0.32041903250E-01  0.12454242185E+00 -0.32915109328E-01  0.14034360236E+00  0.45556820532E-01 0.  0.
         14    1    1    2    0    0 -0.10805263657E-01 -0.92795821842E-02 -0.18121525675E-02  0.14357864226E-01  0.00000000000E+00 0. -1.
     999901    1    3    3    0    0  0.42847166907E-01 -0.11526283967E+00  0.34727261896E-01  0.88922853341E+00  0.88000000000E+00 0.  1.
        -11    1    4    4    0    0 -0.32240583229E-01  0.73888680755E-01 -0.12953553254E-02  0.80628353680E-01  0.51100000000E-03 0.  1.
         11    1    4    4    0    0  0.19867997977E-03  0.50653741095E-01 -0.31619754003E-01  0.59715248680E-01  0.51100000000E-03 0. -1.
</event>
<event>
 8    1  0.2929965E+004  0.1043930E+01  0.7957747E-01            NaN
         13   -1    0    0    0    0  0.00000000000E+00  0.00000000000E+00  0.74505805969E-08  0.10566000000E+00  0.10566000000E+00 0. -1.
     999900   -1    0    0    0    0 -0.00000000000E+00 -0.00000000000E+00 -0.74505805969E-08  0.93827000000E+00  0.93827000000E+00 0.  1.
     999902    2    1    2    0    0 -0.94531931322E-02  0.47937067649E-02  0.82145521937E-02  0.10305202516E+01  0.10304330000E+01 0.  0.
     999903    2    3    3    0    0  0.11968061027E+00 -0.23003871741E-01  0.51189445183E-01  0.13962458655E+00  0.44967091089E-01 0.  0.
         14    1    1    2    0    0  0.94531931322E-02 -0.47937067649E-02 -0.82145521937E-02  0.13409748420E-01  0.00000000000E+00 0. -1.
     999901    1    3    3    0    0 -0.12913380340E+00  0.27797578506E-01 -0.42974892989E-01  0.89089566504E+00  0.88000000000E+00 0. -1.
        -11    1    4    4    0    0  0.40644991035E-01  0.94543069608E-02  0.37641310729E-02  0.41902613523E-01  0.51100000000E-03 0. -1.
         11    1    4    4    0    0  0.79035619231E-01 -0.32458178701E-01  0.47425314110E-01  0.97721973022E-01  0.51100000000E-03 0.  1.
</event>
<event>
 8    1  0.2929965E+004  0.1043930E+01  0.7957747E-01            NaN
         13   -1    0    0    0    0  0.00000000000E+00  0.00000000000E+00  0.74505805969E-08  0.10566000000E+00  0.10566000000E+00 0.  1.
     999900   -1    0    0    0    0 -0.00000000000E+00 -0.00000000000E+00 -0.74505805969E-08  0.93827000000E+00  0.93827000000E+00 0. -1.
     999902    2    1    2    0    0  0.70934074212E-02 -0.24769470256E-03 -0.12110947610E-01  0.10298924492E+01  0.10297967780E+01 0.  0.
     999903    2    3    3    0    0  0.82546474870E-01  0.30578085884E-01 -0.10146379242E+00  0.14162034839E+00  0.44860696126E-01 0.  0.
         14    1    1    2    0    0 -0.70934074212E-02  0.24769470256E-03  0.12110947610E-01  0.14037550838E-01  0.00000000000E+00 0.  1.
     999901    1    3    3    0    0 -0.75453067449E-01 -0.30825780586E-01  0.89352844806E-01  0.88827210077E+00  0.88000000000E+00 0.  1.
        -11    1    4    4    0    0  0.28335288923E-01  0.13588408939E-01 -0.69869531211E-01  0.76612962144E-01  0.51100000000E-03 0. -1.
         11    1    4    4    0    0  0.54211185946E-01  0.16989676945E-01 -0.31594261205E-01  0.65007386245E-01  0.51100000000E-03 0.  1.
</event>
<event>
 8    1  0.2929965E+004  0.1043930E+01  0.7957747E-01            NaN
         13   -1    0    0    0    0  0.00000000000E+00  0.00000000000E+00  0.74505805969E-08  0.10566000000E+00  0.10566000000E+00 0. -1.
     999900   -1    0    0    0    0 -0.00000000000E+00 -0.00000000000E+00 -0.74505805969E-08  0.93827000000E+00  0.93827000000E+00 0.  1.
     999902    2    1    2    0    0 -0.73887435462E-02  0.11144560050E-01  0.43043495474E-02  0.10298828588E+01  0.10297870560E+01 0.  0.
     999903    2    3    3    0    0  0.29673490742E-01  0.11282186600E+00 -0.64785668391E-01  0.14056552833E+00  0.44183655644E-01 0.  0.
         14    1    1    2    0    0  0.73887435462E-02 -0.11144560050E-01 -0.43043495474E-02  0.14047141165E-01  0.00000000000E+00 0. -1.
     999901    1    3    3    0    0 -0.37062234288E-01 -0.10167730595E+00  0.69090017939E-01  0.88931733050E+00  0.88000000000E+00 0. -1.
        -11    1    4    4    0    0  0.45561701255E-02  0.91566951953E-01 -0.44532381571E-01  0.10192477376E+00  0.51100000000E-03 0.  1.
         11    1    4    4    0    0  0.25117320616E-01  0.21254914044E-01 -0.20253286820E-01  0.38640754573E-01  0.51100000000E-03 0. -1.
</event>
<event>
 8    1  0.2929965E+004  0.1043930E+01  0.7957747E-01            NaN
         13   -1    0    0    0    0  0.00000000000E+00  0.00000000000E+00  0.74505805969E-08  0.10566000000E+00  0.10566000000E+00 0. -1.
     999900   -1    0    0    0    0 -0.00000000000E+00 -0.00000000000E+00 -0.74505805969E-08  0.93827000000E+00  0.93827000000E+00 0.  1.
     999902    2    1    2    0    0 -0.12972190761E-01 -0.33212696328E-02 -0.15587382779E-02  0.10304489678E+01  0.10303607800E+01 0.  0.
     999903    2    3    3    0    0  0.81872401235E-01  0.90275330926E-01 -0.49923757310E-01  0.13910448030E+00  0.44776661755E-01 0.  0.
         14    1    1    2    0    0  0.12972190761E-01  0.33212696328E-02  0.15587382779E-02  0.13481032235E-01  0.00000000000E+00 0.  1.
     999901    1    3    3    0    0 -0.94844591996E-01 -0.93596600558E-01  0.48365019032E-01  0.89134448746E+00  0.88000000000E+00 0.  1.
        -11    1    4    4    0    0  0.60010849435E-01  0.41777343668E-01 -0.12805637701E-01  0.74235395680E-01  0.51100000000E-03 0.  1.
         11    1    4    4    0    0  0.21861551801E-01  0.48497987258E-01 -0.37118119609E-01  0.64869084621E-01  0.51100000000E-03 0. -1.
</event>
<event>
 8    1  0.2929965E+004  0.1043930E+01  0.7957747E-01            NaN
         13   -1    0    0    0    0  0.00000000000E+00  0.00000000000E+00  0.74505805969E-08  0.10566000000E+00  0.10566000000E+00 0.  1.
     999900   -1    0    0    0    0 -0.00000000000E+00 -0.00000000000E+00 -0.74505805969E-08  0.93827000000E+00  0.93827000000E+00 0. -1.
     999902    2    1    2    0    0  0.13054233986E-01  0.10225566739E-01  0.35465042462E-02  0.10269726142E+01  0.10268326044E+01 0.  0.
     999903    2    3    3    0    0 -0.44387728930E-01 -0.80034170684E-01  0.89841142702E-01  0.13630254965E+00  0.46165085957E-01 0.  0.
         14    1    1    2    0    0 -0.13054233986E-01 -0.10225566739E-01 -0.35465042462E-02  0.16957385779E-01  0.00000000000E+00 0. -1.
     999901    1    3    3    0    0  0.57441962916E-01  0.90259737424E-01 -0.86294638455E-01  0.89067006457E+00  0.88000000000E+00 0.  1.
        -11    1    4    4    0    0 -0.20996632899E-01 -0.25481952501E-02  0.13906236903E-01  0.25317907456E-01  0.51100000000E-03 0. -1.
         11    1    4    4    0    0 -0.23391096031E-01 -0.77485975434E-01  0.75934905798E-01  0.11098464219E+00  0.51100000000E-03 0.  1.
</event>
<event>
 8    1  0.2929965E+004  0.1043930E+01  0.7957747E-01            NaN
         13   -1    0    0    0    0  0.00000000000E+00  0.00000000000E+00  0.74505805969E-08  0.10566000000E+00  0.10566000000E+00 0. -1.
     999900   -1    0    0    0    0 -0.00000000000E+00 -0.00000000000E+00 -0.74505805969E-08  0.93827000000E+00  0.93827000000E+00 0. -1.
     999902    2    1    2    0    0 -0.81460162629E-02  0.32175448640E-02  0.95293815809E-02  0.10309870757E+01  0.10309058303E+01 0.  0.
     999903    2    3    3    0    0 -0.28840332938E-02 -0.10400347524E+00 -0.81909310011E-01  0.13976035375E+00  0.44707727546E-01 0.  0.
         14    1    1    2    0    0  0.81460162629E-02 -0.32175448640E-02 -0.95293815809E-02  0.12942924292E-01  0.00000000000E+00 0.  1.
     999901    1    3    3    0    0 -0.52619829691E-02  0.10722102011E+00  0.91438691592E-01  0.89122672196E+00  0.88000000000E+00 0.  1.
        -11    1    4    4    0    0  0.18953036528E-01 -0.37352368670E-01 -0.40731091087E-01  0.58426876872E-01  0.51100000000E-03 0. -1.
         11    1    4    4    0    0 -0.21837069821E-01 -0.66651106573E-01 -0.41178218924E-01  0.81333476875E-01  0.51100000000E-03 0.  1.
</event>
<event>
 8    1  0.2929965E+004  0.1043930E+01  0.7957747E-01            NaN
         13   -1    0    0    0    0  0.00000000000E+00  0.00000000000E+00  0.74505805969E-08  0.10566000000E+00  0.10566000000E+00 0.  1.
     999900   -1    0    0    0    0 -0.00000000000E+00 -0.00000000000E+00 -0.74505805969E-08  0.93827000000E+00  0.93827000000E+00 0.  1.
     999902    2    1    2    0    0  0.17577125396E-01 -0.84732591220E-02 -0.90231365146E-02  0.10224318966E+01  0.10222058573E+01 0.  0.
     999903    2    3    3    0    0  0.77283711157E-01 -0.53744700742E-01 -0.86987828581E-01  0.13581310985E+00  0.44911620068E-01 0.  0.
         14    1    1    2    0    0 -0.17577125396E-01  0.84732591220E-02  0.90231365146E-02  0.21498103402E-01  0.00000000000E+00 0. -1.
     999901    1    3    3    0    0 -0.59706585761E-01  0.45271441620E-01  0.77964692066E-01  0.88661878675E+00  0.88000000000E+00 0.  1.
        -11    1    4    4    0    0  0.17967960109E-01 -0.88560725983E-02 -0.47588348448E-01  0.51635158965E-01  0.51100000000E-03 0.  1.
         11    1    4    4    0    0  0.59315751048E-01 -0.44888628144E-01 -0.39399480133E-01  0.84177950883E-01  0.51100000000E-03 0. -1.
</event>
<event>
 8    1  0.2929965E+004  0.1043930E+01  0.7957747E-01            NaN
         13   -1    0    0    0    0  0.00000000000E+00  0.00000000000E+00  0.74505805969E-08  0.10566000000E+00  0.10566000000E+00 0. -1.
     999900   -1    0    0    0    0 -0.00000000000E+00 -0.00000000000E+00 -0.74505805969E-08  0.93827000000E+00  0.93827000000E+00 0.  1.
     999902    2    1    2    0    0 -0.27865528270E-02 -0.14872072107E-01 -0.11662359041E-02  0.10287542459E+01  0.10286423066E+01 0.  0.
     999903    2    3    3    0    0 -0.11169640389E+00  0.46546310654E-01 -0.50021225465E-01  0.13857427345E+00  0.45365852672E-01 0.  0.
         14    1    1    2    0    0  0.27865528270E-02  0.14872072107E-01  0.11662359041E-02  0.15175754070E-01  0.00000000000E+00 0.  1.
     999901    1    3    3    0    0  0.10890985106E+00 -0.61418382761E-01  0.48854989561E-01  0.89017997248E+00  0.88000000000E+00 0. -1.
        -11    1    4    4    0    0 -0.86449545183E-01  0.55106081754E-01 -0.38168721282E-01  0.10939523076E+00  0.51100000000E-03 0. -1.
         11    1    4    4    0    0 -0.25246858704E-01 -0.85597711001E-02 -0.11852504183E-01  0.29179042686E-01  0.51100000000E-03 0.  1.
</event>
<event>
 8    1  0.2929965E+004  0.1043930E+01  0.7957747E-01            NaN
         13   -1    0    0    0    0  0.00000000000E+00  0.00000000000E+00  0.74505805969E-08  0.10566000000E+00  0.10566000000E+00 0. -1.
     999900   -1    0    0    0    0 -0.00000000000E+00 -0.00000000000E+00 -0.74505805969E-08  0.93827000000E+00  0.93827000000E+00 0. -1.
     999902    2    1    2    0    0  0.49491143621E-02 -0.41874898821E-02  0.14917013570E-01  0.10276651269E+01  0.10275364066E+01 0.  0.
     999903    2    3    3    0    0 -0.13126476097E+00  0.15966333138E-01 -0.74051978593E-02  0.13667765358E+00  0.33772514937E-01 0.  0.
         14    1    1    2    0    0 -0.49491143621E-02  0.41874898821E-02 -0.14917013570E-01  0.16264873142E-01  0.00000000000E+00 0.  1.
     999901    1    3    3    0    0  0.13621387534E+00 -0.20153823020E-01  0.22322211429E-01  0.89098747328E+00  0.88000000000E+00 0.  1.
        -11    1    4    4    0    0 -0.39109163349E-01 -0.35382217222E-02 -0.15303702923E-01  0.42148666823E-01  0.51100000000E-03 0.  1.
         11    1    4    4    0    0 -0.92155597625E-01  0.19504554860E-01  0.78985050633E-02  0.94528986756E-01  0.51100000000E-03 0. -1.
</event>
<event>
 8    1  0.2929965E+004  0.1043930E+01  0.7957747E-01            NaN
         13   -1    0    0    0    0  0.00000000000E+00  0.00000000000E+00  0.74505805969E-08  0.10566000000E+00  0.10566000000E+00 0.  1.
     999900   -1    0    0    0    0 -0.00000000000E+00 -0.00000000000E+00 -0.74505805969E-08  0.93827000000E+00  0.93827000000E+00 0.  1.
     999902    2    1    2    0    0 -0.30296131228E-02 -0.13005307841E-01  0.29350215863E-02  0.10302577310E+01  0.10301670065E+01 0.  0.
     999903    2    3    3    0    0 -0.53698807498E-01  0.36225851000E-01 -0.11504719443E+00  0.13957772250E+00  0.45279238793E-01 0.  0.
         14    1    1    2    0    0  0.30296131228E-02  0.13005307841E-01 -0.29350215863E-02  0.13672268993E-01  0.00000000000E+00 0. -1.
     999901    1    3    3    0    0  0.50669194375E-01 -0.49231158841E-01  0.11798221601E+00  0.89068000851E+00  0.88000000000E+00 0. -1.
        -11    1    4    4    0    0 -0.76244400605E-02 -0.65562145885E-02 -0.42031044984E-01  0.43220202445E-01  0.51100000000E-03 0. -1.
         11    1    4    4    0    0 -0.46074367437E-01  0.42782065588E-01 -0.73016149441E-01  0.96357520054E-01  0.51100000000E-03 0.  1.
</event>
<event>
 8    1  0.2929965E+004  0.1043930E+01  0.7957747E-01            NaN
         13   -1    0    0    0    0  0.00000000000E+00  0.00000000000E+00  0.74505805969E-08  0.10566000000E+00  0.10566000000E+00 0.  1.
     999900   -1    0    0    0    0 -0.00000000000E+00 -0.00000000000E+00 -0.74505805969E-08  0.93827000000E+00  0.93827000000E+00 0. -1.
     999902    2    1    2    0    0 -0.11336897976E-01 -0.89230034704E-02  0.13948771796E-02  0.10294354862E+01  0.10293334394E+01 0.  0.
     999903    2    3    3    0    0 -0.33714228699E-01 -0.24979044089E-01  0.12611163983E+00  0.14021514670E+00  0.44671465202E-01 0.  0.
         14    1    1    2    0    0  0.11336897976E-01  0.89230034704E-02 -0.13948771796E-02  0.14494513755E-01  0.00000000000E+00 0. -1.
     999901    1    3    3    0    0  0.22377330723E-01  0.16056040618E-01 -0.12471676265E+00  0.88922033954E+00  0.88000000000E+00 0. -1.
        -11    1    4    4    0    0 -0.29465688937E-01  0.49252722072E-02  0.76525682850E-01  0.82151849568E-01  0.51100000000E-03 0. -1.
         11    1    4    4    0    0 -0.42485397620E-02 -0.29904316296E-01  0.49585956981E-01  0.58063297133E-01  0.51100000000E-03 0.  1.
</event>
<event>
 8    1  0.2929965E+004  0.1043930E+01  0.7957747E-01            NaN
         13   -1    0    0    0    0  0.00000000000E+00  0.00000000000E+00  0.74505805969E-08  0.10566000000E+00  0.10566000000E+00 0.  1.
     999900   -1    0    0    0    0 -0.00000000000E+00 -0.00000000000E+00 -0.74505805969E-08  0.93827000000E+00  0.93827000000E+00 0. -1.
     999902    2    1    2    0    0 -0.14155113685E-01  0.63828030605E-02  0.69697508898E-03  0.10283867316E+01  0.10282692627E+01 0.  0.
     999903    2    3    3    0    0  0.12164965867E+00 -0.31753698233E-02 -0.43626693159E-01  0.13681571231E+00  0.44794289282E-01 0.  0.
         14    1    1    2    0    0  0.14155113685E-01 -0.63828030605E-02 -0.69697508898E-03  0.15543268402E-01  0.00000000000E+00 0.  1.
     999901    1    3    3    0    0 -0.13580477235E+00  0.95581728837E-02  0.44323668248E-01  0.89157101929E+00  0.88000000000E+00 0. -1.
        -11    1    4    4    0    0  0.50173583401E-01 -0.70516891682E-02  0.40151982204E-02  0.50828119473E-01  0.51100000000E-03 0.  1.
         11    1    4    4    0    0  0.71476075266E-01  0.38763193449E-02 -0.47641891380E-01  0.85987592840E-01  0.51100000000E-03 0. -1.
</event>
<event>
 8    1  0.2929965E+004  0.1043930E+01  0.7957747E-01            NaN
         13   -1    0    0    0    0  0.00000000000E+00  0.00000000000E+00  0.74505805969E-08  0.10566000000E+00  0.10566000000E+00 0.  1.
     999900   -1    0    0    0    0 -0.00000000000E+00 -0.00000000000E+00 -0.74505805969E-08  0.93827000000E+00  0.93827000000E+00 0.  1.
     999902    2    1    2    0    0 -0.41036211832E-02 -0.11398498671E-01  0.60166959245E-02  0.10304035035E+01  0.10303147159E+01 0.  0.
     999903    2    3    3    0    0 -0.11897363267E+00  0.46513773512E-01  0.37300660264E-01  0.14050034175E+00  0.45063847799E-01 0.  0.
         14    1    1    2    0    0  0.41036211832E-02  0.11398498671E-01 -0.60166959245E-02  0.13526496539E-01  0.00000000000E+00 0.  1.
     999901    1    3    3    0    0  0.11487001148E+00 -0.57912272183E-01 -0.31283964340E-01  0.88990316172E+00  0.88000000000E+00 0. -1.
        -11    1    4    4    0    0 -0.77956168282E-01  0.28996909306E-01  0.46010482135E-01  0.95053724335E-01  0.51100000000E-03 0. -1.
         11    1    4    4    0    0 -0.41017464383E-01  0.17516864206E-01 -0.87098218710E-02  0.45446617411E-01  0.51100000000E-03 0.  1.
</event>
<event>
 8    1  0.2929965E+004  0.1043930E+01  0.7957747E-01            NaN
         13   -1    0    0    0    0  0.00000000000E+00  0.00000000000E+00  0.74505805969E-08  0.10566000000E+00  0.10566000000E+00 0. -1.
     999900   -1    0    0    0    0 -0.00000000000E+00 -0.00000000000E+00 -0.74505805969E-08  0.93827000000E+00  0.93827000000E+00 0. -1.
     999902    2    1    2    0    0 -0.34593143466E-02 -0.13481116290E-01 -0.16173716557E-03  0.10300111814E+01  0.10299171327E+01 0.  0.
     999903    2    3    3    0    0  0.57515915927E-01  0.71369913348E-01  0.94442489529E-01  0.13879424056E+00  0.44076209776E-01 0.  0.
         14    1    1    2    0    0  0.34593143466E-02  0.13481116290E-01  0.16173716557E-03  0.13918818596E-01  0.00000000000E+00 0. -1.
     999901    1    3    3    0    0 -0.60975230274E-01 -0.84851029639E-01 -0.94604226694E-01  0.89121694084E+00  0.88000000000E+00 0.  1.
        -11    1    4    4    0    0  0.24466248186E-01  0.46605173997E-02  0.37697943572E-01  0.45185327190E-01  0.51100000000E-03 0.  1.
         11    1    4    4    0    0  0.33049667741E-01  0.66709395949E-01  0.56744545957E-01  0.93608913371E-01  0.51100000000E-03 0. -1.
</event>
<event>
 8    1  0.2929965E+004  0.1043930E+01  0.7957747E-01            NaN
         13   -1    0    0    0    0  0.00000000000E+00  0.00000000000E+00  0.74505805969E-08  0.10566000000E+00  0.10566000000E+00 0. -1.
     999900   -1    0    0    0    0 -0.00000000000E+00 -0.00000000000E+00 -0.74505805969E-08  0.93827000000E+00  0.93827000000E+00 0. -1.
     999902    2    1    2    0    0  0.15894529966E-02  0.13605850296E-01 -0.14654349108E-02  0.10301534612E+01  0.10300613382E+01 0.  0.
     999903    2    3    3    0    0  0.36097424756E-02 -0.11497030196E+00  0.61472093779E-01  0.13858347455E+00  0.46854674582E-01 0.  0.
         14    1    1    2    0    0 -0.15894529966E-02 -0.13605850296E-01  0.14654349108E-02  0.13776538846E-01  0.00000000000E+00 0.  1.
     999901    1    3    3    0    0 -0.20202894790E-02  0.12857615226E+00 -0.62937528690E-01  0.89156998661E+00  0.88000000000E+00 0.  1.
        -11    1    4    4    0    0  0.51129673954E-02 -0.83344773196E-01  0.19053463318E-01  0.85649222063E-01  0.51100000000E-03 0.  1.
         11    1    4    4    0    0 -0.15032249198E-02 -0.31625528767E-01  0.42418630461E-01  0.52934252485E-01  0.51100000000E-03 0. -1.
</event>
<event>
 8    1  0.2929965E+004  0.1043930E+01  0.7957747E-01            NaN
         13   -1    0    0    0    0  0.00000000000E+00  0.00000000000E+00  0.74505805969E-08  0.10566000000E+00  0.10566000000E+00 0.  1.
     999900   -1    0    0    0    0 -0.00000000000E+00 -0.00000000000E+00 -0.74505805969E-08  0.93827000000E+00  0.93827000000E+00 0.  1.
     999902    2    1    2    0    0 -0.90288971266E-02  0.18011984076E-02  0.16020047126E-01  0.10254527922E+01  0.10252863121E+01 0.  0.
     999903    2    3    3    0    0 -0.45506377840E-01  0.11017913211E+00 -0.47815497445E-01  0.13576107036E+00  0.43982665381E-01 0.  0.
         14    1    1    2    0    0  0.90288971266E-02 -0.18011984076E-02 -0.16020047126E-01  0.18477207824E-01  0.00000000000E+00 0. -1.
     999901    1    3    3    0    0  0.36477480714E-01 -0.10837793370E+00  0.63835544571E-01  0.88969172181E+00  0.88000000000E+00 0.  1.
        -11    1    4    4    0    0 -0.47261140771E-01  0.10175952740E+00 -0.54614026446E-01  0.12478609638E+00  0.51100000000E-03 0.  1.
         11    1    4    4    0    0  0.17547629310E-02  0.84196047065E-02  0.67985290012E-02  0.10974973983E-01  0.51100000000E-03 0. -1.
</event>
<event>
 8    1  0.2929965E+004  0.1043930E+01  0.7957747E-01            NaN
         13   -1    0    0    0    0  0.00000000000E+00  0.00000000000E+00  0.74505805969E-08  0.10566000000E+00  0.10566000000E+00 0.  1.
     999900   -1    0    0    0    0 -0.00000000000E+00 -0.00000000000E+00 -0.74505805969E-08  0.93827000000E+00  0.93827000000E+00 0. -1.
     999902    2    1    2    0    0 -0.36845198058E-02 -0.59957740775E-02 -0.14175093033E-01  0.10281041270E+01  0.10279823139E+01 0.  0.
     999903    2    3    3    0    0 -0.96670259558E-01  0.26875336262E-01  0.81470721242E-01  0.13744427080E+00  0.46754960965E-01 0.  0.
         14    1    1    2    0    0  0.36845198058E-02  0.59957740775E-02  0.14175093033E-01  0.15825872977E-01  0.00000000000E+00 0.  1.
     999901    1    3    3    0    0  0.92985739752E-01 -0.32871110339E-01 -0.95645814275E-01  0.89065985622E+00  0.88000000000E+00 0. -1.
        -11    1    4    4    0    0 -0.61063854131E-01  0.38369618524E-01  0.43964444353E-01  0.84463929551E-01  0.51100000000E-03 0. -1.
         11    1    4    4    0    0 -0.35606405426E-01 -0.11494282262E-01  0.37506276890E-01  0.52980341252E-01  0.51100000000E-03 0.  1.
</event>
<event>
 8    1  0.2929965E+004  0.1043930E+01  0.7957747E-01            NaN
         13   -1    0    0    0    0  0.00000000000E+00  0.00000000000E+00  0.74505805969E-08  0.10566000000E+00  0.10566000000E+00 0.  1.
     999900   -1    0    0    0    0 -0.00000000000E+00 -0.00000000000E+00 -0.74505805969E-08  0.93827000000E+00  0.93827000000E+00 0. -1.
     999902    2    1    2    0    0  0.18137408177E-02 -0.58630719281E-03 -0.14630957402E-01  0.10291753964E+01  0.10290696275E+01 0.  0.
     999903    2    3    3    0    0  0.11903348468E+00  0.56345875097E-01 -0.14127675546E-02  0.13948080711E+00  0.45924628743E-01 0.  0.
         14    1    1    2    0    0 -0.18137408177E-02  0.58630719281E-03  0.14630957402E-01  0.14754603566E-01  0.00000000000E+00 0.  1.
     999901    1    3    3    0    0 -0.11721974386E+00 -0.56932182290E-01 -0.13218189848E-01  0.88969458932E+00  0.88000000000E+00 0. -1.
        -11    1    4    4    0    0  0.10994286756E+00  0.33588120837E-01 -0.88985248775E-03  0.11496368534E+00  0.51100000000E-03 0.  1.
         11    1    4    4    0    0  0.90906171119E-02  0.22757754261E-01 -0.52291506685E-03  0.24517121765E-01  0.51100000000E-03 0. -1.
</event>
<event>
 8    1  0.2929965E+004  0.1043930E+01  0.7957747E-01            NaN
         13   -1    0    0    0    0  0.00000000000E+00  0.00000000000E+00  0.74505805969E-08  0.10566000000E+00  0.10566000000E+00 0.  1.
     999900   -1    0    0    0    0 -0.00000000000E+00 -0.00000000000E+00 -0.74505805969E-08  0.93827000000E+00  0.93827000000E+00 0. -1.
     999902    2    1    2    0    0 -0.64947265279E-02 -0.46604379384E-02 -0.11572279631E-01  0.10298651925E+01  0.10297691469E+01 0.  0.
     999903    2    3    3    0    0  0.11649327271E+00  0.32569284440E-01 -0.52953777963E-01  0.13957056227E+00  0.45215023801E-01 0.  0.
         14    1    1    2    0    0  0.64947265279E-02  0.46604379384E-02  0.11572279631E-01  0.14064807510E-01  0.00000000000E+00 0.  1.
     999901    1    3    3    0    0 -0.12298799924E+00 -0.37229722379E-01  0.41381498333E-01  0.89029463021E+00  0.88000000000E+00 0. -1.
        -11    1    4    4    0    0  0.57229024600E-01  0.16095870245E-01 -0.16560296707E-02  0.59474716063E-01  0.51100000000E-03 0.  1.
         11    1    4    4    0    0  0.59264248111E-01  0.16473414195E-01 -0.51297748293E-01  0.80095846211E-01  0.51100000000E-03 0. -1.
</event>
<event>
 8    1  0.2929965E+004  0.1043930E+01  0.7957747E-01            NaN
         13   -1    0    0    0    0  0.00000000000E+00  0.00000000000E+00  0.74505805969E-08  0.10566000000E+00  0.10566000000E+00 0.  1.
     999900   -1    0    0    0    0 -0.00000000000E+00 -0.00000000000E+00 -0.74505805969E-08  0.93827000000E+00  0.93827000000E+00 0. -1.
     999902    2    1    2    0    0 -0.12875313509E-01  0.20557960310E-02  0.46311823434E-02  0.10300935321E+01  0.10300006005E+01 0.  0.
     999903    2    3    3    0    0  0.10117888692E-01 -0.11777280511E+00  0.60384952355E-01  0.13992721958E+00  0.44277296810E-01 0.  0.
         14    1    1    2    0    0  0.12875313509E-01 -0.20557960310E-02 -0.46311823434E-02  0.13836467945E-01  0.00000000000E+00 0. -1.
     999901    1    3    3    0    0 -0.22993202201E-01  0.11982860114E+00 -0.55753770011E-01  0.89016631248E+00  0.88000000000E+00 0.  1.
        -11    1    4    4    0    0  0.10454362915E-01 -0.68277408913E-01  0.58291239871E-01  0.90383781944E-01  0.51100000000E-03 0. -1.
         11    1    4    4    0    0 -0.33647422306E-03 -0.49495396198E-01  0.20937124843E-02  0.49543437634E-01  0.51100000000E-03 0.  1.
</event>
<event>
 8    1  0.2929965E+004  0.1043930E+01  0.7957747E-01            NaN
         13   -1    0    0    0    0  0.00000000000E+00  0.00000000000E+00  0.74505805969E-08  0.10566000000E+00  0.10566000000E+00 0. -1.
     999900   -1    0    0    0    0 -0.00000000000E+00 -0.00000000000E+00 -0.74505805969E-08  0.93827000000E+00  0.93827000000E+00 0.  1.
     999902    2    1    2    0    0  0.14353233034E-01 -0.10841408057E-03 -0.35451519001E-02  0.10291450362E+01  0.10290388284E+01 0.  0.
     999903    2    3    3    0    0  0.12740054162E+00 -0.24952401430E-02  0.40393845893E-01  0.14082300764E+00  0.44298221954E-01 0.  0.
         14    1    1    2    0    0 -0.14353233034E-01  0.10841408057E-03  0.35451519001E-02  0.14784963786E-01  0.00000000000E+00 0. -1.
     999901    1    3    3    0    0 -0.11304730858E+00  0.23868260624E-02 -0.43938997793E-01  0.88832202857E+00  0.88000000000E+00 0.  1.
        -11    1    4    4    0    0  0.67086788304E-01 -0.22665614039E-03  0.44206676748E-01  0.80344134372E-01  0.51100000000E-03 0. -1.
         11    1    4    4    0    0  0.60313753313E-01 -0.22685840026E-02 -0.38128308553E-02  0.60478873272E-01  0.51100000000E-03 0.  1.
</event>
<event>
 8    1  0.2929965E+004  0.1043930E+01  0.7957747E-01            NaN
         13   -1    0    0    0    0  0.00000000000E+00  0.00000000000E+00  0.74505805969E-08  0.10566000000E+00  0.10566000000E+00 0.  1.
     999900   -1    0    0    0    0 -0.00000000000E+00 -0.00000000000E+00 -0.74505805969E-08  0.93827000000E+00  0.93827000000E+00 0. -1.
     999902    2    1    2    0    0 -0.13825276249E-01  0.47953722774E-03  0.12051297962E-02  0.10300440158E+01  0.10299504133E+01 0.  0.
     999903    2    3    3    0    0  0.10301331491E+00 -0.48560836455E-01 -0.64588015360E-01  0.13853689155E+00  0.45287533691E-01 0.  0.
         14    1    1    2    0    0  0.13825276249E-01 -0.47953722774E-03 -0.12051297962E-02  0.13885984197E-01  0.00000000000E+00 0.  1.
     999901    1    3    3    0    0 -0.11683859116E+00  0.49040373683E-01  0.65793145156E-01  0.89150712425E+00  0.88000000000E+00 0.  1.
        -11    1    4    4    0    0  0.87770374998E-01 -0.20343191453E-01 -0.42699343070E-01  0.99704459205E-01  0.51100000000E-03 0. -1.
         11    1    4    4    0    0  0.15242939911E-01 -0.28217645002E-01 -0.21888672290E-01  0.38832432350E-01  0.51100000000E-03 0.  1.
</event>
<event>
 8    1  0.2929965E+004  0.1043930E+01  0.7957747E-01            NaN
         13   -1    0    0    0    0  0.00000000000E+00  0.00000000000E+00  0.74505805969E-08  0.10566000000E+00  0.10566000000E+00 0.  1.
     999900   -1    0    0    0    0 -0.00000000000E+00 -0.00000000000E+00 -0.74505805969E-08  0.93827000000E+00  0.93827000000E+00 0.  1.
     999902    2    1    2    0    0 -0.76728875564E-02 -0.53238745853E-02  0.93943377578E-02  0.10306834749E+01  0.10305983481E+01 0.  0.
     999903    2    3    3    0    0 -0.10475975149E+00  0.82966027670E-01 -0.22558553366E-02  0.14087636496E+00  0.44531944044E-01 0.  0.
         14    1    1    2    0    0  0.76728875564E-02  0.53238745853E-02 -0.93943377578E-02  0.13246525052E-01  0.00000000000E+00 0. -1.
     999901    1    3    3    0    0  0.97086863936E-01 -0.88289902255E-01  0.11650193094E-01  0.88980710999E+00  0.88000000000E+00 0. -1.
        -11    1    4    4    0    0 -0.42230992948E-01  0.11743336634E-01  0.10949980735E-01  0.45183248221E-01  0.51100000000E-03 0. -1.
         11    1    4    4    0    0 -0.62528758545E-01  0.71222691036E-01 -0.13205836072E-01  0.95693116737E-01  0.51100000000E-03 0.  1.
</event>
<event>
 8    1  0.2929965E+004  0.1043930E+01  0.7957747E-01            NaN
         13   -1    0    0    0    0  0.00000000000E+00  0.00000000000E+00  0.74505805969E-08  0.10566000000E+00  0.10566000000E+00 0. -1.
     999900   -1    0    0    0    0 -0.00000000000E+00 -0.00000000000E+00 -0.74505805969E-08  0.93827000000E+00  0.93827000000E+00 0. -1.
     999902    2    1    2    0    0 -0.11657853519E-01 -0.48455984982E-02  0.41772337442E-02  0.10306320808E+01  0.10305462878E+01 0.  0.
     999903    2    3    3    0    0 -0.67107278746E-01 -0.83708620775E-01 -0.82023135053E-01  0.14118027287E+00  0.41152821415E-01 0.  0.
         14    1    1    2    0    0  0.11657853519E-01  0.48455984982E-02 -0.41772337442E-02  0.13297919207E-01  0.00000000000E+00 0.  1.
     999901    1    3    3    0    0  0.55449425227E-01  0.78863022277E-01  0.86200368797E-01  0.88945180793E+00  0.88000000000E+00 0.  1.
        -11    1    4    4    0    0 -0.35935464156E-01 -0.39877536797E-01 -0.15991315120E-01  0.56013916176E-01  0.51100000000E-03 0. -1.
         11    1    4    4    0    0 -0.31171814591E-01 -0.43831083978E-01 -0.66031819933E-01  0.85166356692E-01  0.51100000000E-03 0.  1.
</event>
<event>
 8    1  0.2929965E+004  0.1043930E+01  0.7957747E-01            NaN
         13   -1    0    0    0    0  0.00000000000E+00  0.00000000000E+00  0.74505805969E-08  0.10566000000E+00  0.10566000000E+00 0. -1.
     999900   -1    0    0    0    0 -0.00000000000E+00 -0.00000000000E+00 -0.74505805969E-08  0.93827000000E+00  0.93827000000E+00 0. -1.
     999902    2    1    2    0    0 -0.94909379139E-02 -0.22288530270E-02  0.96236860999E-02  0.10302310576E+01  0.10301399764E+01 0.  0.
     999903    2    3    3    0    0 -0.39799034687E-01 -0.12309159273E+00 -0.30646718034E-01  0.14054117455E+00  0.45575180262E-01 0.  0.
         14    1    1    2    0    0  0.94909379139E-02  0.22288530270E-02 -0.96236860999E-02  0.13698942384E-01  0.00000000000E+00 0.  1.
     999901    1    3    3    0    0  0.30308096773E-01  0.12086273970E+00  0.40270404134E-01  0.88968988306E+00  0.88000000000E+00 0. -1.
        -11    1    4    4    0    0 -0.21935453717E-01 -0.36066819421E-01  0.91456082101E-02  0.43195866277E-01  0.51100000000E-03 0.  1.
         11    1    4    4    0    0 -0.17863580970E-01 -0.87024773306E-01 -0.39792326244E-01  0.97345308274E-01  0.51100000000E-03 0. -1.
</event>
<event>
 8    1  0.2929965E+004  0.1043930E+01  0.7957747E-01            NaN
         13   -1    0    0    0    0  0.00000000000E+00  0.00000000000E+00  0.74505805969E-08  0.10566000000E+00  0.10566000000E+00 0.  1.
     999900   -1    0    0    0    0 -0.00000000000E+00 -0.00000000000E+00 -0.74505805969E-08  0.93827000000E+00  0.93827000000E+00 0.  1.
     999902    2    1    2    0    0 -0.17854384030E-01 -0.34630016094E-02  0.86423691106E-02  0.10237939142E+01  0.10235958757E+01 0.  0.
     999903    2    3    3    0    0  0.61887245100E-01 -0.89373174010E-01 -0.62881637674E-01  0.13314529170E+00  0.44226383602E-01 0.  0.
         14    1    1    2    0    0  0.17854384030E-01  0.34630016094E-02 -0.86423691106E-02  0.20136085843E-01  0.00000000000E+00 0.  1.
     999901    1    3    3    0    0 -0.79741629130E-01  0.85910172401E-01  0.71524006784E-01  0.89064862246E+00  0.88000000000E+00 0. -1.
        -11    1    4    4    0    0  0.55723638062E-01 -0.45886648396E-01 -0.29527744664E-01  0.77992673796E-01  0.51100000000E-03 0.  1.
         11    1    4    4    0    0  0.61636070382E-02 -0.43486525614E-01 -0.33353893010E-01  0.55152617904E-01  0.51100000000E-03 0. -1.
</event>
<event>
 8    1  0.2929965E+004  0.1043930E+01  0.7957747E-01            NaN
         13   -1    0    0    0    0  0.00000000000E+00  0.00000000000E+00  0.74505805969E-08  0.10566000000E+00  0.10566000000E+00 0. -1.
     999900   -1    0    0    0    0 -0.00000000000E+00 -0.00000000000E+00 -0.74505805969E-08  0.93827000000E+00  0.93827000000E+00 0. -1.
     999902    2    1    2    0    0 -0.32407176222E-02  0.13564958817E-01  0.65137735140E-02  0.10285371574E+01  0.10284219681E+01 0.  0.
     999903    2    3    3    0    0 -0.22387422715E-01  0.10183747021E+00  0.87910035455E-01  0.14017687909E+00  0.32393148416E-01 0.  0.
         14    1    1    2    0    0  0.32407176222E-02 -0.13564958817E-01 -0.65137735140E-02  0.15392842616E-01  0.00000000000E+00 0.  1.
     999901    1    3    3    0    0  0.19146705093E-01 -0.88272511393E-01 -0.81396261941E-01  0.88836027829E+00  0.88000000000E+00 0. -1.
        -11    1    4    4    0    0 -0.23885685144E-01  0.42163928505E-01  0.29929858231E-01  0.56959462397E-01  0.51100000000E-03 0. -1.
         11    1    4    4    0    0  0.14982624289E-02  0.59673541705E-01  0.57980177224E-01  0.83217416698E-01  0.51100000000E-03 0.  1.
</event>
<event>
 8    1  0.2929965E+004  0.1043930E+01  0.7957747E-01            NaN
         13   -1    0    0    0    0  0.00000000000E+00  0.00000000000E+00  0.74505805969E-08  0.10566000000E+00  0.10566000000E+00 0. -1.
     999900   -1    0    0    0    0 -0.00000000000E+00 -0.00000000000E+00 -0.74505805969E-08  0.93827000000E+00  0.93827000000E+00 0.  1.
     999902    2    1    2    0    0  0.21078587289E-02  0.12953523294E-02 -0.13760365115E-01  0.10299489895E+01  0.10298540927E+01 0.  0.
     999903    2    3    3    0    0 -0.62448698544E-01  0.98343088859E-01 -0.64835337475E-01  0.14079519795E+00  0.45259956964E-01 0.  0.
         14    1    1    2    0    0 -0.21078587289E-02 -0.12953523294E-02  0.13760365115E-01  0.13981010484E-01  0.00000000000E+00 0. -1.
     999901    1    3    3    0    0  0.64556557273E-01 -0.97047736529E-01  0.51074972361E-01  0.88915379156E+00  0.88000000000E+00 0. -1.
        -11    1    4    4    0    0 -0.57524260248E-01  0.53142389550E-01 -0.31499219575E-01  0.84413364102E-01  0.51100000000E-03 0.  1.
         11    1    4    4    0    0 -0.49244382964E-02  0.45200699308E-01 -0.33336117900E-01  0.56381833849E-01  0.51100000000E-03 0. -1.
</event>
<event>
 8    1  0.2929965E+004  0.1043930E+01  0.7957747E-01            NaN
         13   -1    0    0    0    0  0.00000000000E+00  0.00000000000E+00  0.74505805969E-08  0.10566000000E+00  0.10566000000E+00 0. -1.
     999900   -1    0    0    0    0 -0.00000000000E+00 -0.00000000000E+00 -0.74505805969E-08  0.93827000000E+00  0.93827000000E+00 0.  1.
     999902    2    1    2    0    0 -0.69150193063E-02 -0.10094227255E-01  0.59914520880E-02  0.10303061821E+01  0.10302161038E+01 0.  0.
     999903    2    3    3    0    0  0.74463579052E-01 -0.82199439941E-01 -0.71448617643E-01  0.14023955406E+00  0.47546346097E-01 0.  0.
         14    1    1    2    0    0  0.69150193063E-02  0.10094227255E-01 -0.59914520880E-02  0.13623817894E-01  0.00000000000E+00 0. -1.
     999901    1    3    3    0    0 -0.81378598359E-01  0.72105212686E-01  0.77440069731E-01  0.89006662805E+00  0.88000000000E+00 0. -1.
        -11    1    4    4    0    0  0.47794318241E-02 -0.19779135327E-01 -0.33671631400E-01  0.39345864395E-01  0.51100000000E-03 0. -1.
         11    1    4    4    0    0  0.69684147228E-01 -0.62420304614E-01 -0.37776986242E-01  0.10089368966E+00  0.51100000000E-03 0.  1.
</event>
<event>
 7    1  0.2929965E+004  0.1043930E+01  0.7957747E-01            NaN
         13   -1    0    0    0    0  0.00000000000E+00  0.00000000000E+00  0.74505805969E-08  0.10566000000E+00  0.10566000000E+00 0. -1.
     999900   -1    0    0    0    0 -0.00000000000E+00 -0.00000000000E+00 -0.74505805969E-08  0.93827000000E+00  0.93827000000E+00 0.  1.
     999902    2    1    2    0    0 -0.74968408700E-02  0.13240806499E-01 -0.30463669191E-02  0.10284122060E+01  0.10282951247E+01 0.  0.
         14    1    1    2    0    0  0.74968408700E-02 -0.13240806499E-01  0.30463669191E-02  0.15517794018E-01  0.00000000000E+00 0.  1.
     999901    1    3    3    0    0  0.11436159655E+00  0.50747530166E-02 -0.25123612532E-01  0.88776997234E+00  0.88000000000E+00 0. -1.
        -11    1    3    3    0    0 -0.30392862765E-01  0.32096897801E-01  0.40319637379E-02  0.44389805227E-01  0.51100000000E-03 0.  1.
         11    1    3    3    0    0 -0.91465574654E-01 -0.23930844319E-01  0.18045281875E-01  0.96252428414E-01  0.51100000000E-03 0. -1.
</event>
<event>
 8    1  0.2929965E+004  0.1043930E+01  0.7957747E-01            NaN
         13   -1    0    0    0    0  0.00000000000E+00  0.00000000000E+00  0.74505805969E-08  0.10566000000E+00  0.10566000000E+00 0. -1.
     999900   -1    0    0    0    0 -0.00000000000E+00 -0.00000000000E+00 -0.74505805969E-08  0.93827000000E+00  0.93827000000E+00 0. -1.
     999902    2    1    2    0    0  0.12428745597E-01 -0.27083802158E-02 -0.51422497375E-02  0.10302095127E+01  0.10301181428E+01 0.  0.
     999903    2    3    3    0    0 -0.12776915873E+00 -0.24669636324E-01 -0.16401363086E-01  0.13876993715E+00  0.45327054459E-01 0.  0.
         14    1    1    2    0    0 -0.12428745597E-01  0.27083802158E-02  0.51422497375E-02  0.13720487341E-01  0.00000000000E+00 0. -1.
     999901    1    3    3    0    0  0.14019790433E+00  0.21961256108E-01  0.11259113349E-01  0.89143957551E+00  0.88000000000E+00 0.  1.
        -11    1    4    4    0    0 -0.54992285331E-01 -0.21142802298E-01  0.12764043451E-01  0.60285582532E-01  0.51100000000E-03 0. -1.
         11    1    4    4    0    0 -0.72776873403E-01 -0.35268340256E-02 -0.29165406537E-01  0.78484354619E-01  0.51100000000E-03 0.  1.
</event>
<event>
 8    1  0.2929965E+004  0.1043930E+01  0.7957747E-01            NaN
         13   -1    0    0    0    0  0.00000000000E+00  0.00000000000E+00  0.74505805969E-08  0.10566000000E+00  0.10566000000E+00 0.  1.
     999900   -1    0    0    0    0 -0.00000000000E+00 -0.00000000000E+00 -0.74505805969E-08  0.93827000000E+00  0.93827000000E+00 0. -1.
     999902    2    1    2    0    0  0.71894037861E-03 -0.67271330547E-02 -0.12091485040E-01  0.10300744883E+01  0.10299812990E+01 0.  0.
     999903    2    3    3    0    0 -0.35815718026E-01  0.96550594852E-01  0.80857598127E-01  0.13842399487E+00  0.44927365344E-01 0.  0.
         14    1    1    2    0    0 -0.71894037861E-03  0.67271330547E-02  0.12091485040E-01  0.13855511715E-01  0.00000000000E+00 0.  1.
     999901    1    3    3    0    0  0.36534658405E-01 -0.10327772791E+00 -0.92949083167E-01  0.89165049342E+00  0.88000000000E+00 0.  1.
        -11    1    4    4    0    0 -0.54020812356E-02  0.74360561437E-01  0.50391611011E-01  0.89990283699E-01  0.51100000000E-03 0. -1.
         11    1    4    4    0    0 -0.30413636791E-01  0.22190033415E-01  0.30465987117E-01  0.48433711171E-01  0.51100000000E-03 0.  1.
</event>
<event>
 8    1  0.2929965E+004  0.1043930E+01  0.7957747E-01            NaN
         13   -1    0    0    0    0  0.00000000000E+00  0.00000000000E+00  0.74505805969E-08  0.10566000000E+00  0.10566000000E+00 0.  1.
     999900   -1    0    0    0    0 -0.00000000000E+00 -0.00000000000E+00 -0.74505805969E-08  0.93827000000E+00  0.93827000000E+00 0.  1.
     999902    2    1    2    0    0 -0.13464051934E-01  0.25665760855E-02  0.23419676075E-02  0.10300248636E+01  0.10299310010E+01 0.  0.
     999903    2    3    3    0    0 -0.11318305954E+00  0.63181162016E-01 -0.34756527648E-01  0.14154621617E+00  0.45000565528E-01 0.  0.
         14    1    1    2    0    0  0.13464051934E-01 -0.25665760855E-02 -0.23419676075E-02  0.13905136445E-01  0.00000000000E+00 0. -1.
     999901    1    3    3    0    0  0.99719007606E-01 -0.60614585930E-01  0.37098495255E-01  0.88847864738E+00  0.88000000000E+00 0.  1.
        -11    1    4    4    0    0 -0.84292327471E-01  0.26456739702E-01 -0.10716497311E-01  0.88995842497E-01  0.51100000000E-03 0. -1.
         11    1    4    4    0    0 -0.28890732070E-01  0.36724422313E-01 -0.24040030337E-01  0.52550373675E-01  0.51100000000E-03 0.  1.
</event>
<event>
 8    1  0.2929965E+004  0.1043930E+01  0.7957747E-01            NaN
         13   -1    0    0    0    0  0.00000000000E+00  0.00000000000E+00  0.74505805969E-08  0.10566000000E+00  0.10566000000E+00 0.  1.
     999900   -1    0    0    0    0 -0.00000000000E+00 -0.00000000000E+00 -0.74505805969E-08  0.93827000000E+00  0.93827000000E+00 0. -1.
     999902    2    1    2    0    0  0.18141131626E-02 -0.18221461133E-02  0.13587699559E-01  0.10301011605E+01  0.10300083320E+01 0.  0.
     999903    2    3    3    0    0  0.11339716748E-01  0.33445210286E-01 -0.12579250374E+00  0.13838295128E+00  0.45595130693E-01 0.  0.
         14    1    1    2    0    0 -0.18141131626E-02  0.18221461133E-02 -0.13587699559E-01  0.13828839515E-01  0.00000000000E+00 0. -1.
     999901    1    3    3    0    0 -0.95256035856E-02 -0.35267356399E-01  0.13938020329E+00  0.89171820920E+00  0.88000000000E+00 0.  1.
        -11    1    4    4    0    0  0.23439135426E-01  0.38927558143E-02 -0.72033197222E-01  0.75852417498E-01  0.51100000000E-03 0. -1.
         11    1    4    4    0    0 -0.12099418678E-01  0.29552454471E-01 -0.53759306514E-01  0.62530533786E-01  0.51100000000E-03 0.  1.
</event>
<event>
 8    1  0.2929965E+004  0.1043930E+01  0.7957747E-01            NaN
         13   -1    0    0    0    0  0.00000000000E+00  0.00000000000E+00  0.74505805969E-08  0.10566000000E+00  0.10566000000E+00 0. -1.
     999900   -1    0    0    0    0 -0.00000000000E+00 -0.00000000000E+00 -0.74505805969E-08  0.93827000000E+00  0.93827000000E+00 0. -1.
     999902    2    1    2    0    0 -0.67841341634E-02 -0.12222506516E-02 -0.11269701697E-01  0.10307192260E+01  0.10306345610E+01 0.  0.
     999903    2    3    3    0    0  0.10407847586E+00  0.19903504861E-01 -0.80121025529E-01  0.14084433557E+00  0.46789630135E-01 0.  0.
         14    1    1    2    0    0  0.67841341634E-02  0.12222506516E-02  0.11269701697E-01  0.13210773988E-01  0.00000000000E+00 0. -1.
     999901    1    3    3    0    0 -0.11086261002E+00 -0.21125755512E-01  0.68851323832E-01  0.88987489044E+00  0.88000000000E+00 0.  1.
        -11    1    4    4    0    0  0.68087392088E-01 -0.18058296296E-02 -0.27401540030E-01  0.73418386655E-01  0.51100000000E-03 0.  1.
         11    1    4    4    0    0  0.35991083768E-01  0.21709334490E-01 -0.52719485499E-01  0.67425948915E-01  0.51100000000E-03 0. -1.
</event>
<event>
 8    1  0.2929965E+004  0.1043930E+01  0.7957747E-01            NaN
         13   -1    0    0    0    0  0.00000000000E+00  0.00000000000E+00  0.74505805969E-08  0.10566000000E+00  0.10566000000E+00 0. -1.
     999900   -1    0    0    0    0 -0.00000000000E+00 -0.00000000000E+00 -0.74505805969E-08  0.93827000000E+00  0.93827000000E+00 0.  1.
     999902    2    1    2    0    0 -0.94101844395E-02  0.15206684622E-01 -0.33758367097E-02  0.10257313434E+01  0.10255698893E+01 0.  0.
     999903    2    3    3    0    0 -0.87040262289E-01 -0.25971548579E-01  0.91286824037E-01  0.13630282170E+00  0.44661464002E-01 0.  0.
         14    1    1    2    0    0  0.94101844395E-02 -0.15206684622E-01  0.33758367097E-02  0.18198656595E-01  0.00000000000E+00 0. -1.
     999901    1    3    3    0    0  0.77630077849E-01  0.41178233201E-01 -0.94662660747E-01  0.88942852170E+00  0.88000000000E+00 0.  1.
        -11    1    4    4    0    0 -0.11734698014E-01  0.12021211678E-01  0.13412221933E-01  0.21502592538E-01  0.51100000000E-03 0. -1.
         11    1    4    4    0    0 -0.75305564274E-01 -0.37992760257E-01  0.77874602104E-01  0.11480022917E+00  0.51100000000E-03 0.  1.
</event>
<event>
 7    1  0.2929965E+004  0.1043930E+01  0.7957747E-01            NaN
         13   -1    0    0    0    0  0.00000000000E+00  0.00000000000E+00  0.74505805969E-08  0.10566000000E+00  0.10566000000E+00 0. -1.
     999900   -1    0    0    0    0 -0.00000000000E+00 -0.00000000000E+00 -0.74505805969E-08  0.93827000000E+00  0.93827000000E+00 0.  1.
     999903    2    1    2    0    0  0.76408558114E-01 -0.68137903815E-01 -0.16629544207E-01  0.11213238727E+00  0.42615593918E-01 0.  0.
         14    1    1    2    0    0 -0.25897974226E-01 -0.35674556345E-01  0.22315830891E-02  0.44140219783E-01  0.00000000000E+00 0. -1.
     999901    1    1    2    0    0 -0.50510583888E-01  0.10381246016E+00  0.14397961118E-01  0.88765739295E+00  0.88000000000E+00 0. -1.
        -11    1    3    3    0    0  0.40754975646E-01 -0.34014312952E-01  0.12882444447E-01  0.54627465816E-01  0.51100000000E-03 0. -1.
         11    1    3    3    0    0  0.35653582468E-01 -0.34123590863E-01 -0.29511988654E-01  0.57504921454E-01  0.51100000000E-03 0.  1.
</event>
<event>
 8    1  0.2929965E+004  0.1043930E+01  0.7957747E-01            NaN
         13   -1    0    0    0    0  0.00000000000E+00  0.00000000000E+00  0.74505805969E-08  0.10566000000E+00  0.10566000000E+00 0. -1.
     999900   -1    0    0    0    0 -0.00000000000E+00 -0.00000000000E+00 -0.74505805969E-08  0.93827000000E+00  0.93827000000E+00 0.  1.
     999902    2    1    2    0    0  0.41132551075E-02  0.29313645345E-02  0.12849515753E-01  0.10301234139E+01  0.10300308859E+01 0.  0.
     999903    2    3    3    0    0 -0.10457258005E+00  0.81590080044E-01  0.11100860098E-02  0.13987759472E+00  0.44408822950E-01 0.  0.
         14    1    1    2    0    0 -0.41132551075E-02 -0.29313645345E-02 -0.12849515753E-01  0.13806586134E-01  0.00000000000E+00 0.  1.
     999901    1    3    3    0    0  0.10868583515E+00 -0.78658715510E-01  0.11739429743E-01  0.89024581914E+00  0.88000000000E+00 0. -1.
        -11    1    4    4    0    0 -0.95994016917E-01  0.52886186037E-01 -0.29609847650E-02  0.10963953899E+00  0.51100000000E-03 0. -1.
         11    1    4    4    0    0 -0.85785631287E-02  0.28703894008E-01  0.40710707747E-02  0.30238055738E-01  0.51100000000E-03 0.  1.
</event>
<event>
 8    1  0.2929965E+004  0.1043930E+01  0.7957747E-01            NaN
         13   -1    0    0    0    0  0.00000000000E+00  0.00000000000E+00  0.74505805969E-08  0.10566000000E+00  0.10566000000E+00 0.  1.
     999900   -1    0    0    0    0 -0.00000000000E+00 -0.00000000000E+00 -0.74505805969E-08  0.93827000000E+00  0.93827000000E+00 0.  1.
     999902    2    1    2    0    0 -0.13098744553E-01  0.51422235247E-02  0.20482826599E-02  0.10297097668E+01  0.10296115718E+01 0.  0.
     999903    2    3    3    0    0  0.10817184553E+00 -0.39249430200E-01  0.62273110820E-01  0.13824793086E+00  0.44641730689E-01 0.  0.
         14    1    1    2    0    0  0.13098744553E-01 -0.51422235247E-02 -0.20482826599E-02  0.14220233243E-01  0.00000000000E+00 0. -1.
     999901    1    3    3    0    0 -0.12127059008E+00  0.44391653725E-01 -0.60224828160E-01  0.89146183590E+00  0.88000000000E+00 0.  1.
        -11    1    4    4    0    0  0.84798804428E-01 -0.14234141668E-01  0.29649450286E-01  0.90954928645E-01  0.51100000000E-03 0. -1.
         11    1    4    4    0    0  0.23373041101E-01 -0.25015288532E-01  0.32623660534E-01  0.47293002212E-01  0.51100000000E-03 0.  1.
</event>
<event>
 8    1  0.2929965E+004  0.1043930E+01  0.7957747E-01            NaN
         13   -1    0    0    0    0  0.00000000000E+00  0.00000000000E+00  0.74505805969E-08  0.10566000000E+00  0.10566000000E+00 0.  1.
     999900   -1    0    0    0    0 -0.00000000000E+00 -0.00000000000E+00 -0.74505805969E-08  0.93827000000E+00  0.93827000000E+00 0.  1.
     999902    2    1    2    0    0 -0.14040280759E-01 -0.40558960589E-02  0.13945208268E-01  0.10237297869E+01  0.10235304724E+01 0.  0.
     999903    2    3    3    0    0  0.78652253609E-01 -0.80267196511E-01  0.59293199302E-01  0.13442865198E+00  0.43890536054E-01 0.  0.
         14    1    1    2    0    0  0.14040280759E-01  0.40558960589E-02 -0.13945208268E-01  0.20200213124E-01  0.00000000000E+00 0.  1.
     999901    1    3    3    0    0 -0.92692534368E-01  0.76211300452E-01 -0.45347991035E-01  0.88930113490E+00  0.88000000000E+00 0.  1.
        -11    1    4    4    0    0  0.41942343402E-01 -0.70926249962E-01  0.45384892951E-01  0.94073071242E-01  0.51100000000E-03 0. -1.
         11    1    4    4    0    0  0.36709910206E-01 -0.93409465488E-02  0.13908306351E-01  0.40355580733E-01  0.51100000000E-03 0.  1.
</event>
<event>
 8    1  0.2929965E+004  0.1043930E+01  0.7957747E-01            NaN
         13   -1    0    0    0    0  0.00000000000E+00  0.00000000000E+00  0.74505805969E-08  0.10566000000E+00  0.10566000000E+00 0. -1.
     999900   -1    0    0    0    0 -0.00000000000E+00 -0.00000000000E+00 -0.74505805969E-08  0.93827000000E+00  0.93827000000E+00 0.  1.
     999902    2    1    2    0    0 -0.53641230462E-02 -0.51476796737E-02  0.11664326358E-01  0.10300978298E+01  0.10300049563E+01 0.  0.
     999903    2    3    3    0    0  0.69036680051E-01 -0.10254750990E+00 -0.46765462738E-01  0.13968430417E+00  0.45195589914E-01 0.  0.
         14    1    1    2    0    0  0.53641230462E-02  0.51476796737E-02 -0.11664326358E-01  0.13832170164E-01  0.00000000000E+00 0.  1.
     999901    1    3    3    0    0 -0.74400803097E-01  0.97399830228E-01  0.58429789095E-01  0.89041352566E+00  0.88000000000E+00 0.  1.
        -11    1    4    4    0    0  0.40321378948E-01 -0.22003171781E-01 -0.12930688517E-01  0.47722290339E-01  0.51100000000E-03 0.  1.
         11    1    4    4    0    0  0.28715301103E-01 -0.80544338121E-01 -0.33834774220E-01  0.91962013833E-01  0.51100000000E-03 0. -1.
</event>
<event>
 8    1  0.2929965E+004  0.1043930E+01  0.7957747E-01            NaN
         13   -1    0    0    0    0  0.00000000000E+00  0.00000000000E+00  0.74505805969E-08  0.10566000000E+00  0.10566000000E+00 0. -1.
     999900   -1    0    0    0    0 -0.00000000000E+00 -0.00000000000E+00 -0.74505805969E-08  0.93827000000E+00  0.93827000000E+00 0. -1.
     999902    2    1    2    0    0 -0.45408143338E-02  0.38231883289E-02  0.12550831813E-01  0.10300462273E+01  0.10299526549E+01 0.  0.
     999903    2    3    3    0    0  0.68009530045E-01 -0.99274142244E-01 -0.52253942152E-01  0.13870326823E+00  0.45027443326E-01 0.  0.
         14    1    1    2    0    0  0.45408143338E-02 -0.38231883289E-02 -0.12550831813E-01  0.13883772650E-01  0.00000000000E+00 0.  1.
     999901    1    3    3    0    0 -0.72550344379E-01  0.10309733057E+00  0.64804773964E-01  0.89134295912E+00  0.88000000000E+00 0. -1.
        -11    1    4    4    0    0  0.33071154882E-02 -0.17664058448E-01  0.65097247235E-02  0.19120502365E-01  0.51100000000E-03 0.  1.
         11    1    4    4    0    0  0.64702414557E-01 -0.81610083796E-01 -0.58763666875E-01  0.11958276587E+00  0.51100000000E-03 0. -1.
</event>
<event>
 8    1  0.2929965E+004  0.1043930E+01  0.7957747E-01            NaN
         13   -1    0    0    0    0  0.00000000000E+00  0.00000000000E+00  0.74505805969E-08  0.10566000000E+00  0.10566000000E+00 0. -1.
     999900   -1    0    0    0    0 -0.00000000000E+00 -0.00000000000E+00 -0.74505805969E-08  0.93827000000E+00  0.93827000000E+00 0.  1.
     999902    2    1    2    0    0 -0.91766336756E-02  0.26878053432E-03 -0.62445777562E-02  0.10328269554E+01  0.10327672740E+01 0.  0.
     999903    2    3    3    0    0 -0.92800601531E-01 -0.99173025767E-01  0.59701446376E-02  0.14320296723E+00  0.44991182604E-01 0.  0.
         14    1    1    2    0    0  0.91766336756E-02 -0.26878053432E-03  0.62445777562E-02  0.11103044625E-01  0.00000000000E+00 0. -1.
     999901    1    3    3    0    0  0.83623967855E-01  0.99441806301E-01 -0.12214722394E-01  0.88962398815E+00  0.88000000000E+00 0.  1.
        -11    1    4    4    0    0 -0.40948918187E-01 -0.72530693915E-01  0.13638994168E-01  0.84402599151E-01  0.51100000000E-03 0. -1.
         11    1    4    4    0    0 -0.51851683344E-01 -0.26642331852E-01 -0.76688495303E-02  0.58800368079E-01  0.51100000000E-03 0.  1.
</event>
<event>
 8    1  0.2929965E+004  0.1043930E+01  0.7957747E-01            NaN
         13   -1    0    0    0    0  0.00000000000E+00  0.00000000000E+00  0.74505805969E-08  0.10566000000E+00  0.10566000000E+00 0.  1.
     999900   -1    0    0    0    0 -0.00000000000E+00 -0.00000000000E+00 -0.74505805969E-08  0.93827000000E+00  0.93827000000E+00 0.  1.
     999902    2    1    2    0    0 -0.11930300462E-01  0.50539521367E-02 -0.86670285847E-02  0.10283418030E+01  0.10282236488E+01 0.  0.
     999903    2    3    3    0    0  0.42875735626E-01 -0.11424474913E-01 -0.12375043301E+00  0.13900529181E+00  0.45160316098E-01 0.  0.
         14    1    1    2    0    0  0.11930300462E-01 -0.50539521367E-02  0.86670285847E-02  0.15588197003E-01  0.00000000000E+00 0.  1.
     999901    1    3    3    0    0 -0.54806036089E-01  0.16478427050E-01  0.11508340442E+00  0.88933651118E+00  0.88000000000E+00 0. -1.
        -11    1    4    4    0    0  0.26022456672E-01  0.16184243194E-01 -0.53331878893E-01  0.61511368106E-01  0.51100000000E-03 0. -1.
         11    1    4    4    0    0  0.16853278954E-01 -0.27608718107E-01 -0.70418554115E-01  0.77493923708E-01  0.51100000000E-03 0.  1.
</event>
<event>
 8    1  0.2929965E+004  0.1043930E+01  0.7957747E-01            NaN
         13   -1    0    0    0    0  0.00000000000E+00  0.00000000000E+00  0.74505805969E-08  0.10566000000E+00  0.10566000000E+00 0. -1.
     999900   -1    0    0    0    0 -0.00000000000E+00 -0.00000000000E+00 -0.74505805969E-08  0.93827000000E+00  0.93827000000E+00 0. -1.
     999902    2    1    2    0    0  0.16858776590E-02  0.38512837755E-02  0.13703978256E-01  0.10295956500E+01  0.10294958615E+01 0.  0.
     999903    2    3    3    0    0 -0.11829261965E+00  0.11230017830E-01 -0.55659606792E-01  0.13871934406E+00  0.45008970489E-01 0.  0.
         14    1    1    2    0    0 -0.16858776590E-02 -0.38512837755E-02 -0.13703978256E-01  0.14334350011E-01  0.00000000000E+00 0.  1.
     999901    1    3    3    0    0  0.11997849731E+00 -0.73787340540E-02  0.69363585048E-01  0.89087630593E+00  0.88000000000E+00 0.  1.
        -11    1    4    4    0    0 -0.57224813614E-01  0.25990159769E-01 -0.17631423883E-01  0.65278602368E-01  0.51100000000E-03 0. -1.
         11    1    4    4    0    0 -0.61067806036E-01 -0.14760141940E-01 -0.38028182909E-01  0.73440741693E-01  0.51100000000E-03 0.  1.
</event>
<event>
 8    1  0.2929965E+004  0.1043930E+01  0.7957747E-01            NaN
         13   -1    0    0    0    0  0.00000000000E+00  0.00000000000E+00  0.74505805969E-08  0.10566000000E+00  0.10566000000E+00 0.  1.
     999900   -1    0    0    0    0 -0.00000000000E+00 -0.00000000000E+00 -0.74505805969E-08  0.93827000000E+00  0.93827000000E+00 0.  1.
     999902    2    1    2    0    0  0.75812161715E-02  0.73870038353E-02 -0.84951927687E-02  0.10303575660E+01  0.10302681704E+01 0.  0.
     999903    2    3    3    0    0 -0.55280686330E-01 -0.10156566161E+00 -0.64278670275E-01  0.13966452210E+00  0.44753696857E-01 0.  0.
         14    1    1    2    0    0 -0.75812161715E-02 -0.73870038353E-02  0.84951927687E-02  0.13572433992E-01  0.00000000000E+00 0.  1.
     999901    1    3    3    0    0  0.62861902501E-01  0.10895266545E+00  0.55783477506E-01  0.89069304390E+00  0.88000000000E+00 0. -1.
        -11    1    4    4    0    0 -0.57544966850E-01 -0.71897543287E-01 -0.36842538528E-01  0.99188274038E-01  0.51100000000E-03 0.  1.
         11    1    4    4    0    0  0.22642805203E-02 -0.29668118326E-01 -0.27436131747E-01  0.40476248066E-01  0.51100000000E-03 0. -1.
</event>
<event>
 8    1  0.2929965E+004  0.1043930E+01  0.7957747E-01            NaN
         13   -1    0    0    0    0  0.00000000000E+00  0.00000000000E+00  0.74505805969E-08  0.10566000000E+00  0.10566000000E+00 0. -1.
     999900   -1    0    0    0    0 -0.00000000000E+00 -0.00000000000E+00 -0.74505805969E-08  0.93827000000E+00  0.93827000000E+00 0. -1.
     999902    2    1    2    0    0 -0.11445159356E-01 -0.60793286287E-02 -0.80612727079E-02  0.10286678236E+01  0.10285545962E+01 0.  0.
     999903    2    3    3    0    0 -0.61594676194E-01  0.34030322830E-01 -0.11265642499E+00  0.14015001063E+00  0.44705574373E-01 0.  0.
         14    1    1    2    0    0  0.11445159356E-01  0.60793286287E-02  0.80612727079E-02  0.15262176350E-01  0.00000000000E+00 0.  1.
     999901    1    3    3    0    0  0.50149516838E-01 -0.40109651459E-01  0.10459515228E+00  0.88851781302E+00  0.88000000000E+00 0.  1.
        -11    1    4    4    0    0 -0.30575412012E-02  0.20117743246E-01 -0.46291976926E-01  0.50569560017E-01  0.51100000000E-03 0. -1.
         11    1    4    4    0    0 -0.58537134993E-01  0.13912579584E-01 -0.66364448062E-01  0.89580450610E-01  0.51100000000E-03 0.  1.
</event>
<event>
 8    1  0.2929965E+004  0.1043930E+01  0.7957747E-01            NaN
         13   -1    0    0    0    0  0.00000000000E+00  0.00000000000E+00  0.74505805969E-08  0.10566000000E+00  0.10566000000E+00 0. -1.
     999900   -1    0    0    0    0 -0.00000000000E+00 -0.00000000000E+00 -0.74505805969E-08  0.93827000000E+00  0.93827000000E+00 0. -1.
     999902    2    1    2    0    0 -0.14534124201E-02 -0.90343489162E-02  0.10830875215E-01  0.10297511522E+01  0.10296535319E+01 0.  0.
     999903    2    3    3    0    0  0.21101637998E-01 -0.83739252847E-01 -0.99631170321E-01  0.13941895771E+00  0.45318142914E-01 0.  0.
         14    1    1    2    0    0  0.14534124201E-02  0.90343489162E-02 -0.10830875215E-01  0.14178847835E-01  0.00000000000E+00 0. -1.
     999901    1    3    3    0    0 -0.22555050418E-01  0.74704903931E-01  0.11046204554E+00  0.89033219445E+00  0.88000000000E+00 0.  1.
        -11    1    4    4    0    0  0.12881049670E-02 -0.13555704986E-01 -0.48432847877E-01  0.50313201314E-01  0.51100000000E-03 0.  1.
         11    1    4    4    0    0  0.19813533031E-01 -0.70183547862E-01 -0.51198322444E-01  0.89105756401E-01  0.51100000000E-03 0. -1.
</event>
<event>
 8    1  0.2929965E+004  0.1043930E+01  0.7957747E-01            NaN
         13   -1    0    0    0    0  0.00000000000E+00  0.00000000000E+00  0.74505805969E-08  0.10566000000E+00  0.10566000000E+00 0.  1.
     999900   -1    0    0    0    0 -0.00000000000E+00 -0.00000000000E+00 -0.74505805969E-08  0.93827000000E+00  0.93827000000E+00 0.  1.
     999902    2    1    2    0    0  0.95946040253E-02 -0.10498655975E-01 -0.94364610944E-02  0.10268617546E+01  0.10267198927E+01 0.  0.
     999903    2    3    3    0    0 -0.63990036281E-01  0.26251317005E-01 -0.11082428663E+00  0.13722994818E+00  0.42025941763E-01 0.  0.
         14    1    1    2    0    0 -0.95946040253E-02  0.10498655975E-01  0.94364610944E-02  0.17068245418E-01  0.00000000000E+00 0.  1.
     999901    1    3    3    0    0  0.73584640307E-01 -0.36749972979E-01  0.10138782554E+00  0.88963180641E+00  0.88000000000E+00 0. -1.
        -11    1    4    4    0    0 -0.32708479381E-01  0.21892957487E-01 -0.27220395601E-01  0.47857677217E-01  0.51100000000E-03 0.  1.
         11    1    4    4    0    0 -0.31281556900E-01  0.43583595174E-02 -0.83603891030E-01  0.89372270958E-01  0.51100000000E-03 0. -1.
</event>
<event>
 8    1  0.2929965E+004  0.1043930E+01  0.7957747E-01            NaN
         13   -1    0    0    0    0  0.00000000000E+00  0.00000000000E+00  0.74505805969E-08  0.10566000000E+00  0.10566000000E+00 0.  1.
     999900   -1    0    0    0    0 -0.00000000000E+00 -0.00000000000E+00 -0.74505805969E-08  0.93827000000E+00  0.93827000000E+00 0.  1.
     999902    2    1    2    0    0  0.34396560330E-02 -0.77373670172E-02 -0.95366092480E-02  0.10311767652E+01  0.10310978984E+01 0.  0.
     999903    2    3    3    0    0  0.26576518985E-01 -0.11066860036E+00 -0.79087816558E-01  0.14215059929E+00  0.31592082623E-01 0.  0.
         14    1    1    2    0    0 -0.34396560330E-02  0.77373670172E-02  0.95366092480E-02  0.12753234803E-01  0.00000000000E+00 0.  1.
     999901    1    3    3    0    0 -0.23136862952E-01  0.10293123334E+00  0.69551207310E-01  0.88902616590E+00  0.88000000000E+00 0. -1.
        -11    1    4    4    0    0 -0.57871321241E-02 -0.32981661717E-01 -0.28361059977E-01  0.43884983215E-01  0.51100000000E-03 0. -1.
         11    1    4    4    0    0  0.32363651109E-01 -0.77686938643E-01 -0.50726756582E-01  0.98265616077E-01  0.51100000000E-03 0.  1.
</event>
<event>
 8    1  0.2929965E+004  0.1043930E+01  0.7957747E-01            NaN
         13   -1    0    0    0    0  0.00000000000E+00  0.00000000000E+00  0.74505805969E-08  0.10566000000E+00  0.10566000000E+00 0. -1.
     999900   -1    0    0    0    0 -0.00000000000E+00 -0.00000000000E+00 -0.74505805969E-08  0.93827000000E+00  0.93827000000E+00 0. -1.
     999902    2    1    2    0    0  0.68818462252E-02 -0.44564289239E-02 -0.10567172549E-01  0.10305552214E+01  0.10304684273E+01 0.  0.
     999903    2    3    3    0    0 -0.75634670388E-01 -0.10245738090E+00 -0.39595862864E-01  0.14080479183E+00  0.45166788481E-01 0.  0.
         14    1    1    2    0    0 -0.68818462252E-02  0.44564289239E-02  0.10567172549E-01  0.13374778574E-01  0.00000000000E+00 0.  1.
     999901    1    3    3    0    0  0.82516516613E-01  0.98000951974E-01  0.29028690315E-01  0.88975042959E+00  0.88000000000E+00 0.  1.
        -11    1    4    4    0    0 -0.70811201852E-01 -0.61259017970E-01 -0.28087641687E-01  0.97755154989E-01  0.51100000000E-03 0. -1.
         11    1    4    4    0    0 -0.48234685362E-02 -0.41198362927E-01 -0.11508221177E-01  0.43049636842E-01  0.51100000000E-03 0.  1.
</event>
<event>
 8    1  0.2929965E+004  0.1043930E+01  0.7957747E-01            NaN
         13   -1    0    0    0    0  0.00000000000E+00  0.00000000000E+00  0.74505805969E-08  0.10566000000E+00  0.10566000000E+00 0.  1.
     999900   -1    0    0    0    0 -0.00000000000E+00 -0.00000000000E+00 -0.74505805969E-08  0.93827000000E+00  0.93827000000E+00 0.  1.
     999902    2    1    2    0    0  0.86212548854E-02  0.77172701655E-02  0.56399015717E-02  0.10310579068E+01  0.10309775537E+01 0.  0.
     999903    2    3    3    0    0  0.87854565154E-01 -0.52617320930E-01 -0.83086925685E-01  0.14100699237E+00  0.49925220045E-01 0.  0.
         14    1    1    2    0    0 -0.86212548854E-02 -0.77172701655E-02 -0.56399015717E-02  0.12872093239E-01  0.00000000000E+00 0. -1.
     999901    1    3    3    0    0 -0.79233310268E-01  0.60334591095E-01  0.88726827257E-01  0.89005091439E+00  0.88000000000E+00 0. -1.
        -11    1    4    4    0    0  0.58294965052E-01 -0.43277916582E-01 -0.82633899439E-01  0.10999956123E+00  0.51100000000E-03 0. -1.
         11    1    4    4    0    0  0.29559600102E-01 -0.93394043478E-02 -0.45302624652E-03  0.31007431134E-01  0.51100000000E-03 0.  1.
</event>
<event>
 8    1  0.2929965E+004  0.1043930E+01  0.7957747E-01            NaN
         13   -1    0    0    0    0  0.00000000000E+00  0.00000000000E+00  0.74505805969E-08  0.10566000000E+00  0.10566000000E+00 0. -1.
     999900   -1    0    0    0    0 -0.00000000000E+00 -0.00000000000E+00 -0.74505805969E-08  0.93827000000E+00  0.93827000000E+00 0.  1.
     999902    2    1    2    0    0 -0.47877136979E-02  0.10816408108E-01  0.95473450300E-03  0.10320628856E+01  0.10319946567E+01 0.  0.
     999903    2    3    3    0    0 -0.52268668113E-01 -0.78282079734E-01 -0.94784721696E-01  0.14113133655E+00  0.45539137195E-01 0.  0.
         14    1    1    2    0    0  0.47877136979E-02 -0.10816408108E-01 -0.95473450300E-03  0.11867114426E-01  0.00000000000E+00 0.  1.
     999901    1    3    3    0    0  0.47480954415E-01  0.89098487843E-01  0.95739456199E-01  0.89093154902E+00  0.88000000000E+00 0. -1.
        -11    1    4    4    0    0 -0.36525479569E-01 -0.47632481151E-01 -0.87171818718E-01  0.10584021456E+00  0.51100000000E-03 0. -1.
         11    1    4    4    0    0 -0.15743188544E-01 -0.30649598584E-01 -0.76129029785E-02  0.35291121994E-01  0.51100000000E-03 0.  1.
</event>
<event>
 8    1  0.2929965E+004  0.1043930E+01  0.7957747E-01            NaN
         13   -1    0    0    0    0  0.00000000000E+00  0.00000000000E+00  0.74505805969E-08  0.10566000000E+00  0.10566000000E+00 0.  1.
     999900   -1    0    0    0    0 -0.00000000000E+00 -0.00000000000E+00 -0.74505805969E-08  0.93827000000E+00  0.93827000000E+00 0.  1.
     999902    2    1    2    0    0 -0.44001339516E-02 -0.62178911157E-02  0.12129647690E-01  0.10296068823E+01  0.10295072512E+01 0.  0.
     999903    2    3    3    0    0  0.42918605448E-01  0.12382142503E+00  0.15860550443E-01  0.13878523542E+00  0.42848950059E-01 0.  0.
         14    1    1    2    0    0  0.44001339516E-02  0.62178911157E-02 -0.12129647690E-01  0.14323117740E-01  0.00000000000E+00 0. -1.
     999901    1    3    3    0    0 -0.47318739399E-01 -0.13003931614E+00 -0.37309027533E-02  0.89082164684E+00  0.88000000000E+00 0. -1.
        -11    1    4    4    0    0  0.44523443369E-01  0.11036967518E+00  0.14801351290E-02  0.11902207413E+00  0.51100000000E-03 0.  1.
         11    1    4    4    0    0 -0.16048379211E-02  0.13451749849E-01  0.14380415314E-01  0.19763161295E-01  0.51100000000E-03 0. -1.
</event>
<event>
 8    1  0.2929965E+004  0.1043930E+01  0.7957747E-01            NaN
         13   -1    0    0    0    0  0.00000000000E+00  0.00000000000E+00  0.74505805969E-08  0.10566000000E+00  0.10566000000E+00 0.  1.
     999900   -1    0    0    0    0 -0.00000000000E+00 -0.00000000000E+00 -0.74505805969E-08  0.93827000000E+00  0.93827000000E+00 0. -1.
     999902    2    1    2    0    0  0.45499467884E-02 -0.11470853284E-01 -0.52442466411E-02  0.10305216215E+01  0.10304343879E+01 0.  0.
     999903    2    3    3    0    0 -0.11964137046E+00 -0.40888308833E-01  0.40948038145E-01  0.14011576060E+00  0.44382127223E-01 0.  0.
         14    1    1    2    0    0 -0.45499467884E-02  0.11470853284E-01  0.52442466411E-02  0.13408378488E-01  0.00000000000E+00 0.  1.
     999901    1    3    3    0    0  0.12419131725E+00  0.29417455548E-01 -0.46192284786E-01  0.89040586091E+00  0.88000000000E+00 0. -1.
        -11    1    4    4    0    0 -0.79912603381E-01 -0.15596099723E-01  0.44668645358E-01  0.92869863276E-01  0.51100000000E-03 0.  1.
         11    1    4    4    0    0 -0.39728767077E-01 -0.25292209109E-01 -0.37206072136E-02  0.47245897326E-01  0.51100000000E-03 0. -1.
</event>
<event>
 8    1  0.2929965E+004  0.1043930E+01  0.7957747E-01            NaN
         13   -1    0    0    0    0  0.00000000000E+00  0.00000000000E+00  0.74505805969E-08  0.10566000000E+00  0.10566000000E+00 0.  1.
     999900   -1    0    0    0    0 -0.00000000000E+00 -0.00000000000E+00 -0.74505805969E-08  0.93827000000E+00  0.93827000000E+00 0. -1.
     999902    2    1    2    0    0 -0.84595475850E-03 -0.54921594211E-02 -0.11960254501E-01  0.10307418560E+01  0.10306574827E+01 0.  0.
     999903    2    3    3    0    0  0.95930562281E-01 -0.41939890863E-01  0.81265584534E-01  0.13979562392E+00  0.44464525339E-01 0.  0.
         14    1    1    2    0    0  0.84595475850E-03  0.54921594211E-02  0.11960254501E-01  0.13188144005E-01  0.00000000000E+00 0.  1.
     999901    1    3    3    0    0 -0.96776517040E-01  0.36447731442E-01 -0.93225839035E-01  0.89094623207E+00  0.88000000000E+00 0.  1.
        -11    1    4    4    0    0  0.42214190868E-01 -0.36926624967E-01  0.23672210032E-01  0.60878963452E-01  0.51100000000E-03 0.  1.
         11    1    4    4    0    0  0.53716371413E-01 -0.50132658955E-02  0.57593374501E-01  0.78916660473E-01  0.51100000000E-03 0. -1.
</event>
<event>
 8    1  0.2929965E+004  0.1043930E+01  0.7957747E-01            NaN
         13   -1    0    0    0    0  0.00000000000E+00  0.00000000000E+00  0.74505805969E-08  0.10566000000E+00  0.10566000000E+00 0.  1.
     999900   -1    0    0    0    0 -0.00000000000E+00 -0.00000000000E+00 -0.74505805969E-08  0.93827000000E+00  0.93827000000E+00 0. -1.
     999902    2    1    2    0    0 -0.18670490816E-03 -0.12069461082E-01 -0.77297041705E-02  0.10295962958E+01  0.10294965164E+01 0.  0.
     999903    2    3    3    0    0 -0.49567449558E-01 -0.36774111988E-01  0.11703429702E+00  0.13908249259E+00  0.42867769901E-01 0.  0.
         14    1    1    2    0    0  0.18670490816E-03  0.12069461082E-01  0.77297041705E-02  0.14333704200E-01  0.00000000000E+00 0.  1.
     999901    1    3    3    0    0  0.49380744649E-01  0.24704650905E-01 -0.12476400119E+00  0.89051380321E+00  0.88000000000E+00 0. -1.
        -11    1    4    4    0    0 -0.39801817879E-01 -0.42437753243E-01  0.71581657871E-01  0.92246097323E-01  0.51100000000E-03 0.  1.
         11    1    4    4    0    0 -0.97656316787E-02  0.56636412558E-02  0.45452639153E-01  0.46836395264E-01  0.51100000000E-03 0. -1.
</event>
<event>
 8    1  0.2929965E+004  0.1043930E+01  0.7957747E-01            NaN
         13   -1    0    0    0    0  0.00000000000E+00  0.00000000000E+00  0.74505805969E-08  0.10566000000E+00  0.10566000000E+00 0.  1.
     999900   -1    0    0    0    0 -0.00000000000E+00 -0.00000000000E+00 -0.74505805969E-08  0.93827000000E+00  0.93827000000E+00 0.  1.
     999902    2    1    2    0    0 -0.12751904376E-01 -0.20823418676E-02  0.45262739176E-02  0.10302393328E+01  0.10301483624E+01 0.  0.
     999903    2    3    3    0    0  0.11072269889E+00 -0.75806067787E-02 -0.71731647215E-01  0.13833604258E+00  0.40920041719E-01 0.  0.
         14    1    1    2    0    0  0.12751904376E-01  0.20823418676E-02 -0.45262739176E-02  0.13690667203E-01  0.00000000000E+00 0. -1.
     999901    1    3    3    0    0 -0.12347460327E+00  0.54982649111E-02  0.76257921132E-01  0.89190329022E+00  0.88000000000E+00 0. -1.
        -11    1    4    4    0    0  0.62484625684E-01  0.15455867228E-01 -0.33115139330E-01  0.72388437284E-01  0.51100000000E-03 0.  1.
         11    1    4    4    0    0  0.48238073210E-01 -0.23036474006E-01 -0.38616507884E-01  0.65947605293E-01  0.51100000000E-03 0. -1.
</event>
<event>
 8    1  0.2929965E+004  0.1043930E+01  0.7957747E-01            NaN
         13   -1    0    0    0    0  0.00000000000E+00  0.00000000000E+00  0.74505805969E-08  0.10566000000E+00  0.10566000000E+00 0. -1.
     999900   -1    0    0    0    0 -0.00000000000E+00 -0.00000000000E+00 -0.74505805969E-08  0.93827000000E+00  0.93827000000E+00 0.  1.
     999902    2    1    2    0    0 -0.63831544315E-03 -0.92582549063E-02 -0.10156399734E-01  0.10301722681E+01  0.10300803982E+01 0.  0.
     999903    2    3    3    0    0 -0.10470121252E+00 -0.79355236334E-01 -0.24620224792E-01  0.14115490296E+00  0.45375695293E-01 0.  0.
         14    1    1    2    0    0  0.63831544315E-03  0.92582549063E-02  0.10156399734E-01  0.13757731865E-01  0.00000000000E+00 0. -1.
     999901    1    3    3    0    0  0.10406289708E+00  0.70096981428E-01  0.14463825058E-01  0.88901736518E+00  0.88000000000E+00 0.  1.
        -11    1    4    4    0    0 -0.60819672541E-01 -0.17773227036E-01 -0.11929889476E-01  0.64478706184E-01  0.51100000000E-03 0.  1.
         11    1    4    4    0    0 -0.43881539978E-01 -0.61582009298E-01 -0.12690335315E-01  0.76676196772E-01  0.51100000000E-03 0. -1.
</event>
<event>
 8    1  0.2929965E+004  0.1043930E+01  0.7957747E-01            NaN
         13   -1    0    0    0    0  0.00000000000E+00  0.00000000000E+00  0.74505805969E-08  0.10566000000E+00  0.10566000000E+00 0.  1.
     999900   -1    0    0    0    0 -0.00000000000E+00 -0.00000000000E+00 -0.74505805969E-08  0.93827000000E+00  0.93827000000E+00 0.  1.
     999902    2    1    2    0    0  0.14967976119E-02 -0.11413897469E-01  0.48100032860E-02  0.10314538792E+01  0.10313784230E+01 0.  0.
     999903    2    3    3    0    0 -0.22497013657E-01  0.56380372793E-01 -0.11822212757E+00  0.13998953820E+00  0.43997014642E-01 0.  0.
         14    1    1    2    0    0 -0.14967976119E-02  0.11413897469E-01 -0.48100032860E-02  0.12476120797E-01  0.00000000000E+00 0. -1.
     999901    1    3    3    0    0  0.23993811269E-01 -0.67794270262E-01  0.12303213086E+00  0.89146434100E+00  0.88000000000E+00 0. -1.
        -11    1    4    4    0    0 -0.29163201256E-01  0.16561563945E-01 -0.42157255173E-01  0.53872748143E-01  0.51100000000E-03 0.  1.
         11    1    4    4    0    0  0.66661875987E-02  0.39818808848E-01 -0.76064872400E-01  0.86116790055E-01  0.51100000000E-03 0. -1.
</event>
<event>
 8    1  0.2929965E+004  0.1043930E+01  0.7957747E-01            NaN
         13   -1    0    0    0    0  0.00000000000E+00  0.00000000000E+00  0.74505805969E-08  0.10566000000E+00  0.10566000000E+00 0.  1.
     999900   -1    0    0    0    0 -0.00000000000E+00 -0.00000000000E+00 -0.74505805969E-08  0.93827000000E+00  0.93827000000E+00 0.  1.
     999902    2    1    2    0    0  0.14683391767E-02 -0.35041553454E-02 -0.12496595127E-01  0.10308686060E+01  0.10307858569E+01 0.  0.
     999903    2    3    3    0    0  0.51513027935E-01  0.79095283060E-01 -0.95914633130E-01  0.14166350748E+00  0.44263717113E-01 0.  0.
         14    1    1    2    0    0 -0.14683391767E-02  0.35041553454E-02  0.12496595127E-01  0.13061394044E-01  0.00000000000E+00 0.  1.
     999901    1    3    3    0    0 -0.50044688759E-01 -0.82599438405E-01  0.83418038003E-01  0.88920509848E+00  0.88000000000E+00 0. -1.
        -11    1    4    4    0    0  0.25336715670E-01  0.46966543243E-01 -0.82206341732E-01  0.98009943817E-01  0.51100000000E-03 0. -1.
         11    1    4    4    0    0  0.26176312266E-01  0.32128739817E-01 -0.13708291397E-01  0.43653563659E-01  0.51100000000E-03 0.  1.
</event>
<event>
 7    1  0.2929965E+004  0.1043930E+01  0.7957747E-01            NaN
         13   -1    0    0    0    0  0.00000000000E+00  0.00000000000E+00  0.74505805969E-08  0.10566000000E+00  0.10566000000E+00 0.  1.
     999900   -1    0    0    0    0 -0.00000000000E+00 -0.00000000000E+00 -0.74505805969E-08  0.93827000000E+00  0.93827000000E+00 0.  1.
     999903    2    1    2    0    0  0.95350500272E-01 -0.15541077870E-01  0.12458623627E-01  0.10734031069E+00  0.45094145879E-01 0.  0.
         14    1    1    2    0    0 -0.33073060474E-01  0.36568649963E-01  0.20794875129E-01  0.53511870840E-01  0.00000000000E+00 0. -1.
     999901    1    1    2    0    0 -0.62277439798E-01 -0.21027572093E-01 -0.33253498756E-01  0.88307781847E+00  0.88000000000E+00 0.  1.
        -11    1    3    3    0    0  0.34026102713E-01 -0.44203322996E-02 -0.17122050824E-01  0.38350237925E-01  0.51100000000E-03 0. -1.
         11    1    3    3    0    0  0.61324397559E-01 -0.11120745570E-01  0.29580674451E-01  0.68990072763E-01  0.51100000000E-03 0.  1.
</event>
<event>
 8    1  0.2929965E+004  0.1043930E+01  0.7957747E-01            NaN
         13   -1    0    0    0    0  0.00000000000E+00  0.00000000000E+00  0.74505805969E-08  0.10566000000E+00  0.10566000000E+00 0. -1.
     999900   -1    0    0    0    0 -0.00000000000E+00 -0.00000000000E+00 -0.74505805969E-08  0.93827000000E+00  0.93827000000E+00 0.  1.
     999902    2    1    2    0    0  0.15237457666E-01  0.53500264631E-02  0.46156758963E-02  0.10271339480E+01  0.10269966114E+01 0.  0.
     999903    2    3    3    0    0  0.11423345470E+00 -0.29610283415E-02 -0.64867715514E-01  0.13882250331E+00  0.44786348906E-01 0.  0.
         14    1    1    2    0    0 -0.15237457666E-01 -0.53500264631E-02 -0.46156758963E-02  0.16796052014E-01  0.00000000000E+00 0.  1.
     999901    1    3    3    0    0 -0.98995997030E-01  0.83110548046E-02  0.69483391411E-01  0.88831144468E+00  0.88000000000E+00 0. -1.
        -11    1    4    4    0    0  0.19672626656E-01 -0.17032616324E-01 -0.65577454550E-02  0.26840033622E-01  0.51100000000E-03 0.  1.
         11    1    4    4    0    0  0.94560828041E-01  0.14071587982E-01 -0.58309970059E-01  0.11198246969E+00  0.51100000000E-03 0. -1.
</event>
<event>
 7    1  0.2929965E+004  0.1043930E+01  0.7957747E-01            NaN
         13   -1    0    0    0    0  0.00000000000E+00  0.00000000000E+00  0.74505805969E-08  0.10566000000E+00  0.10566000000E+00 0. -1.
     999900   -1    0    0    0    0 -0.00000000000E+00 -0.00000000000E+00 -0.74505805969E-08  0.93827000000E+00  0.93827000000E+00 0.  1.
     999903    2    1    2    0    0 -0.28474870935E-01  0.90109165140E-01  0.23281399087E-01  0.10531389943E+00  0.40230758789E-01 0.  0.
         14    1    1    2    0    0 -0.23430493864E-01  0.27650022328E-01 -0.33273343414E-01  0.49199869506E-01  0.00000000000E+00 0. -1.
     999901    1    1    2    0    0  0.51905364799E-01 -0.11775918747E+00  0.99919443271E-02  0.88941623106E+00  0.88000000000E+00 0.  1.
        -11    1    3    3    0    0 -0.36951338992E-01  0.67972552778E-01  0.96584701411E-02  0.77969330836E-01  0.51100000000E-03 0.  1.
         11    1    3    3    0    0  0.84764680565E-02  0.22136612362E-01  0.13622928946E-01  0.27344568595E-01  0.51100000000E-03 0. -1.
</event>
<event>
 8    1  0.2929965E+004  0.1043930E+01  0.7957747E-01            NaN
         13   -1    0    0    0    0  0.00000000000E+00  0.00000000000E+00  0.74505805969E-08  0.10566000000E+00  0.10566000000E+00 0. -1.
     999900   -1    0    0    0    0 -0.00000000000E+00 -0.00000000000E+00 -0.74505805969E-08  0.93827000000E+00  0.93827000000E+00 0. -1.
     999902    2    1    2    0    0  0.10102261779E-01  0.78096675631E-02  0.61065728036E-02  0.10297759606E+01  0.10296786839E+01 0.  0.
     999903    2    3    3    0    0 -0.46640311579E-01  0.12087919332E+00  0.28006144288E-01  0.14045935300E+00  0.46447687610E-01 0.  0.
         14    1    1    2    0    0 -0.10102261779E-01 -0.78096675631E-02 -0.61065728036E-02  0.14154039420E-01  0.00000000000E+00 0. -1.
     999901    1    3    3    0    0  0.56742573358E-01 -0.11306952576E+00 -0.21899571484E-01  0.88931660758E+00  0.88000000000E+00 0. -1.
        -11    1    4    4    0    0 -0.39043111606E-01  0.38996995546E-01  0.15133299569E-01  0.57222444044E-01  0.51100000000E-03 0.  1.
         11    1    4    4    0    0 -0.75971999732E-02  0.81882197778E-01  0.12872844719E-01  0.83236908956E-01  0.51100000000E-03 0. -1.
</event>
<event>
 8    1  0.2929965E+004  0.1043930E+01  0.7957747E-01            NaN
         13   -1    0    0    0    0  0.00000000000E+00  0.00000000000E+00  0.74505805969E-08  0.10566000000E+00  0.10566000000E+00 0.  1.
     999900   -1    0    0    0    0 -0.00000000000E+00 -0.00000000000E+00 -0.74505805969E-08  0.93827000000E+00  0.93827000000E+00 0.  1.
     999902    2    1    2    0    0  0.36298342931E-02  0.52733357760E-02 -0.13022730604E-01  0.10294187878E+01  0.10293165040E+01 0.  0.
     999903    2    3    3    0    0 -0.57155534451E-01 -0.42254427835E-01  0.10731563100E+00  0.13788355538E+00  0.49427101846E-01 0.  0.
         14    1    1    2    0    0 -0.36298342931E-02 -0.52733357760E-02  0.13022730604E-01  0.14511212203E-01  0.00000000000E+00 0.  1.
     999901    1    3    3    0    0  0.60785368744E-01  0.47527763611E-01 -0.12033836161E+00  0.89153523242E+00  0.88000000000E+00 0.  1.
        -11    1    4    4    0    0  0.27661056691E-02 -0.14011432570E-01  0.43936815100E-01  0.46202558646E-01  0.51100000000E-03 0. -1.
         11    1    4    4    0    0 -0.59921640120E-01 -0.28242995265E-01  0.63378815902E-01  0.91680996734E-01  0.51100000000E-03 0.  1.
</event>
<event>
 8    1  0.2929965E+004  0.1043930E+01  0.7957747E-01            NaN
         13   -1    0    0    0    0  0.00000000000E+00  0.00000000000E+00  0.74505805969E-08  0.10566000000E+00  0.10566000000E+00 0.  1.
     999900   -1    0    0    0    0 -0.00000000000E+00 -0.00000000000E+00 -0.74505805969E-08  0.93827000000E+00  0.93827000000E+00 0. -1.
     999902    2    1    2    0    0 -0.56938266291E-02 -0.94847379489E-02  0.84152817420E-02  0.10300304719E+01  0.10299366855E+01 0.  0.
     999903    2    3    3    0    0 -0.64532324525E-01 -0.54086400941E-01  0.10723778217E+00  0.14142641844E+00  0.37572998692E-01 0.  0.
         14    1    1    2    0    0  0.56938266291E-02  0.94847379489E-02 -0.84152817420E-02  0.13899528137E-01  0.00000000000E+00 0. -1.
     999901    1    3    3    0    0  0.58838497896E-01  0.44601662992E-01 -0.98822500431E-01  0.88860405343E+00  0.88000000000E+00 0. -1.
        -11    1    4    4    0    0 -0.83962253329E-02 -0.12462653474E-01  0.46380298065E-01  0.48756614947E-01  0.51100000000E-03 0. -1.
         11    1    4    4    0    0 -0.56136099192E-01 -0.41623747467E-01  0.60857484108E-01  0.92669803488E-01  0.51100000000E-03 0.  1.
</event>
<event>
 8    1  0.2929965E+004  0.1043930E+01  0.7957747E-01            NaN
         13   -1    0    0    0    0  0.00000000000E+00  0.00000000000E+00  0.74505805969E-08  0.10566000000E+00  0.10566000000E+00 0. -1.
     999900   -1    0    0    0    0 -0.00000000000E+00 -0.00000000000E+00 -0.74505805969E-08  0.93827000000E+00  0.93827000000E+00 0.  1.
     999902    2    1    2    0    0  0.76970625877E-02  0.11459215750E-01 -0.51223572437E-02  0.10292059740E+01  0.10291006462E+01 0.  0.
     999903    2    3    3    0    0  0.11454214852E+00  0.71556341766E-01 -0.93963588457E-02  0.14069834655E+00  0.38308214884E-01 0.  0.
         14    1    1    2    0    0 -0.76970625877E-02 -0.11459215750E-01  0.51223572437E-02  0.14724026006E-01  0.00000000000E+00 0. -1.
     999901    1    3    3    0    0 -0.10684508593E+00 -0.60097126016E-01  0.42740016020E-02  0.88850762745E+00  0.88000000000E+00 0. -1.
        -11    1    4    4    0    0  0.65723367050E-01  0.46598015159E-01 -0.23794749584E-01  0.84008256868E-01  0.51100000000E-03 0. -1.
         11    1    4    4    0    0  0.48818781467E-01  0.24958326607E-01  0.14398390739E-01  0.56690089679E-01  0.51100000000E-03 0.  1.
</event>
<event>
 8    1  0.2929965E+004  0.1043930E+01  0.7957747E-01            NaN
         13   -1    0    0    0    0  0.00000000000E+00  0.00000000000E+00  0.74505805969E-08  0.10566000000E+00  0.10566000000E+00 0.  1.
     999900   -1    0    0    0    0 -0.00000000000E+00 -0.00000000000E+00 -0.74505805969E-08  0.93827000000E+00  0.93827000000E+00 0.  1.
     999902    2    1    2    0    0  0.11707047365E-01  0.68330459787E-03 -0.75720495490E-02  0.10299708525E+01  0.10298762544E+01 0.  0.
     999903    2    3    3    0    0 -0.24742678611E-01 -0.67341278916E-01 -0.11209893441E+00  0.14043063640E+00  0.44805630812E-01 0.  0.
         14    1    1    2    0    0 -0.11707047365E-01 -0.68330459787E-03  0.75720495490E-02  0.13959147451E-01  0.00000000000E+00 0. -1.
     999901    1    3    3    0    0  0.36449725976E-01  0.68024583514E-01  0.10452688486E+00  0.88954021615E+00  0.88000000000E+00 0. -1.
        -11    1    4    4    0    0 -0.19802527927E-01 -0.52687069081E-01 -0.46438298877E-01  0.72971529271E-01  0.51100000000E-03 0. -1.
         11    1    4    4    0    0 -0.49401506842E-02 -0.14654209836E-01 -0.65660635536E-01  0.67459107130E-01  0.51100000000E-03 0.  1.
</event>
<event>
 8    1  0.2929965E+004  0.1043930E+01  0.7957747E-01            NaN
         13   -1    0    0    0    0  0.00000000000E+00  0.00000000000E+00  0.74505805969E-08  0.10566000000E+00  0.10566000000E+00 0.  1.
     999900   -1    0    0    0    0 -0.00000000000E+00 -0.00000000000E+00 -0.74505805969E-08  0.93827000000E+00  0.93827000000E+00 0.  1.
     999902    2    1    2    0    0 -0.14358449997E-01  0.21257690347E-02 -0.12538638430E-03  0.10294145013E+01  0.10293121566E+01 0.  0.
     999903    2    3    3    0    0  0.76663785040E-01 -0.99382368607E-01  0.36212516324E-01  0.13817413393E+00  0.45017261391E-01 0.  0.
         14    1    1    2    0    0  0.14358449997E-01 -0.21257690347E-02  0.12538638430E-03  0.14515498684E-01  0.00000000000E+00 0. -1.
     999901    1    3    3    0    0 -0.91022235037E-01  0.10150813764E+00 -0.36337902708E-01  0.89124036738E+00  0.88000000000E+00 0. -1.
        -11    1    4    4    0    0  0.46849624034E-01 -0.81971190327E-01  0.10246107093E-01  0.94970559371E-01  0.51100000000E-03 0. -1.
         11    1    4    4    0    0  0.29814161006E-01 -0.17411178280E-01  0.25966409231E-01  0.43203574562E-01  0.51100000000E-03 0.  1.
</event>
<event>
 8    1  0.2929965E+004  0.1043930E+01  0.7957747E-01            NaN
         13   -1    0    0    0    0  0.00000000000E+00  0.00000000000E+00  0.74505805969E-08  0.10566000000E+00  0.10566000000E+00 0.  1.
     999900   -1    0    0    0    0 -0.00000000000E+00 -0.00000000000E+00 -0.74505805969E-08  0.93827000000E+00  0.93827000000E+00 0.  1.
     999902    2    1    2    0    0  0.12524772991E-01  0.47474645528E-02  0.34056015577E-02  0.10301094906E+01  0.10300167747E+01 0.  0.
     999903    2    3    3    0    0 -0.41116206201E-01 -0.15094960406E-01 -0.12399974673E+00  0.13909703319E+00  0.45317184524E-01 0.  0.
         14    1    1    2    0    0 -0.12524772991E-01 -0.47474645528E-02 -0.34056015577E-02  0.13820509401E-01  0.00000000000E+00 0.  1.
     999901    1    3    3    0    0  0.53640979191E-01  0.19842424959E-01  0.12740534828E+00  0.89101245740E+00  0.88000000000E+00 0. -1.
        -11    1    4    4    0    0 -0.13212885180E-01 -0.19621825640E-01 -0.97558065064E-01  0.10038642117E+00  0.51100000000E-03 0.  1.
         11    1    4    4    0    0 -0.27903321020E-01  0.45268652339E-02 -0.26441681664E-01  0.38710612021E-01  0.51100000000E-03 0. -1.
</event>
<event>
 8    1  0.2929965E+004  0.1043930E+01  0.7957747E-01            NaN
         13   -1    0    0    0    0  0.00000000000E+00  0.00000000000E+00  0.74505805969E-08  0.10566000000E+00  0.10566000000E+00 0.  1.
     999900   -1    0    0    0    0 -0.00000000000E+00 -0.00000000000E+00 -0.74505805969E-08  0.93827000000E+00  0.93827000000E+00 0.  1.
     999902    2    1    2    0    0  0.10444002708E-01 -0.81856105651E-02  0.86580035097E-03  0.10306322174E+01  0.10305464261E+01 0.  0.
     999903    2    3    3    0    0 -0.89941259384E-01  0.69059767490E-01  0.67624184624E-01  0.13906016130E+00  0.43657948756E-01 0.  0.
         14    1    1    2    0    0 -0.10444002708E-01  0.81856105651E-02 -0.86580035097E-03  0.13297782640E-01  0.00000000000E+00 0.  1.
     999901    1    3    3    0    0  0.10038526209E+00 -0.77245378055E-01 -0.66758384273E-01  0.89157205606E+00  0.88000000000E+00 0.  1.
        -11    1    4    4    0    0 -0.47326948283E-01  0.18931204718E-01  0.48933291449E-01  0.70660870918E-01  0.51100000000E-03 0.  1.
         11    1    4    4    0    0 -0.42614311100E-01  0.50128562771E-01  0.18690893175E-01  0.68399290382E-01  0.51100000000E-03 0. -1.
</event>
<event>
 8    1  0.2929965E+004  0.1043930E+01  0.7957747E-01            NaN
         13   -1    0    0    0    0  0.00000000000E+00  0.00000000000E+00  0.74505805969E-08  0.10566000000E+00  0.10566000000E+00 0. -1.
     999900   -1    0    0    0    0 -0.00000000000E+00 -0.00000000000E+00 -0.74505805969E-08  0.93827000000E+00  0.93827000000E+00 0. -1.
     999902    2    1    2    0    0 -0.93313242563E-02 -0.10565181615E-01 -0.22340398910E-03  0.10298322490E+01  0.10297357498E+01 0.  0.
     999903    2    3    3    0    0  0.76168866197E-01 -0.12205923247E-01  0.10669543939E+00  0.13924558071E+00  0.45329176257E-01 0.  0.
         14    1    1    2    0    0  0.93313242563E-02  0.10565181615E-01  0.22340398910E-03  0.14097751036E-01  0.00000000000E+00 0.  1.
     999901    1    3    3    0    0 -0.85500190453E-01  0.16407416322E-02 -0.10691884338E+00  0.89058666825E+00  0.88000000000E+00 0. -1.
        -11    1    4    4    0    0  0.74924313993E-01 -0.11362562169E-01  0.72059899435E-01  0.10457366243E+00  0.51100000000E-03 0.  1.
         11    1    4    4    0    0  0.12445522037E-02 -0.84336107877E-03  0.34635539958E-01  0.34671918281E-01  0.51100000000E-03 0. -1.
</event>
<event>
 8    1  0.2929965E+004  0.1043930E+01  0.7957747E-01            NaN
         13   -1    0    0    0    0  0.00000000000E+00  0.00000000000E+00  0.74505805969E-08  0.10566000000E+00  0.10566000000E+00 0.  1.
     999900   -1    0    0    0    0 -0.00000000000E+00 -0.00000000000E+00 -0.74505805969E-08  0.93827000000E+00  0.93827000000E+00 0. -1.
     999902    2    1    2    0    0 -0.12132677911E-01 -0.49894262596E-02  0.84154092826E-03  0.10307844898E+01  0.10307006646E+01 0.  0.
     999903    2    3    3    0    0 -0.32434501317E-02 -0.70297511415E-01 -0.11389023554E+00  0.14089261720E+00  0.43903117786E-01 0.  0.
         14    1    1    2    0    0  0.12132677911E-01  0.49894262596E-02 -0.84154092826E-03  0.13145510216E-01  0.00000000000E+00 0. -1.
     999901    1    3    3    0    0 -0.88892277796E-02  0.65308085156E-01  0.11473177647E+00  0.88989187258E+00  0.88000000000E+00 0.  1.
        -11    1    4    4    0    0 -0.19402727098E-01 -0.48547738983E-01 -0.92945489857E-01  0.10664180224E+00  0.51100000000E-03 0. -1.
         11    1    4    4    0    0  0.16159276967E-01 -0.21749772433E-01 -0.20944745680E-01  0.34250814962E-01  0.51100000000E-03 0.  1.
</event>
<event>
 8    1  0.2929965E+004  0.1043930E+01  0.7957747E-01            NaN
         13   -1    0    0    0    0  0.00000000000E+00  0.00000000000E+00  0.74505805969E-08  0.10566000000E+00  0.10566000000E+00 0.  1.
     999900   -1    0    0    0    0 -0.00000000000E+00 -0.00000000000E+00 -0.74505805969E-08  0.93827000000E+00  0.93827000000E+00 0.  1.
     999902    2    1    2    0    0  0.16138754950E-02 -0.40729817156E-02 -0.13242963823E-01  0.10299811698E+01  0.10298867123E+01 0.  0.
     999903    2    3    3    0    0  0.68668100288E-01  0.28099536739E-01  0.10762369729E+00  0.13861138691E+00  0.46101674611E-01 0.  0.
         14    1    1    2    0    0 -0.16138754950E-02  0.40729817156E-02  0.13242963823E-01  0.13948830237E-01  0.00000000000E+00 0.  1.
     999901    1    3    3    0    0 -0.67054224792E-01 -0.32172518454E-01 -0.12086666111E+00  0.89136978285E+00  0.88000000000E+00 0.  1.
        -11    1    4    4    0    0  0.47648392395E-01  0.32998695649E-01  0.48189350757E-01  0.75377436013E-01  0.51100000000E-03 0. -1.
         11    1    4    4    0    0  0.21019707892E-01 -0.48991589108E-02  0.59434346532E-01  0.63233950902E-01  0.51100000000E-03 0.  1.
</event>
<event>
 8    1  0.2929965E+004  0.1043930E+01  0.7957747E-01            NaN
         13   -1    0    0    0    0  0.00000000000E+00  0.00000000000E+00  0.74505805969E-08  0.10566000000E+00  0.10566000000E+00 0. -1.
     999900   -1    0    0    0    0 -0.00000000000E+00 -0.00000000000E+00 -0.74505805969E-08  0.93827000000E+00  0.93827000000E+00 0. -1.
     999902    2    1    2    0    0 -0.19098920705E-02  0.56934157216E-02  0.13386721844E-01  0.10292580202E+01  0.10291534410E+01 0.  0.
     999903    2    3    3    0    0  0.20586034810E-01  0.11131263691E+00  0.70342221706E-01  0.14082939863E+00  0.45503883339E-01 0.  0.
         14    1    1    2    0    0  0.19098920705E-02 -0.56934157216E-02 -0.13386721844E-01  0.14671979827E-01  0.00000000000E+00 0.  1.
     999901    1    3    3    0    0 -0.22495926881E-01 -0.10561922119E+00 -0.56955499862E-01  0.88842862154E+00  0.88000000000E+00 0. -1.
        -11    1    4    4    0    0  0.24942063138E-01  0.90267945906E-01  0.36038618620E-01  0.10034665777E+00  0.51100000000E-03 0.  1.
         11    1    4    4    0    0 -0.43560283275E-02  0.21044691005E-01  0.34303603086E-01  0.40482740866E-01  0.51100000000E-03 0. -1.
</event>
<event>
 8    1  0.2929965E+004  0.1043930E+01  0.7957747E-01            NaN
         13   -1    0    0    0    0  0.00000000000E+00  0.00000000000E+00  0.74505805969E-08  0.10566000000E+00  0.10566000000E+00 0.  1.
     999900   -1    0    0    0    0 -0.00000000000E+00 -0.00000000000E+00 -0.74505805969E-08  0.93827000000E+00  0.93827000000E+00 0.  1.
     999902    2    1    2    0    0 -0.12730936204E-01 -0.70852819892E-02  0.47198191103E-02  0.10286148229E+01  0.10285008018E+01 0.  0.
     999903    2    3    3    0    0 -0.87840364155E-01  0.61481173213E-01 -0.76272870871E-01  0.13906291278E+00  0.45000873836E-01 0.  0.
         14    1    1    2    0    0  0.12730936204E-01  0.70852819892E-02 -0.47198191103E-02  0.15315177111E-01  0.00000000000E+00 0. -1.
     999901    1    3    3    0    0  0.75109427951E-01 -0.68566455202E-01  0.80992689981E-01  0.88955191011E+00  0.88000000000E+00 0. -1.
        -11    1    4    4    0    0 -0.37790642193E-01  0.87118579497E-02 -0.86202617292E-02  0.39731588687E-01  0.51100000000E-03 0. -1.
         11    1    4    4    0    0 -0.50049721962E-01  0.52769315263E-01 -0.67652609142E-01  0.99331324095E-01  0.51100000000E-03 0.  1.
</event>
<event>
 8    1  0.2929965E+004  0.1043930E+01  0.7957747E-01            NaN
         13   -1    0    0    0    0  0.00000000000E+00  0.00000000000E+00  0.74505805969E-08  0.10566000000E+00  0.10566000000E+00 0. -1.
     999900   -1    0    0    0    0 -0.00000000000E+00 -0.00000000000E+00 -0.74505805969E-08  0.93827000000E+00  0.93827000000E+00 0. -1.
     999902    2    1    2    0    0  0.11218663374E-01 -0.48725384407E-02 -0.18201702519E-02  0.10315641980E+01  0.10314900783E+01 0.  0.
     999903    2    3    3    0    0  0.34379394612E-01  0.72849889358E-01  0.10726497569E+00  0.14112792051E+00  0.43843651579E-01 0.  0.
         14    1    1    2    0    0 -0.11218663374E-01  0.48725384407E-02  0.18201702519E-02  0.12365801975E-01  0.00000000000E+00 0. -1.
     999901    1    3    3    0    0 -0.23160731239E-01 -0.77722427798E-01 -0.10908514594E+00  0.89043627752E+00  0.88000000000E+00 0. -1.
        -11    1    4    4    0    0 -0.78581767971E-02  0.19774673280E-01  0.12819820931E-01  0.24847486303E-01  0.51100000000E-03 0.  1.
         11    1    4    4    0    0  0.42237571409E-01  0.53075216078E-01  0.94445154759E-01  0.11628043420E+00  0.51100000000E-03 0. -1.
</event>
<event>
 8    1  0.2929965E+004  0.1043930E+01  0.7957747E-01            NaN
         13   -1    0    0    0    0  0.00000000000E+00  0.00000000000E+00  0.74505805969E-08  0.10566000000E+00  0.10566000000E+00 0.  1.
     999900   -1    0    0    0    0 -0.00000000000E+00 -0.00000000000E+00 -0.74505805969E-08  0.93827000000E+00  0.93827000000E+00 0.  1.
     999902    2    1    2    0    0  0.52596966843E-02  0.44993773219E-02 -0.11997975063E-01  0.10300786387E+01  0.10299855055E+01 0.  0.
     999903    2    3    3    0    0  0.73705055271E-01  0.10405575899E+00  0.38438493828E-01  0.14039325739E+00  0.44415231194E-01 0.  0.
         14    1    1    2    0    0 -0.52596966843E-02 -0.44993773219E-02  0.11997975063E-01  0.13851361345E-01  0.00000000000E+00 0.  1.
     999901    1    3    3    0    0 -0.68445358586E-01 -0.99556381665E-01 -0.50436468891E-01  0.88968538126E+00  0.88000000000E+00 0.  1.
        -11    1    4    4    0    0  0.33113760009E-01  0.68026639004E-01  0.32940181792E-02  0.75731475576E-01  0.51100000000E-03 0.  1.
         11    1    4    4    0    0  0.40591295262E-01  0.36029119982E-01  0.35144475649E-01  0.64661781814E-01  0.51100000000E-03 0. -1.
</event>
<event>
 8    1  0.2929965E+004  0.1043930E+01  0.7957747E-01            NaN
         13   -1    0    0    0    0  0.00000000000E+00  0.00000000000E+00  0.74505805969E-08  0.10566000000E+00  0.10566000000E+00 0. -1.
     999900   -1    0    0    0    0 -0.00000000000E+00 -0.00000000000E+00 -0.74505805969E-08  0.93827000000E+00  0.93827000000E+00 0.  1.
     999902    2    1    2    0    0 -0.53939651986E-02  0.11600174347E-01 -0.40410674941E-02  0.10305139972E+01  0.10304266637E+01 0.  0.
     999903    2    3    3    0    0 -0.98757522547E-01  0.82084914725E-01  0.45553727103E-01  0.14138830520E+00  0.37742937220E-01 0.  0.
         14    1    1    2    0    0  0.53939651986E-02 -0.11600174347E-01  0.40410674941E-02  0.13416002830E-01  0.00000000000E+00 0.  1.
     999901    1    3    3    0    0  0.93363557348E-01 -0.70484740378E-01 -0.49594794597E-01  0.88912569197E+00  0.88000000000E+00 0.  1.
        -11    1    4    4    0    0 -0.24771285037E-01  0.18439975679E-01 -0.53022362570E-02  0.31337263692E-01  0.51100000000E-03 0.  1.
         11    1    4    4    0    0 -0.73986237510E-01  0.63644939046E-01  0.50855963360E-01  0.11005104151E+00  0.51100000000E-03 0. -1.
</event>
<event>
 7    1  0.2929965E+004  0.1043930E+01  0.7957747E-01            NaN
         13   -1    0    0    0    0  0.00000000000E+00  0.00000000000E+00  0.74505805969E-08  0.10566000000E+00  0.10566000000E+00 0.  1.
     999900   -1    0    0    0    0 -0.00000000000E+00 -0.00000000000E+00 -0.74505805969E-08  0.93827000000E+00  0.93827000000E+00 0. -1.
     999903    2    1    2    0    0  0.10026621674E+00  0.56451538176E-01  0.10222509708E-01  0.12389367395E+00  0.44777811003E-01 0.  0.
         14    1    1    2    0    0  0.18455983375E-01 -0.16505462885E-01 -0.18858578071E-01  0.31123939247E-01  0.00000000000E+00 0. -1.
     999901    1    1    2    0    0 -0.11872220012E+00 -0.39946075291E-01  0.86360683637E-02  0.88891238680E+00  0.88000000000E+00 0.  1.
        -11    1    3    3    0    0  0.46899898448E-01  0.27693925164E-01 -0.17529648310E-01  0.57219783784E-01  0.51100000000E-03 0. -1.
         11    1    3    3    0    0  0.53366318294E-01  0.28757613012E-01  0.27752158018E-01  0.66673890167E-01  0.51100000000E-03 0.  1.
</event>
<event>
 8    1  0.2929965E+004  0.1043930E+01  0.7957747E-01            NaN
         13   -1    0    0    0    0  0.00000000000E+00  0.00000000000E+00  0.74505805969E-08  0.10566000000E+00  0.10566000000E+00 0.  1.
     999900   -1    0    0    0    0 -0.00000000000E+00 -0.00000000000E+00 -0.74505805969E-08  0.93827000000E+00  0.93827000000E+00 0.  1.
     999902    2    1    2    0    0  0.99940459085E-02  0.10741695487E-01 -0.11666341509E-02  0.10292117796E+01  0.10291065355E+01 0.  0.
     999903    2    3    3    0    0  0.90508038999E-01 -0.70299132431E-01 -0.65715748165E-01  0.13948333399E+00  0.44758996401E-01 0.  0.
         14    1    1    2    0    0 -0.99940459085E-02 -0.10741695487E-01  0.11666341509E-02  0.14718220368E-01  0.00000000000E+00 0.  1.
     999901    1    3    3    0    0 -0.80513993090E-01  0.81040827918E-01  0.64549114014E-01  0.88972844565E+00  0.88000000000E+00 0. -1.
        -11    1    4    4    0    0  0.31049040424E-01 -0.50790844867E-01 -0.23532961970E-01  0.64014172287E-01  0.51100000000E-03 0. -1.
         11    1    4    4    0    0  0.59458998575E-01 -0.19508287564E-01 -0.42182786195E-01  0.75469161698E-01  0.51100000000E-03 0.  1.
</event>
<event>
 8    1  0.2929965E+004  0.1043930E+01  0.7957747E-01            NaN
         13   -1    0    0    0    0  0.00000000000E+00  0.00000000000E+00  0.74505805969E-08  0.10566000000E+00  0.10566000000E+00 0. -1.
     999900   -1    0    0    0    0 -0.00000000000E+00 -0.00000000000E+00 -0.74505805969E-08  0.93827000000E+00  0.93827000000E+00 0.  1.
     999902    2    1    2    0    0  0.69897110551E-02 -0.11380082349E-01 -0.20881593928E-02  0.10304125023E+01  0.10303238336E+01 0.  0.
     999903    2    3    3    0    0 -0.80447232559E-01  0.10080744855E+00 -0.23742869358E-01  0.13872859659E+00  0.45254842361E-01 0.  0.
         14    1    1    2    0    0 -0.69897110551E-02  0.11380082349E-01  0.20881593928E-02  0.13517497718E-01  0.00000000000E+00 0.  1.
     999901    1    3    3    0    0  0.87436943615E-01 -0.11218753090E+00  0.21654709965E-01  0.89168390569E+00  0.88000000000E+00 0.  1.
        -11    1    4    4    0    0 -0.39493680442E-01  0.62258664298E-01  0.79695044600E-02  0.74159734340E-01  0.51100000000E-03 0.  1.
         11    1    4    4    0    0 -0.40953552118E-01  0.38548784257E-01 -0.31712373818E-01  0.64568862255E-01  0.51100000000E-03 0. -1.
</event>
<event>
 8    1  0.2929965E+004  0.1043930E+01  0.7957747E-01            NaN
         13   -1    0    0    0    0  0.00000000000E+00  0.00000000000E+00  0.74505805969E-08  0.10566000000E+00  0.10566000000E+00 0. -1.
     999900   -1    0    0    0    0 -0.00000000000E+00 -0.00000000000E+00 -0.74505805969E-08  0.93827000000E+00  0.93827000000E+00 0.  1.
     999902    2    1    2    0    0  0.10361374046E-01 -0.63542926433E-03 -0.64694856627E-02  0.10316982345E+01  0.10316257223E+01 0.  0.
     999903    2    3    3    0    0  0.39958580436E-02 -0.97933822157E-01 -0.92221138455E-01  0.14216979594E+00  0.45831344033E-01 0.  0.
         14    1    1    2    0    0 -0.10361374046E-01  0.63542926433E-03  0.64694856626E-02  0.12231765499E-01  0.00000000000E+00 0. -1.
     999901    1    3    3    0    0  0.63655160026E-02  0.97298392893E-01  0.85751652792E-01  0.88952843856E+00  0.88000000000E+00 0. -1.
        -11    1    4    4    0    0  0.14317982900E-01 -0.76734393181E-01 -0.46864402228E-01  0.91047817373E-01  0.51100000000E-03 0. -1.
         11    1    4    4    0    0 -0.10322124856E-01 -0.21199428976E-01 -0.45356736227E-01  0.51121978567E-01  0.51100000000E-03 0.  1.
</event>
<event>
 8    1  0.2929965E+004  0.1043930E+01  0.7957747E-01            NaN
         13   -1    0    0    0    0  0.00000000000E+00  0.00000000000E+00  0.74505805969E-08  0.10566000000E+00  0.10566000000E+00 0. -1.
     999900   -1    0    0    0    0 -0.00000000000E+00 -0.00000000000E+00 -0.74505805969E-08  0.93827000000E+00  0.93827000000E+00 0.  1.
     999902    2    1    2    0    0  0.98818967941E-02  0.75557875880E-02  0.83553410588E-02  0.10289448896E+01  0.10288357654E+01 0.  0.
     999903    2    3    3    0    0  0.73502831228E-01  0.96451149731E-01  0.55073542426E-01  0.14095130905E+00  0.46137684865E-01 0.  0.
         14    1    1    2    0    0 -0.98818967941E-02 -0.75557875880E-02 -0.83553410588E-02  0.14985110428E-01  0.00000000000E+00 0.  1.
     999901    1    3    3    0    0 -0.63620934434E-01 -0.88895362143E-01 -0.46718201367E-01  0.88799358052E+00  0.88000000000E+00 0.  1.
        -11    1    4    4    0    0  0.68719850933E-01  0.55631230525E-01  0.41445525978E-01  0.97648576367E-01  0.51100000000E-03 0.  1.
         11    1    4    4    0    0  0.47829802951E-02  0.40819919207E-01  0.13628016447E-01  0.43302732683E-01  0.51100000000E-03 0. -1.
</event>
<event>
 8    1  0.2929965E+004  0.1043930E+01  0.7957747E-01            NaN
         13   -1    0    0    0    0  0.00000000000E+00  0.00000000000E+00  0.74505805969E-08  0.10566000000E+00  0.10566000000E+00 0. -1.
     999900   -1    0    0    0    0 -0.00000000000E+00 -0.00000000000E+00 -0.74505805969E-08  0.93827000000E+00  0.93827000000E+00 0.  1.
     999902    2    1    2    0    0  0.94373733246E-02  0.29280651362E-02 -0.11364539707E-01  0.10288704401E+01  0.10287602210E+01 0.  0.
     999903    2    3    3    0    0  0.47051720577E-01  0.12350242634E+00 -0.11269485753E-01  0.13985242865E+00  0.44328171288E-01 0.  0.
         14    1    1    2    0    0 -0.94373733246E-02 -0.29280651362E-02  0.11364539707E-01  0.15059559869E-01  0.00000000000E+00 0. -1.
     999901    1    3    3    0    0 -0.37614347252E-01 -0.12057436120E+00 -0.95053953262E-04  0.88901801148E+00  0.88000000000E+00 0. -1.
        -11    1    4    4    0    0  0.85379480237E-02  0.40295497262E-01  0.16003489014E-01  0.44192719283E-01  0.51100000000E-03 0. -1.
         11    1    4    4    0    0  0.38513772553E-01  0.83206929078E-01 -0.27272974767E-01  0.95659709369E-01  0.51100000000E-03 0.  1.
</event>
<event>
 8    1  0.2929965E+004  0.1043930E+01  0.7957747E-01            NaN
         13   -1    0    0    0    0  0.00000000000E+00  0.00000000000E+00  0.74505805969E-08  0.10566000000E+00  0.10566000000E+00 0. -1.
     999900   -1    0    0    0    0 -0.00000000000E+00 -0.00000000000E+00 -0.74505805969E-08  0.93827000000E+00  0.93827000000E+00 0. -1.
     999902    2    1    2    0    0 -0.10578331487E-01 -0.30300062531E-02  0.92318854537E-02  0.10295665135E+01  0.10294663161E+01 0.  0.
     999903    2    3    3    0    0  0.62394652997E-01 -0.10842613717E+00 -0.40602314465E-01  0.13888315319E+00  0.44616839373E-01 0.  0.
         14    1    1    2    0    0  0.10578331487E-01  0.30300062531E-02 -0.92318854537E-02  0.14363486484E-01  0.00000000000E+00 0.  1.
     999901    1    3    3    0    0 -0.72972984484E-01  0.10539613092E+00  0.49834199918E-01  0.89068336032E+00  0.88000000000E+00 0.  1.
        -11    1    4    4    0    0  0.26850690949E-02 -0.44628683234E-01 -0.20658659264E-01  0.49254139794E-01  0.51100000000E-03 0.  1.
         11    1    4    4    0    0  0.59709583902E-01 -0.63797453938E-01 -0.19943655200E-01  0.89629013397E-01  0.51100000000E-03 0. -1.
</event>
<event>
 8    1  0.2929965E+004  0.1043930E+01  0.7957747E-01            NaN
         13   -1    0    0    0    0  0.00000000000E+00  0.00000000000E+00  0.74505805969E-08  0.10566000000E+00  0.10566000000E+00 0. -1.
     999900   -1    0    0    0    0 -0.00000000000E+00 -0.00000000000E+00 -0.74505805969E-08  0.93827000000E+00  0.93827000000E+00 0.  1.
     999902    2    1    2    0    0 -0.87831611131E-02 -0.89397225044E-02 -0.11292832509E-02  0.10313467636E+01  0.10312699981E+01 0.  0.
     999903    2    3    3    0    0 -0.86441438714E-02 -0.12613432245E+00 -0.47929283997E-01  0.14234460744E+00  0.44499241336E-01 0.  0.
         14    1    1    2    0    0  0.87831611131E-02  0.89397225044E-02  0.11292832509E-02  0.12583236398E-01  0.00000000000E+00 0. -1.
     999901    1    3    3    0    0 -0.13901724170E-03  0.11719459995E+00  0.46800000746E-01  0.88900215616E+00  0.88000000000E+00 0. -1.
        -11    1    4    4    0    0 -0.16621487724E-01 -0.42125713803E-01  0.12433158257E-04  0.45289191792E-01  0.51100000000E-03 0.  1.
         11    1    4    4    0    0  0.79773438528E-02 -0.84008608652E-01 -0.47941717155E-01  0.97055415652E-01  0.51100000000E-03 0. -1.
</event>
<event>
 8    1  0.2929965E+004  0.1043930E+01  0.7957747E-01            NaN
         13   -1    0    0    0    0  0.00000000000E+00  0.00000000000E+00  0.74505805969E-08  0.10566000000E+00  0.10566000000E+00 0.  1.
     999900   -1    0    0    0    0 -0.00000000000E+00 -0.00000000000E+00 -0.74505805969E-08  0.93827000000E+00  0.93827000000E+00 0. -1.
     999902    2    1    2    0    0  0.40601072021E-02 -0.94740953995E-02 -0.98648488304E-02  0.10296626177E+01  0.10295637660E+01 0.  0.
     999903    2    3    3    0    0 -0.13063374658E+00 -0.54921185428E-02 -0.16923164617E-01  0.13937720833E+00  0.45213643847E-01 0.  0.
         14    1    1    2    0    0 -0.40601072021E-02  0.94740953995E-02  0.98648488304E-02  0.14267382261E-01  0.00000000000E+00 0.  1.
     999901    1    3    3    0    0  0.13469385378E+00 -0.39819768566E-02  0.70583157869E-02  0.89028540941E+00  0.88000000000E+00 0.  1.
        -11    1    4    4    0    0 -0.28730610735E-01  0.14605074353E-01  0.65453628925E-02  0.32891626388E-01  0.51100000000E-03 0.  1.
         11    1    4    4    0    0 -0.10190313584E+00 -0.20097192896E-01 -0.23468527510E-01  0.10648558194E+00  0.51100000000E-03 0. -1.
</event>
<event>
 8    1  0.2929965E+004  0.1043930E+01  0.7957747E-01            NaN
         13   -1    0    0    0    0  0.00000000000E+00  0.00000000000E+00  0.74505805969E-08  0.10566000000E+00  0.10566000000E+00 0. -1.
     999900   -1    0    0    0    0 -0.00000000000E+00 -0.00000000000E+00 -0.74505805969E-08  0.93827000000E+00  0.93827000000E+00 0. -1.
     999902    2    1    2    0    0  0.97934406437E-02 -0.93986692941E-02  0.61901689948E-02  0.10290113990E+01  0.10289032484E+01 0.  0.
     999903    2    3    3    0    0 -0.58216506296E-01  0.26936883300E-01  0.11487814825E+00  0.13897842089E+00  0.44757739422E-01 0.  0.
         14    1    1    2    0    0 -0.97934406437E-02  0.93986692941E-02 -0.61901689948E-02  0.14918601018E-01  0.00000000000E+00 0.  1.
     999901    1    3    3    0    0  0.68009946939E-01 -0.36335552594E-01 -0.10868797926E+00  0.89003297810E+00  0.88000000000E+00 0. -1.
        -11    1    4    4    0    0 -0.21477522842E-01  0.44727470028E-02  0.81752573095E-01  0.84646522562E-01  0.51100000000E-03 0. -1.
         11    1    4    4    0    0 -0.36738983453E-01  0.22464136297E-01  0.33125575160E-01  0.54331898323E-01  0.51100000000E-03 0.  1.
</event>
<event>
 7    1  0.2929965E+004  0.1043930E+01  0.7957747E-01            NaN
         13   -1    0    0    0    0  0.00000000000E+00  0.00000000000E+00  0.74505805969E-08  0.10566000000E+00  0.10566000000E+00 0. -1.
     999900   -1    0    0    0    0 -0.00000000000E+00 -0.00000000000E+00 -0.74505805969E-08  0.93827000000E+00  0.93827000000E+00 0.  1.
     999902    2    1    2    0    0 -0.11181287018E-01  0.71909275339E-02  0.19344146402E-02  0.10304959917E+01  0.10304084221E+01 0.  0.
         14    1    1    2    0    0  0.11181287018E-01 -0.71909275339E-02 -0.19344146402E-02  0.13434008269E-01  0.00000000000E+00 0. -1.
     999901    1    3    3    0    0 -0.12375790092E+00  0.25360824795E-01 -0.33223658324E-01  0.88964206339E+00  0.88000000000E+00 0. -1.
        -11    1    3    3    0    0  0.56289311793E-01 -0.34922049123E-01  0.46635546395E-01  0.81013402876E-01  0.51100000000E-03 0.  1.
         11    1    3    3    0    0  0.56287302111E-01  0.16752151861E-01 -0.11477473430E-01  0.59840525467E-01  0.51100000000E-03 0. -1.
</event>
<event>
 8    1  0.2929965E+004  0.1043930E+01  0.7957747E-01            NaN
         13   -1    0    0    0    0  0.00000000000E+00  0.00000000000E+00  0.74505805969E-08  0.10566000000E+00  0.10566000000E+00 0.  1.
     999900   -1    0    0    0    0 -0.00000000000E+00 -0.00000000000E+00 -0.74505805969E-08  0.93827000000E+00  0.93827000000E+00 0. -1.
     999902    2    1    2    0    0  0.12356144471E-01  0.70036624710E-02 -0.47139467924E-03  0.10297191659E+01  0.10296211015E+01 0.  0.
     999903    2    3    3    0    0  0.12788193151E+00 -0.28185474681E-01 -0.26113744692E-01  0.14110113039E+00  0.45600350259E-01 0.  0.
         14    1    1    2    0    0 -0.12356144471E-01 -0.70036624710E-02  0.47139467924E-03  0.14210834146E-01  0.00000000000E+00 0. -1.
     999901    1    3    3    0    0 -0.11552578704E+00  0.35189137152E-01  0.25642350013E-01  0.88861803547E+00  0.88000000000E+00 0.  1.
        -11    1    4    4    0    0  0.60877515156E-01 -0.28707166713E-01 -0.30610295331E-01  0.73942035227E-01  0.51100000000E-03 0. -1.
         11    1    4    4    0    0  0.67004416357E-01  0.52169203198E-03  0.44965506383E-02  0.67159095159E-01  0.51100000000E-03 0.  1.
</event>
<event>
 8    1  0.2929965E+004  0.1043930E+01  0.7957747E-01            NaN
         13   -1    0    0    0    0  0.00000000000E+00  0.00000000000E+00  0.74505805969E-08  0.10566000000E+00  0.10566000000E+00 0. -1.
     999900   -1    0    0    0    0 -0.00000000000E+00 -0.00000000000E+00 -0.74505805969E-08  0.93827000000E+00  0.93827000000E+00 0. -1.
     999902    2    1    2    0    0 -0.82441375022E-02 -0.44977226351E-02  0.11122162834E-01  0.10293732896E+01  0.10292703588E+01 0.  0.
     999903    2    3    3    0    0  0.73971380889E-01 -0.67246356088E-01 -0.84161151082E-01  0.13820793322E+00  0.44994398059E-01 0.  0.
         14    1    1    2    0    0  0.82441375022E-02  0.44977226351E-02 -0.11122162834E-01  0.14556710417E-01  0.00000000000E+00 0. -1.
     999901    1    3    3    0    0 -0.82215518391E-01  0.62748633453E-01  0.95283313916E-01  0.89116535636E+00  0.88000000000E+00 0. -1.
        -11    1    4    4    0    0  0.19421417185E-01 -0.41964870929E-01 -0.53498564221E-01  0.70714915911E-01  0.51100000000E-03 0.  1.
         11    1    4    4    0    0  0.54549963704E-01 -0.25281485160E-01 -0.30662586861E-01  0.67493017313E-01  0.51100000000E-03 0. -1.
</event>
<event>
 8    1  0.2929965E+004  0.1043930E+01  0.7957747E-01            NaN
         13   -1    0    0    0    0  0.00000000000E+00  0.00000000000E+00  0.74505805969E-08  0.10566000000E+00  0.10566000000E+00 0.  1.
     999900   -1    0    0    0    0 -0.00000000000E+00 -0.00000000000E+00 -0.74505805969E-08  0.93827000000E+00  0.93827000000E+00 0.  1.
     999902    2    1    2    0    0  0.88240719884E-02  0.10534325953E-01 -0.51994670234E-02  0.10292374602E+01  0.10291325856E+01 0.  0.
     999903    2    3    3    0    0  0.11352641420E-01  0.13206289955E+00 -0.15798105431E-01  0.14081868559E+00  0.44842281059E-01 0.  0.
         14    1    1    2    0    0 -0.88240719884E-02 -0.10534325953E-01  0.51994670234E-02  0.14692539844E-01  0.00000000000E+00 0. -1.
     999901    1    3    3    0    0 -0.25285694319E-02 -0.12152857360E+00  0.10598638408E-01  0.88841877457E+00  0.88000000000E+00 0. -1.
        -11    1    4    4    0    0  0.93802390088E-02  0.58886850349E-02 -0.92823790806E-02  0.14459916241E-01  0.51100000000E-03 0. -1.
         11    1    4    4    0    0  0.19724024115E-02  0.12617421452E+00 -0.65157263508E-02  0.12635876935E+00  0.51100000000E-03 0.  1.
</event>
<event>
 8    1  0.2929965E+004  0.1043930E+01  0.7957747E-01            NaN
         13   -1    0    0    0    0  0.00000000000E+00  0.00000000000E+00  0.74505805969E-08  0.10566000000E+00  0.10566000000E+00 0. -1.
     999900   -1    0    0    0    0 -0.00000000000E+00 -0.00000000000E+00 -0.74505805969E-08  0.93827000000E+00  0.93827000000E+00 0.  1.
     999902    2    1    2    0    0  0.68593441258E-02 -0.10459171396E-01 -0.58552845784E-02  0.10301195248E+01  0.10300269444E+01 0.  0.
     999903    2    3    3    0    0  0.11639073547E+00 -0.66337150666E-01  0.71028104126E-02  0.14147595930E+00  0.44917438511E-01 0.  0.
         14    1    1    2    0    0 -0.68593441258E-02  0.10459171396E-01  0.58552845784E-02  0.13810475213E-01  0.00000000000E+00 0. -1.
     999901    1    3    3    0    0 -0.10953139134E+00  0.55877979270E-01 -0.12958094991E-01  0.88864356549E+00  0.88000000000E+00 0.  1.
        -11    1    4    4    0    0  0.43350416068E-01 -0.61269843050E-02 -0.10898040675E-01  0.45120138757E-01  0.51100000000E-03 0. -1.
         11    1    4    4    0    0  0.73040319401E-01 -0.60210166361E-01  0.18000851087E-01  0.96355820542E-01  0.51100000000E-03 0.  1.
</event>
<event>
 8    1  0.2929965E+004  0.1043930E+01  0.7957747E-01            NaN
         13   -1    0    0    0    0  0.00000000000E+00  0.00000000000E+00  0.74505805969E-08  0.10566000000E+00  0.10566000000E+00 0. -1.
     999900   -1    0    0    0    0 -0.00000000000E+00 -0.00000000000E+00 -0.74505805969E-08  0.93827000000E+00  0.93827000000E+00 0. -1.
     999902    2    1    2    0    0  0.11305569219E-01 -0.10016902986E-01  0.19999247542E-02  0.10286934013E+01  0.10285805559E+01 0.  0.
     999903    2    3    3    0    0  0.76558587212E-01  0.10524275481E+00  0.13999176508E-01  0.13870085801E+00  0.45876969756E-01 0.  0.
         14    1    1    2    0    0 -0.11305569219E-01  0.10016902986E-01 -0.19999247542E-02  0.15236598696E-01  0.00000000000E+00 0.  1.
     999901    1    3    3    0    0 -0.65253017993E-01 -0.11525965780E+00 -0.11999251754E-01  0.88999254329E+00  0.88000000000E+00 0. -1.
        -11    1    4    4    0    0  0.15468121227E-01  0.25990148065E-01  0.23329412746E-01  0.38200434432E-01  0.51100000000E-03 0. -1.
         11    1    4    4    0    0  0.61090465984E-01  0.79252606747E-01 -0.93302362377E-02  0.10050042358E+00  0.51100000000E-03 0.  1.
</event>
<event>
 8    1  0.2929965E+004  0.1043930E+01  0.7957747E-01            NaN
         13   -1    0    0    0    0  0.00000000000E+00  0.00000000000E+00  0.74505805969E-08  0.10566000000E+00  0.10566000000E+00 0. -1.
     999900   -1    0    0    0    0 -0.00000000000E+00 -0.00000000000E+00 -0.74505805969E-08  0.93827000000E+00  0.93827000000E+00 0.  1.
     999902    2    1    2    0    0  0.18403532065E-03  0.88325505377E-02  0.12083566757E-01  0.10289613526E+01  0.10288524699E+01 0.  0.
     999903    2    3    3    0    0 -0.52352285321E-01  0.10018616467E+00  0.70709797796E-01  0.14073695377E+00  0.45044259143E-01 0.  0.
         14    1    1    2    0    0 -0.18403532065E-03 -0.88325505377E-02 -0.12083566757E-01  0.14968647353E-01  0.00000000000E+00 0.  1.
     999901    1    3    3    0    0  0.52536320641E-01 -0.91353614131E-01 -0.58626231038E-01  0.88822439888E+00  0.88000000000E+00 0.  1.
        -11    1    4    4    0    0 -0.29265157205E-01  0.76887959642E-01  0.69847488163E-01  0.10792191848E+00  0.51100000000E-03 0. -1.
         11    1    4    4    0    0 -0.23087128116E-01  0.23298205027E-01  0.86230963279E-03  0.32815035289E-01  0.51100000000E-03 0.  1.
</event>
<event>
 8    1  0.2929965E+004  0.1043930E+01  0.7957747E-01            NaN
         13   -1    0    0    0    0  0.00000000000E+00  0.00000000000E+00  0.74505805969E-08  0.10566000000E+00  0.10566000000E+00 0. -1.
     999900   -1    0    0    0    0 -0.00000000000E+00 -0.00000000000E+00 -0.74505805969E-08  0.93827000000E+00  0.93827000000E+00 0. -1.
     999902    2    1    2    0    0 -0.49564357352E-02 -0.74946580430E-02 -0.92604679468E-02  0.10310268058E+01  0.10309460615E+01 0.  0.
     999903    2    3    3    0    0  0.33964177791E-01  0.28206672832E-01 -0.12696907440E+00  0.14161986000E+00  0.44562956872E-01 0.  0.
         14    1    1    2    0    0  0.49564357352E-02  0.74946580430E-02  0.92604679468E-02  0.12903194216E-01  0.00000000000E+00 0. -1.
     999901    1    3    3    0    0 -0.38920613526E-01 -0.35701330875E-01  0.11770860646E+00  0.88940694579E+00  0.88000000000E+00 0.  1.
        -11    1    4    4    0    0  0.38870924246E-01  0.69769231412E-02 -0.95454037312E-01  0.10330227765E+00  0.51100000000E-03 0. -1.
         11    1    4    4    0    0 -0.49067464546E-02  0.21229749691E-01 -0.31515037091E-01  0.38317582342E-01  0.51100000000E-03 0.  1.
</event>
<event>
 8    1  0.2929965E+004  0.1043930E+01  0.7957747E-01            NaN
         13   -1    0    0    0    0  0.00000000000E+00  0.00000000000E+00  0.74505805969E-08  0.10566000000E+00  0.10566000000E+00 0.  1.
     999900   -1    0    0    0    0 -0.00000000000E+00 -0.00000000000E+00 -0.74505805969E-08  0.93827000000E+00  0.93827000000E+00 0.  1.
     999902    2    1    2    0    0 -0.79908843176E-03 -0.11501238235E-01 -0.70348071044E-02  0.10304242407E+01  0.10303357270E+01 0.  0.
     999903    2    3    3    0    0  0.62267986798E-02  0.61766243984E-01 -0.11805322196E+00  0.14040032221E+00  0.43838856553E-01 0.  0.
         14    1    1    2    0    0  0.79908843176E-03  0.11501238235E-01  0.70348071044E-02  0.13505759299E-01  0.00000000000E+00 0.  1.
     999901    1    3    3    0    0 -0.70258871116E-02 -0.73267482219E-01  0.11101841486E+00  0.89002391849E+00  0.88000000000E+00 0. -1.
        -11    1    4    4    0    0  0.19435186189E-01  0.11403577704E-01 -0.24196528366E-01  0.33068128955E-01  0.51100000000E-03 0.  1.
         11    1    4    4    0    0 -0.13208387509E-01  0.50362666281E-01 -0.93856693599E-01  0.10733219326E+00  0.51100000000E-03 0. -1.
</event>
<event>
 8    1  0.2929965E+004  0.1043930E+01  0.7957747E-01            NaN
         13   -1    0    0    0    0  0.00000000000E+00  0.00000000000E+00  0.74505805969E-08  0.10566000000E+00  0.10566000000E+00 0. -1.
     999900   -1    0    0    0    0 -0.00000000000E+00 -0.00000000000E+00 -0.74505805969E-08  0.93827000000E+00  0.93827000000E+00 0. -1.
     999902    2    1    2    0    0 -0.24448008761E-01  0.67008514549E-02 -0.11103734417E-01  0.10162551114E+01  0.10158782171E+01 0.  0.
     999903    2    3    3    0    0 -0.70453055563E-01  0.10000654394E+00 -0.14595345271E-01  0.13012046702E+00  0.41873260719E-01 0.  0.
         14    1    1    2    0    0  0.24448008761E-01 -0.67008514549E-02  0.11103734417E-01  0.27674888628E-01  0.00000000000E+00 0.  1.
     999901    1    3    3    0    0  0.46005046802E-01 -0.93305692488E-01  0.34916108532E-02  0.88613464436E+00  0.88000000000E+00 0. -1.
        -11    1    4    4    0    0 -0.56782471583E-01  0.84481020029E-01  0.45998548061E-02  0.10189559171E+00  0.51100000000E-03 0.  1.
         11    1    4    4    0    0 -0.13670583980E-01  0.15525523913E-01 -0.19195200077E-01  0.28224875307E-01  0.51100000000E-03 0. -1.
</event>
<event>
 8    1  0.2929965E+004  0.1043930E+01  0.7957747E-01            NaN
         13   -1    0    0    0    0  0.00000000000E+00  0.00000000000E+00  0.74505805969E-08  0.10566000000E+00  0.10566000000E+00 0. -1.
     999900   -1    0    0    0    0 -0.00000000000E+00 -0.00000000000E+00 -0.74505805969E-08  0.93827000000E+00  0.93827000000E+00 0. -1.
     999902    2    1    2    0    0 -0.10174597940E-01  0.47043551485E-02  0.10765903876E-01  0.10283878609E+01  0.10282704092E+01 0.  0.
     999903    2    3    3    0    0 -0.65586975856E-01 -0.10192504109E+00 -0.48917851620E-01  0.13821792747E+00  0.44954130672E-01 0.  0.
         14    1    1    2    0    0  0.10174597940E-01 -0.47043551485E-02 -0.10765903876E-01  0.15542139070E-01  0.00000000000E+00 0. -1.
     999901    1    3    3    0    0  0.55412377916E-01  0.10662939623E+00  0.59683755496E-01  0.89016993346E+00  0.88000000000E+00 0.  1.
        -11    1    4    4    0    0 -0.53379963280E-01 -0.47656507593E-01 -0.15156569509E-01  0.73147425902E-01  0.51100000000E-03 0.  1.
         11    1    4    4    0    0 -0.12207012576E-01 -0.54268533492E-01 -0.33761282111E-01  0.65070501567E-01  0.51100000000E-03 0. -1.
</event>
<event>
 8    1  0.2929965E+004  0.1043930E+01  0.7957747E-01            NaN
         13   -1    0    0    0    0  0.00000000000E+00  0.00000000000E+00  0.74505805969E-08  0.10566000000E+00  0.10566000000E+00 0.  1.
     999900   -1    0    0    0    0 -0.00000000000E+00 -0.00000000000E+00 -0.74505805969E-08  0.93827000000E+00  0.93827000000E+00 0. -1.
     999902    2    1    2    0    0 -0.12167030726E-01  0.11433995514E-01  0.34618127258E-02  0.10268784007E+01  0.10267368177E+01 0.  0.
     999903    2    3    3    0    0 -0.52385990469E-02 -0.10057680647E+00  0.79614234657E-01  0.13648881505E+00  0.46342565270E-01 0.  0.
         14    1    1    2    0    0  0.12167030726E-01 -0.11433995514E-01 -0.34618127258E-02  0.17051599264E-01  0.00000000000E+00 0.  1.
     999901    1    3    3    0    0 -0.69284316794E-02  0.11201080198E+00 -0.76152421931E-01  0.89038958568E+00  0.88000000000E+00 0. -1.
        -11    1    4    4    0    0 -0.18910833331E-01 -0.87243523995E-01  0.53303706459E-01  0.10397402724E+00  0.51100000000E-03 0. -1.
         11    1    4    4    0    0  0.13672234284E-01 -0.13333282470E-01  0.26310528198E-01  0.32514787817E-01  0.51100000000E-03 0.  1.
</event>
<event>
 8    1  0.2929965E+004  0.1043930E+01  0.7957747E-01            NaN
         13   -1    0    0    0    0  0.00000000000E+00  0.00000000000E+00  0.74505805969E-08  0.10566000000E+00  0.10566000000E+00 0.  1.
     999900   -1    0    0    0    0 -0.00000000000E+00 -0.00000000000E+00 -0.74505805969E-08  0.93827000000E+00  0.93827000000E+00 0.  1.
     999902    2    1    2    0    0 -0.12066046281E-01 -0.50615987879E-02  0.71875964679E-02  0.10290011421E+01  0.10288928417E+01 0.  0.
     999903    2    3    3    0    0  0.71724489651E-01 -0.40165146495E-01 -0.99828384457E-01  0.13787515037E+00  0.47814321459E-01 0.  0.
         14    1    1    2    0    0  0.12066046281E-01  0.50615987879E-02 -0.71875964679E-02  0.14928857898E-01  0.00000000000E+00 0.  1.
     999901    1    3    3    0    0 -0.83790535932E-01  0.35103547707E-01  0.10701598093E+00  0.89112599174E+00  0.88000000000E+00 0. -1.
        -11    1    4    4    0    0  0.22197143986E-02 -0.21503279055E-01 -0.13537421420E-01  0.25511586423E-01  0.51100000000E-03 0.  1.
         11    1    4    4    0    0  0.69504775252E-01 -0.18661867440E-01 -0.86290963037E-01  0.11236356394E+00  0.51100000000E-03 0. -1.
</event>
<event>
 8    1  0.2929965E+004  0.1043930E+01  0.7957747E-01            NaN
         13   -1    0    0    0    0  0.00000000000E+00  0.00000000000E+00  0.74505805969E-08  0.10566000000E+00  0.10566000000E+00 0.  1.
     999900   -1    0    0    0    0 -0.00000000000E+00 -0.00000000000E+00 -0.74505805969E-08  0.93827000000E+00  0.93827000000E+00 0. -1.
     999902    2    1    2    0    0  0.78997498481E-02 -0.23290714351E-02 -0.11400368944E-01  0.10298658956E+01  0.10297698596E+01 0.  0.
     999903    2    3    3    0    0 -0.10803801903E+00  0.12828963457E-01  0.72493885738E-01  0.13817672425E+00  0.44728601535E-01 0.  0.
         14    1    1    2    0    0 -0.78997498481E-02  0.23290714351E-02  0.11400368944E-01  0.14064104432E-01  0.00000000000E+00 0.  1.
     999901    1    3    3    0    0  0.11593776888E+00 -0.15158034893E-01 -0.83894254682E-01  0.89168917132E+00  0.88000000000E+00 0. -1.
        -11    1    4    4    0    0 -0.97850901681E-01  0.25695551259E-01  0.63659010944E-01  0.11953154860E+00  0.51100000000E-03 0.  1.
         11    1    4    4    0    0 -0.10187117353E-01 -0.12866587801E-01  0.88348747940E-02  0.18645175656E-01  0.51100000000E-03 0. -1.
</event>
<event>
 8    1  0.2929965E+004  0.1043930E+01  0.7957747E-01            NaN
         13   -1    0    0    0    0  0.00000000000E+00  0.00000000000E+00  0.74505805969E-08  0.10566000000E+00  0.10566000000E+00 0.  1.
     999900   -1    0    0    0    0 -0.00000000000E+00 -0.00000000000E+00 -0.74505805969E-08  0.93827000000E+00  0.93827000000E+00 0. -1.
     999902    2    1    2    0    0 -0.27823224433E-02  0.87389651434E-02 -0.94440824999E-02  0.10307655963E+01  0.10306815284E+01 0.  0.
     999903    2    3    3    0    0  0.12332929072E+00  0.50049171426E-01 -0.66251900500E-02  0.14081131757E+00  0.45485167924E-01 0.  0.
         14    1    1    2    0    0  0.27823224433E-02 -0.87389651434E-02  0.94440824999E-02  0.13164403679E-01  0.00000000000E+00 0.  1.
     999901    1    3    3    0    0 -0.12611161317E+00 -0.41310206283E-01 -0.28188924499E-02  0.88995427875E+00  0.88000000000E+00 0.  1.
        -11    1    4    4    0    0  0.17575908758E-01  0.24374806296E-01  0.77534469031E-02  0.31039020772E-01  0.51100000000E-03 0.  1.
         11    1    4    4    0    0  0.10575338197E+00  0.25674365130E-01 -0.14378636953E-01  0.10977229679E+00  0.51100000000E-03 0. -1.
</event>
<event>
 8    1  0.2929965E+004  0.1043930E+01  0.7957747E-01            NaN
         13   -1    0    0    0    0  0.00000000000E+00  0.00000000000E+00  0.74505805969E-08  0.10566000000E+00  0.10566000000E+00 0.  1.
     999900   -1    0    0    0    0 -0.00000000000E+00 -0.00000000000E+00 -0.74505805969E-08  0.93827000000E+00  0.93827000000E+00 0.  1.
     999902    2    1    2    0    0 -0.51938077497E-02  0.65733249078E-02 -0.21484071021E-01  0.10208703047E+01  0.10206098322E+01 0.  0.
     999903    2    3    3    0    0 -0.12412085580E+00  0.10644167214E-01 -0.58416123563E-02  0.13272341313E+00  0.45410294166E-01 0.  0.
         14    1    1    2    0    0  0.51938077497E-02 -0.65733249078E-02  0.21484071021E-01  0.23059695292E-01  0.00000000000E+00 0.  1.
     999901    1    3    3    0    0  0.11892704805E+00 -0.40708423063E-02 -0.15642458665E-01  0.88814689158E+00  0.88000000000E+00 0. -1.
        -11    1    4    4    0    0 -0.49029229721E-01  0.88767265141E-02 -0.24205524852E-01  0.55397023341E-01  0.51100000000E-03 0.  1.
         11    1    4    4    0    0 -0.75091626080E-01  0.17674407000E-02  0.18363912496E-01  0.77326389785E-01  0.51100000000E-03 0. -1.
</event>
<event>
 8    1  0.2929965E+004  0.1043930E+01  0.7957747E-01            NaN
         13   -1    0    0    0    0  0.00000000000E+00  0.00000000000E+00  0.74505805969E-08  0.10566000000E+00  0.10566000000E+00 0.  1.
     999900   -1    0    0    0    0 -0.00000000000E+00 -0.00000000000E+00 -0.74505805969E-08  0.93827000000E+00  0.93827000000E+00 0.  1.
     999902    2    1    2    0    0 -0.13574808361E-01 -0.35120610467E-03 -0.26316675576E-02  0.10300979921E+01  0.10300051208E+01 0.  0.
     999903    2    3    3    0    0 -0.97270810274E-01 -0.91217429558E-01  0.54221453194E-02  0.14143238842E+00  0.46813361856E-01 0.  0.
         14    1    1    2    0    0  0.13574808361E-01  0.35120610467E-03  0.26316675576E-02  0.13832007877E-01  0.00000000000E+00 0.  1.
     999901    1    3    3    0    0  0.83696001913E-01  0.90866223453E-01 -0.80538128770E-02  0.88866560370E+00  0.88000000000E+00 0.  1.
        -11    1    4    4    0    0 -0.56334097211E-01 -0.78525683611E-01  0.14197223383E-01  0.97681296920E-01  0.51100000000E-03 0. -1.
         11    1    4    4    0    0 -0.40936713063E-01 -0.12691745947E-01 -0.87750780632E-02  0.43751091502E-01  0.51100000000E-03 0.  1.
</event>
<event>
 8    1  0.2929965E+004  0.1043930E+01  0.7957747E-01            NaN
         13   -1    0    0    0    0  0.00000000000E+00  0.00000000000E+00  0.74505805969E-08  0.10566000000E+00  0.10566000000E+00 0.  1.
     999900   -1    0    0    0    0 -0.00000000000E+00 -0.00000000000E+00 -0.74505805969E-08  0.93827000000E+00  0.93827000000E+00 0.  1.
     999902    2    1    2    0    0  0.83519212599E-02  0.54192280860E-02  0.88571513895E-02  0.10306043949E+01  0.10305182419E+01 0.  0.
     999903    2    3    3    0    0 -0.82062365478E-01  0.93395959755E-01 -0.45878959966E-01  0.13992449138E+00  0.44910435253E-01 0.  0.
         14    1    1    2    0    0 -0.83519212599E-02 -0.54192280860E-02 -0.88571513895E-02  0.13325605146E-01  0.00000000000E+00 0. -1.
     999901    1    3    3    0    0  0.90414286738E-01 -0.87976731669E-01  0.54736111356E-01  0.89067990347E+00  0.88000000000E+00 0. -1.
        -11    1    4    4    0    0 -0.14086415550E-01  0.51381598836E-02 -0.20948632333E-01  0.25766918862E-01  0.51100000000E-03 0.  1.
         11    1    4    4    0    0 -0.67975949927E-01  0.88257799872E-01 -0.24930327633E-01  0.11415757252E+00  0.51100000000E-03 0. -1.
</event>
<event>
 7    1  0.2929965E+004  0.1043930E+01  0.7957747E-01            NaN
         13   -1    0    0    0    0  0.00000000000E+00  0.00000000000E+00  0.74505805969E-08  0.10566000000E+00  0.10566000000E+00 0.  1.
     999900   -1    0    0    0    0 -0.00000000000E+00 -0.00000000000E+00 -0.74505805969E-08  0.93827000000E+00  0.93827000000E+00 0. -1.
     999902    2    1    2    0    0  0.93832244883E-02 -0.89097128861E-02  0.62169345177E-02  0.10295745773E+01  0.10294744932E+01 0.  0.
         14    1    1    2    0    0 -0.93832244883E-02  0.89097128861E-02 -0.62169345177E-02  0.14355422680E-01  0.00000000000E+00 0.  1.
     999901    1    3    3    0    0  0.10627289656E+00 -0.49300275548E-01 -0.79716396056E-01  0.89133559870E+00  0.88000000000E+00 0. -1.
        -11    1    3    3    0    0 -0.83803725519E-01  0.27319272149E-01  0.61018955777E-01  0.10720532229E+00  0.51100000000E-03 0.  1.
         11    1    3    3    0    0 -0.13085946551E-01  0.13071290513E-01  0.24914374796E-01  0.31033656331E-01  0.51100000000E-03 0. -1.
</event>
<event>
 8    1  0.2929965E+004  0.1043930E+01  0.7957747E-01            NaN
         13   -1    0    0    0    0  0.00000000000E+00  0.00000000000E+00  0.74505805969E-08  0.10566000000E+00  0.10566000000E+00 0.  1.
     999900   -1    0    0    0    0 -0.00000000000E+00 -0.00000000000E+00 -0.74505805969E-08  0.93827000000E+00  0.93827000000E+00 0.  1.
     999902    2    1    2    0    0 -0.12494765389E-01 -0.53882608011E-02  0.34034707251E-02  0.10299037343E+01  0.10298082180E+01 0.  0.
     999903    2    3    3    0    0 -0.12521449277E+00 -0.30613892896E-01 -0.36631976621E-01  0.14145288788E+00  0.45289492592E-01 0.  0.
         14    1    1    2    0    0  0.12494765389E-01  0.53882608011E-02 -0.34034707251E-02  0.14026265703E-01  0.00000000000E+00 0.  1.
     999901    1    3    3    0    0  0.11271972738E+00  0.25225632095E-01  0.40035447346E-01  0.88845084642E+00  0.88000000000E+00 0. -1.
        -11    1    4    4    0    0 -0.78384266230E-01 -0.94828309185E-02 -0.10661568341E-02  0.78964644532E-01  0.51100000000E-03 0.  1.
         11    1    4    4    0    0 -0.46830226544E-01 -0.21131061978E-01 -0.35565819787E-01  0.62488243347E-01  0.51100000000E-03 0. -1.
</event>
<event>
 8    1  0.2929965E+004  0.1043930E+01  0.7957747E-01            NaN
         13   -1    0    0    0    0  0.00000000000E+00  0.00000000000E+00  0.74505805969E-08  0.10566000000E+00  0.10566000000E+00 0. -1.
     999900   -1    0    0    0    0 -0.00000000000E+00 -0.00000000000E+00 -0.74505805969E-08  0.93827000000E+00  0.93827000000E+00 0. -1.
     999902    2    1    2    0    0 -0.49762733844E-02 -0.11481635016E-01  0.39854311385E-03  0.10314100129E+01  0.10313340219E+01 0.  0.
     999903    2    3    3    0    0  0.84996664296E-01 -0.13937979394E-01  0.10186982235E+00  0.14101819826E+00  0.45716204169E-01 0.  0.
         14    1    1    2    0    0  0.49762733844E-02  0.11481635016E-01 -0.39854311385E-03  0.12519987063E-01  0.00000000000E+00 0. -1.
     999901    1    3    3    0    0 -0.89972937680E-01  0.24563443772E-02 -0.10147127923E+00  0.89039181468E+00  0.88000000000E+00 0. -1.
        -11    1    4    4    0    0  0.52651677607E-01  0.87111483936E-03  0.88556046737E-01  0.10303102703E+00  0.51100000000E-03 0. -1.
         11    1    4    4    0    0  0.32344986688E-01 -0.14809094233E-01  0.13313775608E-01  0.37987171227E-01  0.51100000000E-03 0.  1.
</event>
<event>
 8    1  0.2929965E+004  0.1043930E+01  0.7957747E-01            NaN
         13   -1    0    0    0    0  0.00000000000E+00  0.00000000000E+00  0.74505805969E-08  0.10566000000E+00  0.10566000000E+00 0.  1.
     999900   -1    0    0    0    0 -0.00000000000E+00 -0.00000000000E+00 -0.74505805969E-08  0.93827000000E+00  0.93827000000E+00 0. -1.
     999902    2    1    2    0    0 -0.71841684803E-02  0.93066259961E-02  0.62801666122E-02  0.10306008569E+01  0.10305146579E+01 0.  0.
     999903    2    3    3    0    0  0.47533804980E-01  0.12402606182E+00  0.17698117558E-01  0.14139616997E+00  0.45141188413E-01 0.  0.
         14    1    1    2    0    0  0.71841684803E-02 -0.93066259961E-02 -0.62801666122E-02  0.13329143141E-01  0.00000000000E+00 0. -1.
     999901    1    3    3    0    0 -0.54717973461E-01 -0.11471943583E+00 -0.11417950945E-01  0.88920468689E+00  0.88000000000E+00 0. -1.
        -11    1    4    4    0    0  0.45050170472E-01  0.59063830450E-01  0.10760379935E-02  0.74293155175E-01  0.51100000000E-03 0.  1.
         11    1    4    4    0    0  0.24836345080E-02  0.64962231371E-01  0.16622079564E-01  0.67103014799E-01  0.51100000000E-03 0. -1.
</event>
<event>
 8    1  0.2929965E+004  0.1043930E+01  0.7957747E-01            NaN
         13   -1    0    0    0    0  0.00000000000E+00  0.00000000000E+00  0.74505805969E-08  0.10566000000E+00  0.10566000000E+00 0.  1.
     999900   -1    0    0    0    0 -0.00000000000E+00 -0.00000000000E+00 -0.74505805969E-08  0.93827000000E+00  0.93827000000E+00 0. -1.
     999902    2    1    2    0    0  0.12280427617E-01 -0.11810740436E-01  0.11457464917E-01  0.10233976841E+01  0.10231916946E+01 0.  0.
     999903    2    3    3    0    0  0.69076058830E-01  0.10353264098E+00  0.20890795701E-01  0.13400529206E+00  0.45060884424E-01 0.  0.
         14    1    1    2    0    0 -0.12280427617E-01  0.11810740436E-01 -0.11457464917E-01  0.20532315856E-01  0.00000000000E+00 0. -1.
     999901    1    3    3    0    0 -0.56795631214E-01 -0.11534338141E+00 -0.94333307845E-02  0.88939239208E+00  0.88000000000E+00 0.  1.
        -11    1    4    4    0    0  0.60594267754E-01  0.74782358713E-01 -0.20215404263E-02  0.96272603611E-01  0.51100000000E-03 0. -1.
         11    1    4    4    0    0  0.84817910768E-02  0.28750282263E-01  0.22912336128E-01  0.37732688453E-01  0.51100000000E-03 0.  1.
</event>
<event>
 8    1  0.2929965E+004  0.1043930E+01  0.7957747E-01            NaN
         13   -1    0    0    0    0  0.00000000000E+00  0.00000000000E+00  0.74505805969E-08  0.10566000000E+00  0.10566000000E+00 0.  1.
     999900   -1    0    0    0    0 -0.00000000000E+00 -0.00000000000E+00 -0.74505805969E-08  0.93827000000E+00  0.93827000000E+00 0.  1.
     999902    2    1    2    0    0 -0.13791157568E-01  0.10732432006E-02  0.70424034729E-04  0.10300969657E+01  0.10300040805E+01 0.  0.
     999903    2    3    3    0    0 -0.50001980961E-02 -0.66020543705E-01  0.11479775417E+00  0.14007381012E+00  0.45369965263E-01 0.  0.
         14    1    1    2    0    0  0.13791157568E-01 -0.10732432006E-02 -0.70424034729E-04  0.13833034287E-01  0.00000000000E+00 0. -1.
     999901    1    3    3    0    0 -0.87909594722E-02  0.67093786905E-01 -0.11472733013E+00  0.89002315559E+00  0.88000000000E+00 0.  1.
        -11    1    4    4    0    0 -0.19581686828E-01 -0.39818979070E-01  0.92853227803E-01  0.10291247052E+00  0.51100000000E-03 0.  1.
         11    1    4    4    0    0  0.14581488732E-01 -0.26201564634E-01  0.21944526364E-01  0.37161339605E-01  0.51100000000E-03 0. -1.
</event>
<event>
 8    1  0.2929965E+004  0.1043930E+01  0.7957747E-01            NaN
         13   -1    0    0    0    0  0.00000000000E+00  0.00000000000E+00  0.74505805969E-08  0.10566000000E+00  0.10566000000E+00 0. -1.
     999900   -1    0    0    0    0 -0.00000000000E+00 -0.00000000000E+00 -0.74505805969E-08  0.93827000000E+00  0.93827000000E+00 0. -1.
     999902    2    1    2    0    0 -0.69852175989E-02 -0.51372246164E-02  0.11221720299E-01  0.10297486267E+01  0.10296509714E+01 0.  0.
     999903    2    3    3    0    0 -0.12417554733E+00  0.22966691399E-01  0.31397527384E-01  0.14130590675E+00  0.55086469199E-01 0.  0.
         14    1    1    2    0    0  0.69852175989E-02  0.51372246164E-02 -0.11221720299E-01  0.14181373281E-01  0.00000000000E+00 0.  1.
     999901    1    3    3    0    0  0.11719032973E+00 -0.28103916015E-01 -0.20175807086E-01  0.88844271997E+00  0.88000000000E+00 0. -1.
        -11    1    4    4    0    0 -0.16429315195E-02 -0.53866587080E-02 -0.77402521894E-02  0.95858197860E-02  0.51100000000E-03 0.  1.
         11    1    4    4    0    0 -0.12253261581E+00  0.28353350107E-01  0.39137779574E-01  0.13172008696E+00  0.51100000000E-03 0. -1.
</event>
<event>
 8    1  0.2929965E+004  0.1043930E+01  0.7957747E-01            NaN
         13   -1    0    0    0    0  0.00000000000E+00  0.00000000000E+00  0.74505805969E-08  0.10566000000E+00  0.10566000000E+00 0. -1.
     999900   -1    0    0    0    0 -0.00000000000E+00 -0.00000000000E+00 -0.74505805969E-08  0.93827000000E+00  0.93827000000E+00 0.  1.
     999902    2    1    2    0    0 -0.11933851009E-01 -0.16469202116E-01  0.35633233552E-02  0.10232817872E+01  0.10230734418E+01 0.  0.
     999903    2    3    3    0    0  0.12455022983E+00 -0.12383318597E-02  0.23158776020E-01  0.13241486926E+00  0.38510718989E-01 0.  0.
         14    1    1    2    0    0  0.11933851009E-01  0.16469202116E-01 -0.35633233552E-02  0.20648212794E-01  0.00000000000E+00 0.  1.
     999901    1    3    3    0    0 -0.13648408084E+00 -0.15230870256E-01 -0.19595452665E-01  0.89086691795E+00  0.88000000000E+00 0.  1.
        -11    1    4    4    0    0  0.41489005850E-01  0.16699502610E-01  0.16480924431E-02  0.44756991895E-01  0.51100000000E-03 0.  1.
         11    1    4    4    0    0  0.83061223981E-01 -0.17937834470E-01  0.21510683577E-01  0.87657877362E-01  0.51100000000E-03 0. -1.
</event>
<event>
 8    1  0.2929965E+004  0.1043930E+01  0.7957747E-01            NaN
         13   -1    0    0    0    0  0.00000000000E+00  0.00000000000E+00  0.74505805969E-08  0.10566000000E+00  0.10566000000E+00 0.  1.
     999900   -1    0    0    0    0 -0.00000000000E+00 -0.00000000000E+00 -0.74505805969E-08  0.93827000000E+00  0.93827000000E+00 0. -1.
     999902    2    1    2    0    0 -0.11407714642E-01 -0.62088266405E-02 -0.65082981373E-02  0.10294026662E+01  0.10293001534E+01 0.  0.
     999903    2    3    3    0    0 -0.22899736520E-01 -0.13018096791E+00 -0.18411637361E-01  0.14055912103E+00  0.44117975660E-01 0.  0.
         14    1    1    2    0    0  0.11407714642E-01  0.62088266405E-02  0.65082981373E-02  0.14527333763E-01  0.00000000000E+00 0. -1.
     999901    1    3    3    0    0  0.11492021878E-01  0.12397214126E+00  0.11903339223E-01  0.88884354521E+00  0.88000000000E+00 0.  1.
        -11    1    4    4    0    0  0.50021929491E-02 -0.86051212749E-01 -0.35456215501E-02  0.86270885604E-01  0.51100000000E-03 0.  1.
         11    1    4    4    0    0 -0.27901929469E-01 -0.44129755157E-01 -0.14866015811E-01  0.54288235423E-01  0.51100000000E-03 0. -1.
</event>
<event>
 8    1  0.2929965E+004  0.1043930E+01  0.7957747E-01            NaN
         13   -1    0    0    0    0  0.00000000000E+00  0.00000000000E+00  0.74505805969E-08  0.10566000000E+00  0.10566000000E+00 0.  1.
     999900   -1    0    0    0    0 -0.00000000000E+00 -0.00000000000E+00 -0.74505805969E-08  0.93827000000E+00  0.93827000000E+00 0.  1.
     999902    2    1    2    0    0  0.45047205300E-02  0.13608240465E-01  0.13990580479E-02  0.10295274280E+01  0.10294266807E+01 0.  0.
     999903    2    3    3    0    0 -0.12197444605E-01 -0.93027489728E-01  0.91563273819E-01  0.13835980796E+00  0.44234735746E-01 0.  0.
         14    1    1    2    0    0 -0.45047205300E-02 -0.13608240465E-01 -0.13990580479E-02  0.14402571959E-01  0.00000000000E+00 0.  1.
     999901    1    3    3    0    0  0.16702165135E-01  0.10663573019E+00 -0.90164215771E-01  0.89116762008E+00  0.88000000000E+00 0.  1.
        -11    1    4    4    0    0 -0.27977331240E-01 -0.57699916866E-01  0.48060791637E-01  0.80138082604E-01  0.51100000000E-03 0.  1.
         11    1    4    4    0    0  0.15779886635E-01 -0.35327572861E-01  0.43502482182E-01  0.58221725356E-01  0.51100000000E-03 0. -1.
</event>
<event>
 8    1  0.2929965E+004  0.1043930E+01  0.7957747E-01            NaN
         13   -1    0    0    0    0  0.00000000000E+00  0.00000000000E+00  0.74505805969E-08  0.10566000000E+00  0.10566000000E+00 0. -1.
     999900   -1    0    0    0    0 -0.00000000000E+00 -0.00000000000E+00 -0.74505805969E-08  0.93827000000E+00  0.93827000000E+00 0.  1.
     999902    2    1    2    0    0 -0.40930788281E-02 -0.95962015146E-02 -0.93473136498E-02  0.10299224074E+01  0.10298271470E+01 0.  0.
     999903    2    3    3    0    0  0.11224197215E+00 -0.54882483886E-01  0.48792110243E-01  0.13921208184E+00  0.37269107295E-01 0.  0.
         14    1    1    2    0    0  0.40930788281E-02  0.95962015146E-02  0.93473136498E-02  0.14007592594E-01  0.00000000000E+00 0. -1.
     999901    1    3    3    0    0 -0.11633505098E+00  0.45286282372E-01 -0.58139423893E-01  0.89071032557E+00  0.88000000000E+00 0.  1.
        -11    1    4    4    0    0  0.98113610442E-01 -0.44643427611E-01  0.26692202555E-01  0.11104976804E+00  0.51100000000E-03 0.  1.
         11    1    4    4    0    0  0.14128361709E-01 -0.10239056276E-01  0.22099907687E-01  0.28162313804E-01  0.51100000000E-03 0. -1.
</event>
<event>
 8    1  0.2929965E+004  0.1043930E+01  0.7957747E-01            NaN
         13   -1    0    0    0    0  0.00000000000E+00  0.00000000000E+00  0.74505805969E-08  0.10566000000E+00  0.10566000000E+00 0. -1.
     999900   -1    0    0    0    0 -0.00000000000E+00 -0.00000000000E+00 -0.74505805969E-08  0.93827000000E+00  0.93827000000E+00 0. -1.
     999902    2    1    2    0    0 -0.46544353953E-02  0.82048092290E-02 -0.95013647217E-02  0.10305412512E+01  0.10304542745E+01 0.  0.
     999903    2    3    3    0    0  0.48723088444E-03 -0.12832871985E+00 -0.29719227176E-01  0.13976821429E+00  0.46727117690E-01 0.  0.
         14    1    1    2    0    0  0.46544353953E-02 -0.82048092290E-02  0.95013647217E-02  0.13388748818E-01  0.00000000000E+00 0. -1.
     999901    1    3    3    0    0 -0.51416662797E-02  0.13653352908E+00  0.20217862455E-01  0.89077303689E+00  0.88000000000E+00 0. -1.
        -11    1    4    4    0    0 -0.14556168414E-02 -0.55051830258E-01  0.10634055074E-01  0.56090704073E-01  0.51100000000E-03 0.  1.
         11    1    4    4    0    0  0.19428477259E-02 -0.73276889597E-01 -0.40353282250E-01  0.83677510214E-01  0.51100000000E-03 0. -1.
</event>
<event>
 8    1  0.2929965E+004  0.1043930E+01  0.7957747E-01            NaN
         13   -1    0    0    0    0  0.00000000000E+00  0.00000000000E+00  0.74505805969E-08  0.10566000000E+00  0.10566000000E+00 0.  1.
     999900   -1    0    0    0    0 -0.00000000000E+00 -0.00000000000E+00 -0.74505805969E-08  0.93827000000E+00  0.93827000000E+00 0.  1.
     999902    2    1    2    0    0 -0.77320218325E-04  0.89827288049E-02  0.10709976278E-01  0.10299514812E+01  0.10298566185E+01 0.  0.
     999903    2    3    3    0    0  0.71247437645E-01 -0.11014439240E+00  0.10457021830E-01  0.13906509337E+00  0.44964056079E-01 0.  0.
         14    1    1    2    0    0  0.77320218325E-04 -0.89827288049E-02 -0.10709976278E-01  0.13978518773E-01  0.00000000000E+00 0. -1.
     999901    1    3    3    0    0 -0.71324757863E-01  0.11912712121E+00  0.25295444809E-03  0.89088638786E+00  0.88000000000E+00 0.  1.
        -11    1    4    4    0    0  0.33982751265E-01 -0.26265785658E-01  0.18828667794E-01  0.46898813756E-01  0.51100000000E-03 0.  1.
         11    1    4    4    0    0  0.37264686380E-01 -0.83878606743E-01 -0.83716459643E-02  0.92166279610E-01  0.51100000000E-03 0. -1.
</event>
<event>
 8    1  0.2929965E+004  0.1043930E+01  0.7957747E-01            NaN
         13   -1    0    0    0    0  0.00000000000E+00  0.00000000000E+00  0.74505805969E-08  0.10566000000E+00  0.10566000000E+00 0. -1.
     999900   -1    0    0    0    0 -0.00000000000E+00 -0.00000000000E+00 -0.74505805969E-08  0.93827000000E+00  0.93827000000E+00 0.  1.
     999902    2    1    2    0    0  0.11559577161E-01 -0.10986918532E-02  0.80181871269E-02  0.10298189308E+01  0.10297222480E+01 0.  0.
     999903    2    3    3    0    0 -0.12931665506E+00  0.17679719334E-01  0.16048837813E-01  0.13838007546E+00  0.43082599015E-01 0.  0.
         14    1    1    2    0    0 -0.11559577161E-01  0.10986918532E-02 -0.80181871269E-02  0.14111069156E-01  0.00000000000E+00 0.  1.
     999901    1    3    3    0    0  0.14087623222E+00 -0.18778411187E-01 -0.80306506864E-02  0.89143885538E+00  0.88000000000E+00 0.  1.
        -11    1    4    4    0    0 -0.63437508027E-01  0.23394158238E-01  0.24058621790E-01  0.71768255293E-01  0.51100000000E-03 0.  1.
         11    1    4    4    0    0 -0.65879147035E-01 -0.57144389040E-02 -0.80097839771E-02  0.66611820170E-01  0.51100000000E-03 0. -1.
</event>
<event>
 8    1  0.2929965E+004  0.1043930E+01  0.7957747E-01            NaN
         13   -1    0    0    0    0  0.00000000000E+00  0.00000000000E+00  0.74505805969E-08  0.10566000000E+00  0.10566000000E+00 0.  1.
     999900   -1    0    0    0    0 -0.00000000000E+00 -0.00000000000E+00 -0.74505805969E-08  0.93827000000E+00  0.93827000000E+00 0. -1.
     999902    2    1    2    0    0 -0.10946921852E-01 -0.80742384203E-02  0.60016886737E-03  0.10303142508E+01  0.10302242798E+01 0.  0.
     999903    2    3    3    0    0  0.54508789854E-01  0.11486538330E+00 -0.33340242489E-01  0.13871425510E+00  0.44326158701E-01 0.  0.
         14    1    1    2    0    0  0.10946921852E-01  0.80742384203E-02 -0.60016886737E-03  0.13615749218E-01  0.00000000000E+00 0. -1.
     999901    1    3    3    0    0 -0.65455711706E-01 -0.12293962172E+00  0.33940411356E-01  0.89159999569E+00  0.88000000000E+00 0.  1.
        -11    1    4    4    0    0  0.36002360851E-01  0.33943551878E-01 -0.24547028191E-01  0.55237237575E-01  0.51100000000E-03 0.  1.
         11    1    4    4    0    0  0.18506429003E-01  0.80921831424E-01 -0.87932142975E-02  0.83477017521E-01  0.51100000000E-03 0. -1.
</event>
<event>
 8    1  0.2929965E+004  0.1043930E+01  0.7957747E-01            NaN
         13   -1    0    0    0    0  0.00000000000E+00  0.00000000000E+00  0.74505805969E-08  0.10566000000E+00  0.10566000000E+00 0. -1.
     999900   -1    0    0    0    0 -0.00000000000E+00 -0.00000000000E+00 -0.74505805969E-08  0.93827000000E+00  0.93827000000E+00 0.  1.
     999902    2    1    2    0    0  0.21360597666E-02 -0.89917325201E-02 -0.10545857112E-01  0.10299075499E+01  0.10298120859E+01 0.  0.
     999903    2    3    3    0    0 -0.11362347495E+00  0.85730559245E-02  0.64737658009E-01  0.13896625029E+00  0.46226215593E-01 0.  0.
         14    1    1    2    0    0 -0.21360597666E-02  0.89917325201E-02  0.10545857112E-01  0.14022450116E-01  0.00000000000E+00 0. -1.
     999901    1    3    3    0    0  0.11575953472E+00 -0.17564788445E-01 -0.75283515121E-01  0.89094129959E+00  0.88000000000E+00 0.  1.
        -11    1    4    4    0    0 -0.48629316062E-01  0.22872350191E-01  0.14738967233E-01  0.55726592037E-01  0.51100000000E-03 0.  1.
         11    1    4    4    0    0 -0.64994158886E-01 -0.14299294267E-01  0.49998690776E-01  0.83239658254E-01  0.51100000000E-03 0. -1.
</event>
<event>
 8    1  0.2929965E+004  0.1043930E+01  0.7957747E-01            NaN
         13   -1    0    0    0    0  0.00000000000E+00  0.00000000000E+00  0.74505805969E-08  0.10566000000E+00  0.10566000000E+00 0.  1.
     999900   -1    0    0    0    0 -0.00000000000E+00 -0.00000000000E+00 -0.74505805969E-08  0.93827000000E+00  0.93827000000E+00 0.  1.
     999902    2    1    2    0    0 -0.10960919134E-01 -0.75340527631E-02 -0.60693647932E-03  0.10306156442E+01  0.10305296376E+01 0.  0.
     999903    2    3    3    0    0  0.85450172809E-01  0.43831555264E-01 -0.91076878120E-01  0.13925806459E+00  0.43299810098E-01 0.  0.
         14    1    1    2    0    0  0.10960919134E-01  0.75340527631E-02  0.60693647932E-03  0.13314355831E-01  0.00000000000E+00 0.  1.
     999901    1    3    3    0    0 -0.96411091943E-01 -0.51365608027E-01  0.90469941641E-01  0.89135757958E+00  0.88000000000E+00 0. -1.
        -11    1    4    4    0    0  0.69462981328E-01  0.31051885494E-01 -0.91214227234E-01  0.11878392879E+00  0.51100000000E-03 0. -1.
         11    1    4    4    0    0  0.15987191481E-01  0.12779669770E-01  0.13734911452E-03  0.20474135798E-01  0.51100000000E-03 0.  1.
</event>
<event>
 8    1  0.2929965E+004  0.1043930E+01  0.7957747E-01            NaN
         13   -1    0    0    0    0  0.00000000000E+00  0.00000000000E+00  0.74505805969E-08  0.10566000000E+00  0.10566000000E+00 0. -1.
     999900   -1    0    0    0    0 -0.00000000000E+00 -0.00000000000E+00 -0.74505805969E-08  0.93827000000E+00  0.93827000000E+00 0. -1.
     999902    2    1    2    0    0 -0.86893758675E-02 -0.33194431252E-02 -0.10650415835E-01  0.10297894444E+01  0.10296923543E+01 0.  0.
     999903    2    3    3    0    0  0.12177421401E+00 -0.30613241990E-01 -0.41399718548E-01  0.13922152482E+00  0.43618419202E-01 0.  0.
         14    1    1    2    0    0  0.86893758675E-02  0.33194431252E-02  0.10650415835E-01  0.14140555614E-01  0.00000000000E+00 0. -1.
     999901    1    3    3    0    0 -0.13046358988E+00  0.27293798865E-01  0.30749302713E-01  0.89056791957E+00  0.88000000000E+00 0.  1.
        -11    1    4    4    0    0  0.84796746936E-01 -0.32506596107E-01 -0.46184173862E-01  0.10188427807E+00  0.51100000000E-03 0.  1.
         11    1    4    4    0    0  0.36977467078E-01  0.18933541167E-02  0.47844553144E-02  0.37337246751E-01  0.51100000000E-03 0. -1.
</event>
<event>
 8    1  0.2929965E+004  0.1043930E+01  0.7957747E-01            NaN
         13   -1    0    0    0    0  0.00000000000E+00  0.00000000000E+00  0.74505805969E-08  0.10566000000E+00  0.10566000000E+00 0. -1.
     999900   -1    0    0    0    0 -0.00000000000E+00 -0.00000000000E+00 -0.74505805969E-08  0.93827000000E+00  0.93827000000E+00 0. -1.
     999902    2    1    2    0    0  0.12565031049E-01  0.32756968598E-02 -0.50684411266E-02  0.10299908720E+01  0.10298965468E+01 0.  0.
     999903    2    3    3    0    0 -0.64560139614E-01 -0.89656236575E-01  0.70721380555E-01  0.13851527876E+00  0.44482765172E-01 0.  0.
         14    1    1    2    0    0 -0.12565031049E-01 -0.32756968598E-02  0.50684411266E-02  0.13939128044E-01  0.00000000000E+00 0. -1.
     999901    1    3    3    0    0  0.77125170663E-01  0.92931933435E-01 -0.75789821681E-01  0.89147559320E+00  0.88000000000E+00 0. -1.
        -11    1    4    4    0    0 -0.39623947135E-01 -0.70209590965E-01  0.27965314252E-01  0.85333251270E-01  0.51100000000E-03 0.  1.
         11    1    4    4    0    0 -0.24936192479E-01 -0.19446645610E-01  0.42756066303E-01  0.53182027486E-01  0.51100000000E-03 0. -1.
</event>
<event>
 8    1  0.2929965E+004  0.1043930E+01  0.7957747E-01            NaN
         13   -1    0    0    0    0  0.00000000000E+00  0.00000000000E+00  0.74505805969E-08  0.10566000000E+00  0.10566000000E+00 0.  1.
     999900   -1    0    0    0    0 -0.00000000000E+00 -0.00000000000E+00 -0.74505805969E-08  0.93827000000E+00  0.93827000000E+00 0. -1.
     999902    2    1    2    0    0 -0.61967980453E-02 -0.56903494114E-02  0.10776626954E-01  0.10302582748E+01  0.10301675576E+01 0.  0.
     999903    2    3    3    0    0  0.74807296781E-01 -0.38320346288E-01 -0.10094434350E+00  0.13890651742E+00  0.45173880806E-01 0.  0.
         14    1    1    2    0    0  0.61967980453E-02  0.56903494114E-02 -0.10776626954E-01  0.13671725237E-01  0.00000000000E+00 0. -1.
     999901    1    3    3    0    0 -0.81004094827E-01  0.32629996877E-01  0.11172097045E+00  0.89135175734E+00  0.88000000000E+00 0. -1.
        -11    1    4    4    0    0  0.76645788426E-02 -0.25856337500E-01 -0.32237296618E-01  0.42033324541E-01  0.51100000000E-03 0. -1.
         11    1    4    4    0    0  0.67142717939E-01 -0.12464008789E-01 -0.68707046879E-01  0.96873192882E-01  0.51100000000E-03 0.  1.
</event>
<event>
 8    1  0.2929965E+004  0.1043930E+01  0.7957747E-01            NaN
         13   -1    0    0    0    0  0.00000000000E+00  0.00000000000E+00  0.74505805969E-08  0.10566000000E+00  0.10566000000E+00 0.  1.
     999900   -1    0    0    0    0 -0.00000000000E+00 -0.00000000000E+00 -0.74505805969E-08  0.93827000000E+00  0.93827000000E+00 0.  1.
     999902    2    1    2    0    0  0.82806459756E-02  0.10410918098E-01 -0.57834542590E-02  0.10294246680E+01  0.10293224677E+01 0.  0.
     999903    2    3    3    0    0  0.24688502987E-01  0.10245455160E+00  0.80672643984E-01  0.14025882004E+00  0.45365226654E-01 0.  0.
         14    1    1    2    0    0 -0.82806459756E-02 -0.10410918098E-01  0.57834542590E-02  0.14505332006E-01  0.00000000000E+00 0.  1.
     999901    1    3    3    0    0 -0.16407857011E-01 -0.92043633501E-01 -0.86456098243E-01  0.88916584795E+00  0.88000000000E+00 0. -1.
        -11    1    4    4    0    0 -0.11200211740E-01  0.47071672560E-01  0.28744295935E-01  0.56282170982E-01  0.51100000000E-03 0.  1.
         11    1    4    4    0    0  0.35888714727E-01  0.55382879039E-01  0.51928348049E-01  0.83976649061E-01  0.51100000000E-03 0. -1.
</event>
<event>
 8    1  0.2929965E+004  0.1043930E+01  0.7957747E-01            NaN
         13   -1    0    0    0    0  0.00000000000E+00  0.00000000000E+00  0.74505805969E-08  0.10566000000E+00  0.10566000000E+00 0. -1.
     999900   -1    0    0    0    0 -0.00000000000E+00 -0.00000000000E+00 -0.74505805969E-08  0.93827000000E+00  0.93827000000E+00 0.  1.
     999902    2    1    2    0    0 -0.46962588402E-03  0.27890372749E-02  0.16131695977E-01  0.10275522440E+01  0.10274217163E+01 0.  0.
     999903    2    3    3    0    0  0.14003868124E-02 -0.29767465550E-01 -0.12415183123E+00  0.13584439337E+00  0.46389211296E-01 0.  0.
         14    1    1    2    0    0  0.46962588402E-03 -0.27890372749E-02 -0.16131695977E-01  0.16377756027E-01  0.00000000000E+00 0.  1.
     999901    1    3    3    0    0 -0.18700126965E-02  0.32556502825E-01  0.14028352720E+00  0.89170785060E+00  0.88000000000E+00 0. -1.
        -11    1    4    4    0    0 -0.26102281134E-02  0.12292807193E-01 -0.34861348524E-01  0.37060776319E-01  0.51100000000E-03 0.  1.
         11    1    4    4    0    0  0.40106149258E-02 -0.42060272743E-01 -0.89290482702E-01  0.98783617050E-01  0.51100000000E-03 0. -1.
</event>
<event>
 8    1  0.2929965E+004  0.1043930E+01  0.7957747E-01            NaN
         13   -1    0    0    0    0  0.00000000000E+00  0.00000000000E+00  0.74505805969E-08  0.10566000000E+00  0.10566000000E+00 0. -1.
     999900   -1    0    0    0    0 -0.00000000000E+00 -0.00000000000E+00 -0.74505805969E-08  0.93827000000E+00  0.93827000000E+00 0. -1.
     999902    2    1    2    0    0  0.37647240948E-02  0.12245901323E-01  0.41327089529E-02  0.10304684054E+01  0.10303804734E+01 0.  0.
     999903    2    3    3    0    0 -0.11277347797E+00  0.91009104937E-02  0.69831306752E-01  0.14035192464E+00  0.44961844289E-01 0.  0.
         14    1    1    2    0    0 -0.37647240948E-02 -0.12245901323E-01 -0.41327089529E-02  0.13461594631E-01  0.00000000000E+00 0.  1.
     999901    1    3    3    0    0  0.11653820207E+00  0.31449908291E-02 -0.65698597799E-01  0.89011648073E+00  0.88000000000E+00 0.  1.
        -11    1    4    4    0    0 -0.38362982046E-01  0.20836815464E-01  0.11704173516E-01  0.45201106942E-01  0.51100000000E-03 0. -1.
         11    1    4    4    0    0 -0.74410495928E-01 -0.11735904970E-01  0.58127133236E-01  0.95150817700E-01  0.51100000000E-03 0.  1.
</event>
<event>
 8    1  0.2929965E+004  0.1043930E+01  0.7957747E-01            NaN
         13   -1    0    0    0    0  0.00000000000E+00  0.00000000000E+00  0.74505805969E-08  0.10566000000E+00  0.10566000000E+00 0. -1.
     999900   -1    0    0    0    0 -0.00000000000E+00 -0.00000000000E+00 -0.74505805969E-08  0.93827000000E+00  0.93827000000E+00 0.  1.
     999902    2    1    2    0    0  0.32098750673E-02 -0.10631614665E-01  0.81239098888E-02  0.10301701875E+01  0.10300782896E+01 0.  0.
     999903    2    3    3    0    0  0.76128486940E-01 -0.11061276936E+00 -0.13949590174E-02  0.14146103140E+00  0.44480852362E-01 0.  0.
         14    1    1    2    0    0 -0.32098750673E-02  0.10631614665E-01 -0.81239098888E-02  0.13759812507E-01  0.00000000000E+00 0.  1.
     999901    1    3    3    0    0 -0.72918611872E-01  0.99981154692E-01  0.95188689063E-02  0.88870915609E+00  0.88000000000E+00 0.  1.
        -11    1    4    4    0    0  0.67867246437E-01 -0.65679400634E-01 -0.99816976340E-02  0.94971796946E-01  0.51100000000E-03 0.  1.
         11    1    4    4    0    0  0.82612405029E-02 -0.44933368723E-01  0.85867386165E-02  0.46489234458E-01  0.51100000000E-03 0. -1.
</event>
<event>
 8    1  0.2929965E+004  0.1043930E+01  0.7957747E-01            NaN
         13   -1    0    0    0    0  0.00000000000E+00  0.00000000000E+00  0.74505805969E-08  0.10566000000E+00  0.10566000000E+00 0. -1.
     999900   -1    0    0    0    0 -0.00000000000E+00 -0.00000000000E+00 -0.74505805969E-08  0.93827000000E+00  0.93827000000E+00 0.  1.
     999902    2    1    2    0    0  0.99797731351E-02 -0.29699034987E-02 -0.89531329656E-02  0.10301977464E+01  0.10301062188E+01 0.  0.
     999903    2    3    3    0    0  0.12648464225E+00 -0.25377820700E-01  0.34866194180E-01  0.14115577175E+00  0.45463192752E-01 0.  0.
         14    1    1    2    0    0 -0.99797731351E-02  0.29699034987E-02  0.89531329656E-02  0.13732253585E-01  0.00000000000E+00 0. -1.
     999901    1    3    3    0    0 -0.11650486911E+00  0.22407917201E-01 -0.43819327146E-01  0.88904197466E+00  0.88000000000E+00 0.  1.
        -11    1    4    4    0    0  0.75855580044E-01  0.29705230416E-02  0.54835283568E-02  0.76113226414E-01  0.51100000000E-03 0.  1.
         11    1    4    4    0    0  0.50629062202E-01 -0.28348343742E-01  0.29382665823E-01  0.65042545339E-01  0.51100000000E-03 0. -1.
</event>
<event>
 8    1  0.2929965E+004  0.1043930E+01  0.7957747E-01            NaN
         13   -1    0    0    0    0  0.00000000000E+00  0.00000000000E+00  0.74505805969E-08  0.10566000000E+00  0.10566000000E+00 0. -1.
     999900   -1    0    0    0    0 -0.00000000000E+00 -0.00000000000E+00 -0.74505805969E-08  0.93827000000E+00  0.93827000000E+00 0. -1.
     999902    2    1    2    0    0 -0.93866446078E-02  0.15761841869E-02 -0.10360295231E-01  0.10298612697E+01  0.10297651702E+01 0.  0.
     999903    2    3    3    0    0  0.10077311438E+00  0.73965836002E-01 -0.42206389414E-01  0.13947393386E+00  0.45226468377E-01 0.  0.
         14    1    1    2    0    0  0.93866446078E-02 -0.15761841869E-02  0.10360295231E-01  0.14068730250E-01  0.00000000000E+00 0. -1.
     999901    1    3    3    0    0 -0.11015975899E+00 -0.72389651815E-01  0.31846094183E-01  0.89038733589E+00  0.88000000000E+00 0.  1.
        -11    1    4    4    0    0  0.28801835035E-01  0.83580846388E-02 -0.28041458826E-01  0.41060781949E-01  0.51100000000E-03 0.  1.
         11    1    4    4    0    0  0.71971279349E-01  0.65607751364E-01 -0.14164930588E-01  0.98413151915E-01  0.51100000000E-03 0. -1.
</event>
<event>
 8    1  0.2929965E+004  0.1043930E+01  0.7957747E-01            NaN
         13   -1    0    0    0    0  0.00000000000E+00  0.00000000000E+00  0.74505805969E-08  0.10566000000E+00  0.10566000000E+00 0.  1.
     999900   -1    0    0    0    0 -0.00000000000E+00 -0.00000000000E+00 -0.74505805969E-08  0.93827000000E+00  0.93827000000E+00 0. -1.
     999902    2    1    2    0    0 -0.24855390180E-02 -0.11911188031E-02 -0.13038096775E-01  0.10306037614E+01  0.10305176002E+01 0.  0.
     999903    2    3    3    0    0 -0.60877793755E-02  0.67278733518E-01 -0.11660154478E+00  0.14188193506E+00  0.44396781522E-01 0.  0.
         14    1    1    2    0    0  0.24855390180E-02  0.11911188031E-02  0.13038096775E-01  0.13326238619E-01  0.00000000000E+00 0.  1.
     999901    1    3    3    0    0  0.36022403576E-02 -0.68469852321E-01  0.10356344801E+00  0.88872182632E+00  0.88000000000E+00 0.  1.
        -11    1    4    4    0    0 -0.14059573907E-01  0.14175858448E-01 -0.62666010267E-01  0.65771700183E-01  0.51100000000E-03 0.  1.
         11    1    4    4    0    0  0.79717945319E-02  0.53102875070E-01 -0.53935534517E-01  0.76110234879E-01  0.51100000000E-03 0. -1.
</event>
<event>
 8    1  0.2929965E+004  0.1043930E+01  0.7957747E-01            NaN
         13   -1    0    0    0    0  0.00000000000E+00  0.00000000000E+00  0.74505805969E-08  0.10566000000E+00  0.10566000000E+00 0. -1.
     999900   -1    0    0    0    0 -0.00000000000E+00 -0.00000000000E+00 -0.74505805969E-08  0.93827000000E+00  0.93827000000E+00 0. -1.
     999902    2    1    2    0    0  0.73813675577E-02 -0.79132879891E-02 -0.77564121135E-02  0.10306158480E+01  0.10305298441E+01 0.  0.
     999903    2    3    3    0    0 -0.55973593351E-01  0.18928328677E-01  0.11754679739E+00  0.13908053310E+00  0.45108982833E-01 0.  0.
         14    1    1    2    0    0 -0.73813675577E-02  0.79132879891E-02  0.77564121135E-02  0.13314151971E-01  0.00000000000E+00 0. -1.
     999901    1    3    3    0    0  0.63354960909E-01 -0.26841616666E-01 -0.12530320950E+00  0.89153531493E+00  0.88000000000E+00 0. -1.
        -11    1    4    4    0    0 -0.87234130316E-02 -0.95190323545E-02  0.51182859732E-01  0.52788788234E-01  0.51100000000E-03 0.  1.
         11    1    4    4    0    0 -0.47250180320E-01  0.28447361032E-01  0.66363937655E-01  0.86291744865E-01  0.51100000000E-03 0. -1.
</event>
<event>
 8    1  0.2929965E+004  0.1043930E+01  0.7957747E-01            NaN
         13   -1    0    0    0    0  0.00000000000E+00  0.00000000000E+00  0.74505805969E-08  0.10566000000E+00  0.10566000000E+00 0.  1.
     999900   -1    0    0    0    0 -0.00000000000E+00 -0.00000000000E+00 -0.74505805969E-08  0.93827000000E+00  0.93827000000E+00 0. -1.
     999902    2    1    2    0    0  0.62797231088E-02  0.91129666817E-02 -0.51965491733E-02  0.10317035857E+01  0.10316311373E+01 0.  0.
     999903    2    3    3    0    0  0.73551775547E-01 -0.15171164030E-01 -0.11224398733E+00  0.14233616887E+00  0.44953802659E-01 0.  0.
         14    1    1    2    0    0 -0.62797231088E-02 -0.91129666817E-02  0.51965491733E-02  0.12226414330E-01  0.00000000000E+00 0.  1.
     999901    1    3    3    0    0 -0.67272052438E-01  0.24284130712E-01  0.10704743816E+00  0.88936741680E+00  0.88000000000E+00 0.  1.
        -11    1    4    4    0    0  0.26966333646E-01 -0.15388558936E-01 -0.79618508572E-01  0.85459691813E-01  0.51100000000E-03 0.  1.
         11    1    4    4    0    0  0.46585441900E-01  0.21739490529E-03 -0.32625478758E-01  0.56876477060E-01  0.51100000000E-03 0. -1.
</event>
<event>
 8    1  0.2929965E+004  0.1043930E+01  0.7957747E-01            NaN
         13   -1    0    0    0    0  0.00000000000E+00  0.00000000000E+00  0.74505805969E-08  0.10566000000E+00  0.10566000000E+00 0.  1.
     999900   -1    0    0    0    0 -0.00000000000E+00 -0.00000000000E+00 -0.74505805969E-08  0.93827000000E+00  0.93827000000E+00 0. -1.
     999902    2    1    2    0    0  0.12244804568E-01  0.58510836791E-02 -0.32629959830E-02  0.10299722938E+01  0.10298777153E+01 0.  0.
     999903    2    3    3    0    0 -0.35318515149E-01  0.59882911415E-01 -0.11345766739E+00  0.14018323263E+00  0.44105961390E-01 0.  0.
         14    1    1    2    0    0 -0.12244804568E-01 -0.58510836791E-02  0.32629959830E-02  0.13957706184E-01  0.00000000000E+00 0. -1.
     999901    1    3    3    0    0  0.47563319717E-01 -0.54031827736E-01  0.11019467141E+00  0.88978906118E+00  0.88000000000E+00 0.  1.
        -11    1    4    4    0    0 -0.33519258710E-01  0.13986751056E-01 -0.47150303161E-01  0.59519594410E-01  0.51100000000E-03 0.  1.
         11    1    4    4    0    0 -0.17992564391E-02  0.45896160360E-01 -0.66307364230E-01  0.80663638225E-01  0.51100000000E-03 0. -1.
</event>
<event>
 8    1  0.2929965E+004  0.1043930E+01  0.7957747E-01            NaN
         13   -1    0    0    0    0  0.00000000000E+00  0.00000000000E+00  0.74505805969E-08  0.10566000000E+00  0.10566000000E+00 0.  1.
     999900   -1    0    0    0    0 -0.00000000000E+00 -0.00000000000E+00 -0.74505805969E-08  0.93827000000E+00  0.93827000000E+00 0. -1.
     999902    2    1    2    0    0 -0.36831257351E-02  0.78244244259E-02 -0.11004596633E-01  0.10299339941E+01  0.10298388923E+01 0.  0.
     999903    2    3    3    0    0 -0.81707536659E-01 -0.61286823353E-01  0.82833044317E-01  0.13882812158E+00  0.44494245091E-01 0.  0.
         14    1    1    2    0    0  0.36831257351E-02 -0.78244244259E-02  0.11004596633E-01  0.13996005853E-01  0.00000000000E+00 0.  1.
     999901    1    3    3    0    0  0.78024410924E-01  0.69111247779E-01 -0.93837640950E-01  0.89110587257E+00  0.88000000000E+00 0. -1.
        -11    1    4    4    0    0 -0.26425660012E-01 -0.47424271990E-01  0.43645038843E-01  0.69660086257E-01  0.51100000000E-03 0.  1.
         11    1    4    4    0    0 -0.55281876648E-01 -0.13862551363E-01  0.39188005474E-01  0.69168035320E-01  0.51100000000E-03 0. -1.
</event>
<event>
 8    1  0.2929965E+004  0.1043930E+01  0.7957747E-01            NaN
         13   -1    0    0    0    0  0.00000000000E+00  0.00000000000E+00  0.74505805969E-08  0.10566000000E+00  0.10566000000E+00 0.  1.
     999900   -1    0    0    0    0 -0.00000000000E+00 -0.00000000000E+00 -0.74505805969E-08  0.93827000000E+00  0.93827000000E+00 0. -1.
     999902    2    1    2    0    0 -0.81244650879E-03 -0.11345169437E-02  0.15075151577E-01  0.10287904031E+01  0.10286790006E+01 0.  0.
     999903    2    3    3    0    0  0.18596798549E-02  0.70867427668E-01  0.11268710681E+00  0.14046641152E+00  0.44797075910E-01 0.  0.
         14    1    1    2    0    0  0.81244650879E-03  0.11345169437E-02 -0.15075151577E-01  0.15139596860E-01  0.00000000000E+00 0. -1.
     999901    1    3    3    0    0 -0.26721263637E-02 -0.72001944612E-01 -0.97611955233E-01  0.88832399162E+00  0.88000000000E+00 0.  1.
        -11    1    4    4    0    0 -0.21325630881E-01  0.38814632601E-01  0.60411195376E-01  0.74907488839E-01  0.51100000000E-03 0.  1.
         11    1    4    4    0    0  0.23185310736E-01  0.32052795067E-01  0.52275911433E-01  0.65558922678E-01  0.51100000000E-03 0. -1.
</event>
<event>
 8    1  0.2929965E+004  0.1043930E+01  0.7957747E-01            NaN
         13   -1    0    0    0    0  0.00000000000E+00  0.00000000000E+00  0.74505805969E-08  0.10566000000E+00  0.10566000000E+00 0. -1.
     999900   -1    0    0    0    0 -0.00000000000E+00 -0.00000000000E+00 -0.74505805969E-08  0.93827000000E+00  0.93827000000E+00 0.  1.
     999902    2    1    2    0    0 -0.70126147348E-02  0.12278606944E-01 -0.40056010111E-02  0.10292335449E+01  0.10291286140E+01 0.  0.
     999903    2    3    3    0    0 -0.89429094242E-01  0.17641599013E-01 -0.96944989938E-01  0.14049344350E+00  0.45069808948E-01 0.  0.
         14    1    1    2    0    0  0.70126147348E-02 -0.12278606944E-01  0.40056010111E-02  0.14696455129E-01  0.00000000000E+00 0. -1.
     999901    1    3    3    0    0  0.82416479507E-01 -0.53629920684E-02  0.92939388927E-01  0.88874010138E+00  0.88000000000E+00 0. -1.
        -11    1    4    4    0    0 -0.37998177927E-01  0.15856285735E-01 -0.15191316513E-01  0.43889868324E-01  0.51100000000E-03 0. -1.
         11    1    4    4    0    0 -0.51430916314E-01  0.17853132773E-02 -0.81753673425E-01  0.96603575171E-01  0.51100000000E-03 0.  1.
</event>
<event>
 8    1  0.2929965E+004  0.1043930E+01  0.7957747E-01            NaN
         13   -1    0    0    0    0  0.00000000000E+00  0.00000000000E+00  0.74505805969E-08  0.10566000000E+00  0.10566000000E+00 0. -1.
     999900   -1    0    0    0    0 -0.00000000000E+00 -0.00000000000E+00 -0.74505805969E-08  0.93827000000E+00  0.93827000000E+00 0. -1.
     999902    2    1    2    0    0  0.20583384091E-02  0.11003701073E-01 -0.84007741976E-02  0.10299338862E+01  0.10298387829E+01 0.  0.
     999903    2    3    3    0    0  0.32470062911E-01 -0.97241100413E-01  0.81866127706E-01  0.13819966368E+00  0.43439009899E-01 0.  0.
         14    1    1    2    0    0 -0.20583384091E-02 -0.11003701073E-01  0.84007741976E-02  0.13996113798E-01  0.00000000000E+00 0. -1.
     999901    1    3    3    0    0 -0.30411724502E-01  0.10824480149E+00 -0.90266901904E-01  0.89173422252E+00  0.88000000000E+00 0. -1.
        -11    1    4    4    0    0  0.11409952710E-01 -0.86286427588E-01  0.69773854378E-01  0.11155351399E+00  0.51100000000E-03 0.  1.
         11    1    4    4    0    0  0.21060110201E-01 -0.10954672825E-01  0.12092273328E-01  0.26646149696E-01  0.51100000000E-03 0. -1.
</event>
<event>
 8    1  0.2929965E+004  0.1043930E+01  0.7957747E-01            NaN
         13   -1    0    0    0    0  0.00000000000E+00  0.00000000000E+00  0.74505805969E-08  0.10566000000E+00  0.10566000000E+00 0. -1.
     999900   -1    0    0    0    0 -0.00000000000E+00 -0.00000000000E+00 -0.74505805969E-08  0.93827000000E+00  0.93827000000E+00 0. -1.
     999902    2    1    2    0    0  0.40217726526E-02 -0.13628204568E-02  0.11795070703E-01  0.10313938272E+01  0.10313176384E+01 0.  0.
     999903    2    3    3    0    0 -0.60749666616E-02 -0.12333019345E+00  0.53854779669E-01  0.14192937974E+00  0.44680753175E-01 0.  0.
         14    1    1    2    0    0 -0.40217726526E-02  0.13628204568E-02 -0.11795070703E-01  0.12536172771E-01  0.00000000000E+00 0.  1.
     999901    1    3    3    0    0  0.10096739314E-01  0.12196737300E+00 -0.42059708966E-01  0.88946444748E+00  0.88000000000E+00 0. -1.
        -11    1    4    4    0    0  0.39918323587E-02 -0.57850646942E-01  0.23932872509E-02  0.58039822726E-01  0.51100000000E-03 0.  1.
         11    1    4    4    0    0 -0.10066799020E-01 -0.65479546511E-01  0.51461492418E-01  0.83889557018E-01  0.51100000000E-03 0. -1.
</event>
<event>
 8    1  0.2929965E+004  0.1043930E+01  0.7957747E-01            NaN
         13   -1    0    0    0    0  0.00000000000E+00  0.00000000000E+00  0.74505805969E-08  0.10566000000E+00  0.10566000000E+00 0.  1.
     999900   -1    0    0    0    0 -0.00000000000E+00 -0.00000000000E+00 -0.74505805969E-08  0.93827000000E+00  0.93827000000E+00 0. -1.
     999902    2    1    2    0    0 -0.53233799666E-02  0.15345780224E-01 -0.22332131793E-03  0.10276855789E+01  0.10275571847E+01 0.  0.
     999903    2    3    3    0    0 -0.10924772226E+00  0.13965866264E-01 -0.71060665889E-01  0.13874232846E+00  0.45494013144E-01 0.  0.
         14    1    1    2    0    0  0.53233799666E-02 -0.15345780224E-01  0.22332131793E-03  0.16244421115E-01  0.00000000000E+00 0.  1.
     999901    1    3    3    0    0  0.10392434229E+00  0.13799139600E-02  0.70837344571E-01  0.88894325042E+00  0.88000000000E+00 0.  1.
        -11    1    4    4    0    0 -0.68839667956E-01  0.29327399772E-01 -0.53940826880E-01  0.92243537374E-01  0.51100000000E-03 0.  1.
         11    1    4    4    0    0 -0.40408054302E-01 -0.15361533508E-01 -0.17119839009E-01  0.46498791090E-01  0.51100000000E-03 0. -1.
</event>
<event>
 8    1  0.2929965E+004  0.1043930E+01  0.7957747E-01            NaN
         13   -1    0    0    0    0  0.00000000000E+00  0.00000000000E+00  0.74505805969E-08  0.10566000000E+00  0.10566000000E+00 0. -1.
     999900   -1    0    0    0    0 -0.00000000000E+00 -0.00000000000E+00 -0.74505805969E-08  0.93827000000E+00  0.93827000000E+00 0. -1.
     999902    2    1    2    0    0 -0.58710367059E-02 -0.24229860969E-02  0.54209563583E-02  0.10355797484E+01  0.10355460823E+01 0.  0.
     999903    2    3    3    0    0  0.10613149998E+00  0.75103894556E-01 -0.45535530226E-01  0.14364278373E+00  0.40685065317E-01 0.  0.
         14    1    1    2    0    0  0.58710367059E-02  0.24229860969E-02 -0.54209563583E-02  0.83502515810E-02  0.00000000000E+00 0.  1.
     999901    1    3    3    0    0 -0.11200253669E+00 -0.77526880653E-01  0.50956486584E-01  0.89193696469E+00  0.88000000000E+00 0. -1.
        -11    1    4    4    0    0  0.42452023351E-01  0.52173662052E-01 -0.32541689788E-01  0.74722740807E-01  0.51100000000E-03 0. -1.
         11    1    4    4    0    0  0.63679476630E-01  0.22930232505E-01 -0.12993840438E-01  0.68920042926E-01  0.51100000000E-03 0.  1.
</event>
<event>
 8    1  0.2929965E+004  0.1043930E+01  0.7957747E-01            NaN
         13   -1    0    0    0    0  0.00000000000E+00  0.00000000000E+00  0.74505805969E-08  0.10566000000E+00  0.10566000000E+00 0.  1.
     999900   -1    0    0    0    0 -0.00000000000E+00 -0.00000000000E+00 -0.74505805969E-08  0.93827000000E+00  0.93827000000E+00 0. -1.
     999902    2    1    2    0    0  0.11148830610E-02 -0.14233966391E-01  0.61958845446E-02  0.10283660112E+01  0.10282482264E+01 0.  0.
     999903    2    3    3    0    0  0.12021491783E+00  0.50113372273E-01 -0.68085104641E-02  0.13791976766E+00  0.44861229889E-01 0.  0.
         14    1    1    2    0    0 -0.11148830610E-02  0.14233966391E-01 -0.61958845446E-02  0.15563988844E-01  0.00000000000E+00 0.  1.
     999901    1    3    3    0    0 -0.11910003476E+00 -0.64347338664E-01  0.13004395009E-01  0.89044624350E+00  0.88000000000E+00 0. -1.
        -11    1    4    4    0    0  0.43365770713E-01  0.36912783000E-01  0.10834634475E-01  0.57972355856E-01  0.51100000000E-03 0.  1.
         11    1    4    4    0    0  0.76849147113E-01  0.13200589273E-01 -0.17643144939E-01  0.79947411799E-01  0.51100000000E-03 0. -1.
</event>
<event>
 8    1  0.2929965E+004  0.1043930E+01  0.7957747E-01            NaN
         13   -1    0    0    0    0  0.00000000000E+00  0.00000000000E+00  0.74505805969E-08  0.10566000000E+00  0.10566000000E+00 0.  1.
     999900   -1    0    0    0    0 -0.00000000000E+00 -0.00000000000E+00 -0.74505805969E-08  0.93827000000E+00  0.93827000000E+00 0. -1.
     999902    2    1    2    0    0 -0.24532903072E-02  0.14013703225E-01 -0.37966476815E-02  0.10292052913E+01  0.10290999537E+01 0.  0.
     999903    2    3    3    0    0 -0.67503860158E-02 -0.22340663454E-01 -0.13001329494E+00  0.13944647736E+00  0.44689934354E-01 0.  0.
         14    1    1    2    0    0  0.24532903072E-02 -0.14013703225E-01  0.37966476815E-02  0.14724708657E-01  0.00000000000E+00 0.  1.
     999901    1    3    3    0    0  0.42970957086E-02  0.36354366679E-01  0.12621664726E+00  0.88975881398E+00  0.88000000000E+00 0.  1.
        -11    1    4    4    0    0 -0.45340708345E-02  0.98434766223E-02 -0.74115122287E-01  0.74905035231E-01  0.51100000000E-03 0. -1.
         11    1    4    4    0    0 -0.22163151813E-02 -0.32184140076E-01 -0.55898172655E-01  0.64541442133E-01  0.51100000000E-03 0.  1.
</event>
<event>
 8    1  0.2929965E+004  0.1043930E+01  0.7957747E-01            NaN
         13   -1    0    0    0    0  0.00000000000E+00  0.00000000000E+00  0.74505805969E-08  0.10566000000E+00  0.10566000000E+00 0.  1.
     999900   -1    0    0    0    0 -0.00000000000E+00 -0.00000000000E+00 -0.74505805969E-08  0.93827000000E+00  0.93827000000E+00 0. -1.
     999902    2    1    2    0    0  0.76064282857E-02 -0.29839329332E-02  0.10851754704E-01  0.10303461056E+01  0.10302565579E+01 0.  0.
     999903    2    3    3    0    0 -0.55773431205E-01 -0.74872475739E-01 -0.93062284531E-01  0.13906438990E+00  0.44291675129E-01 0.  0.
         14    1    1    2    0    0 -0.76064282857E-02  0.29839329332E-02 -0.10851754704E-01  0.13583894404E-01  0.00000000000E+00 0. -1.
     999901    1    3    3    0    0  0.63379859491E-01  0.71888542806E-01  0.10391403924E+00  0.89128171569E+00  0.88000000000E+00 0.  1.
        -11    1    4    4    0    0 -0.19893511348E-01 -0.44704415811E-02 -0.36757576556E-01  0.42037093108E-01  0.51100000000E-03 0. -1.
         11    1    4    4    0    0 -0.35879919857E-01 -0.70402034158E-01 -0.56304707974E-01  0.97027296796E-01  0.51100000000E-03 0.  1.
</event>
<event>
 8    1  0.2929965E+004  0.1043930E+01  0.7957747E-01            NaN
         13   -1    0    0    0    0  0.00000000000E+00  0.00000000000E+00  0.74505805969E-08  0.10566000000E+00  0.10566000000E+00 0. -1.
     999900   -1    0    0    0    0 -0.00000000000E+00 -0.00000000000E+00 -0.74505805969E-08  0.93827000000E+00  0.93827000000E+00 0.  1.
     999902    2    1    2    0    0 -0.33523987851E-02  0.59307878318E-02 -0.11485989781E-01  0.10305755707E+01  0.10304890422E+01 0.  0.
     999903    2    3    3    0    0  0.11853225281E+00  0.45302466267E-01 -0.44697429348E-01  0.14068288214E+00  0.41129122664E-01 0.  0.
         14    1    1    2    0    0  0.33523987851E-02 -0.59307878318E-02  0.11485989781E-01  0.13354429346E-01  0.00000000000E+00 0. -1.
     999901    1    3    3    0    0 -0.12188465159E+00 -0.39371678435E-01  0.33211439567E-01  0.88989268852E+00  0.88000000000E+00 0. -1.
        -11    1    4    4    0    0  0.30257236999E-01  0.36164671120E-02 -0.28495831565E-01  0.41723527688E-01  0.51100000000E-03 0.  1.
         11    1    4    4    0    0  0.88275015807E-01  0.41685999155E-01 -0.16201597782E-01  0.98959354449E-01  0.51100000000E-03 0. -1.
</event>
<event>
 8    1  0.2929965E+004  0.1043930E+01  0.7957747E-01            NaN
         13   -1    0    0    0    0  0.00000000000E+00  0.00000000000E+00  0.74505805969E-08  0.10566000000E+00  0.10566000000E+00 0.  1.
     999900   -1    0    0    0    0 -0.00000000000E+00 -0.00000000000E+00 -0.74505805969E-08  0.93827000000E+00  0.93827000000E+00 0.  1.
     999902    2    1    2    0    0  0.92912690051E-02 -0.97182257715E-02 -0.48392271749E-02  0.10296405035E+01  0.10295413429E+01 0.  0.
     999903    2    3    3    0    0 -0.20827213648E-01 -0.65364875353E-01  0.11312442783E+00  0.13951742404E+00  0.44290356523E-01 0.  0.
         14    1    1    2    0    0 -0.92912690051E-02  0.97182257715E-02  0.48392271749E-02  0.14289496545E-01  0.00000000000E+00 0. -1.
     999901    1    3    3    0    0  0.30118482653E-01  0.55646649582E-01 -0.11796365500E+00  0.89012307942E+00  0.88000000000E+00 0.  1.
        -11    1    4    4    0    0 -0.86371499171E-02 -0.68400726544E-01  0.98488310324E-01  0.12022257750E+00  0.51100000000E-03 0. -1.
         11    1    4    4    0    0 -0.12190063731E-01  0.30358511904E-02  0.14636117503E-01  0.19294846534E-01  0.51100000000E-03 0.  1.
</event>
<event>
 8    1  0.2929965E+004  0.1043930E+01  0.7957747E-01            NaN
         13   -1    0    0    0    0  0.00000000000E+00  0.00000000000E+00  0.74505805969E-08  0.10566000000E+00  0.10566000000E+00 0.  1.
     999900   -1    0    0    0    0 -0.00000000000E+00 -0.00000000000E+00 -0.74505805969E-08  0.93827000000E+00  0.93827000000E+00 0.  1.
     999902    2    1    2    0    0 -0.11671516970E-01 -0.19668759935E-02 -0.82811428978E-02  0.10294845773E+01  0.10293832254E+01 0.  0.
     999903    2    3    3    0    0 -0.86997404356E-01  0.64285893913E-01 -0.77985187604E-01  0.14104658132E+00  0.45948058681E-01 0.  0.
         14    1    1    2    0    0  0.11671516970E-01  0.19668759935E-02  0.82811428978E-02  0.14445422709E-01  0.00000000000E+00 0.  1.
     999901    1    3    3    0    0  0.75325887386E-01 -0.66252769906E-01  0.69704044707E-01  0.88843799597E+00  0.88000000000E+00 0. -1.
        -11    1    4    4    0    0 -0.49690281802E-01  0.52410833895E-01 -0.27789334970E-01  0.77385579240E-01  0.51100000000E-03 0. -1.
         11    1    4    4    0    0 -0.37307122553E-01  0.11875060018E-01 -0.50195852634E-01  0.63661002084E-01  0.51100000000E-03 0.  1.
</event>
<event>
 8    1  0.2929965E+004  0.1043930E+01  0.7957747E-01            NaN
         13   -1    0    0    0    0  0.00000000000E+00  0.00000000000E+00  0.74505805969E-08  0.10566000000E+00  0.10566000000E+00 0. -1.
     999900   -1    0    0    0    0 -0.00000000000E+00 -0.00000000000E+00 -0.74505805969E-08  0.93827000000E+00  0.93827000000E+00 0. -1.
     999902    2    1    2    0    0  0.85410331863E-02 -0.10368408925E-01 -0.52771942844E-02  0.10294973311E+01  0.10293961593E+01 0.  0.
     999903    2    3    3    0    0 -0.75241478395E-01  0.89669569311E-01 -0.57935200551E-01  0.13831835248E+00  0.45536440787E-01 0.  0.
         14    1    1    2    0    0 -0.85410331863E-02  0.10368408925E-01  0.52771942844E-02  0.14432668881E-01  0.00000000000E+00 0. -1.
     999901    1    3    3    0    0  0.83782511581E-01 -0.10003797824E+00  0.52658006266E-01  0.89117897863E+00  0.88000000000E+00 0. -1.
        -11    1    4    4    0    0 -0.58609098461E-01  0.35276251116E-01 -0.26780715890E-01  0.73463652099E-01  0.51100000000E-03 0. -1.
         11    1    4    4    0    0 -0.16632379934E-01  0.54393318195E-01 -0.31154484661E-01  0.64854700385E-01  0.51100000000E-03 0.  1.
</event>
<event>
 8    1  0.2929965E+004  0.1043930E+01  0.7957747E-01            NaN
         13   -1    0    0    0    0  0.00000000000E+00  0.00000000000E+00  0.74505805969E-08  0.10566000000E+00  0.10566000000E+00 0. -1.
     999900   -1    0    0    0    0 -0.00000000000E+00 -0.00000000000E+00 -0.74505805969E-08  0.93827000000E+00  0.93827000000E+00 0.  1.
     999902    2    1    2    0    0  0.88576957091E-02  0.10362416538E-02  0.10809755507E-01  0.10299163144E+01  0.10298209705E+01 0.  0.
     999903    2    3    3    0    0 -0.14334586195E-01 -0.99672573629E-01  0.87049923842E-01  0.14059482546E+00  0.45267133888E-01 0.  0.
         14    1    1    2    0    0 -0.88576957091E-02 -0.10362416538E-02 -0.10809755507E-01  0.14013685603E-01  0.00000000000E+00 0.  1.
     999901    1    3    3    0    0  0.23192281904E-01  0.10070881528E+00 -0.76240168335E-01  0.88932148894E+00  0.88000000000E+00 0.  1.
        -11    1    4    4    0    0 -0.23257059487E-01 -0.28527275021E-01  0.42293649672E-01  0.56068798450E-01  0.51100000000E-03 0.  1.
         11    1    4    4    0    0  0.89224732922E-02 -0.71145298608E-01  0.44756274171E-01  0.84526027011E-01  0.51100000000E-03 0. -1.
</event>
<event>
 8    1  0.2929965E+004  0.1043930E+01  0.7957747E-01            NaN
         13   -1    0    0    0    0  0.00000000000E+00  0.00000000000E+00  0.74505805969E-08  0.10566000000E+00  0.10566000000E+00 0.  1.
     999900   -1    0    0    0    0 -0.00000000000E+00 -0.00000000000E+00 -0.74505805969E-08  0.93827000000E+00  0.93827000000E+00 0.  1.
     999902    2    1    2    0    0 -0.92858280269E-02 -0.58884773092E-02 -0.50739288378E-02  0.10318202716E+01  0.10317492076E+01 0.  0.
     999903    2    3    3    0    0 -0.82483892699E-01 -0.52574577325E-01  0.91861191674E-01  0.14225073181E+00  0.47213487775E-01 0.  0.
         14    1    1    2    0    0  0.92858280269E-02  0.58884773092E-02  0.50739288378E-02  0.12109728363E-01  0.00000000000E+00 0.  1.
     999901    1    3    3    0    0  0.73198064672E-01  0.46686100016E-01 -0.96935120512E-01  0.88956953983E+00  0.88000000000E+00 0.  1.
        -11    1    4    4    0    0 -0.13790230245E-02 -0.97722624171E-02 -0.29803093076E-02  0.10321927234E-01  0.51100000000E-03 0.  1.
         11    1    4    4    0    0 -0.81104869674E-01 -0.42802314908E-01  0.94841500982E-01  0.13192880457E+00  0.51100000000E-03 0. -1.
</event>
<event>
 8    1  0.2929965E+004  0.1043930E+01  0.7957747E-01            NaN
         13   -1    0    0    0    0  0.00000000000E+00  0.00000000000E+00  0.74505805969E-08  0.10566000000E+00  0.10566000000E+00 0. -1.
     999900   -1    0    0    0    0 -0.00000000000E+00 -0.00000000000E+00 -0.74505805969E-08  0.93827000000E+00  0.93827000000E+00 0. -1.
     999902    2    1    2    0    0  0.94145339720E-02  0.21725531427E-02  0.97918256831E-02  0.10301737910E+01  0.10300819415E+01 0.  0.
     999903    2    3    3    0    0 -0.66624674319E-01  0.41737088284E-02 -0.11247498400E+00  0.13847028722E+00  0.45465716125E-01 0.  0.
         14    1    1    2    0    0 -0.94145339720E-02 -0.21725531427E-02 -0.97918256831E-02  0.13756209044E-01  0.00000000000E+00 0. -1.
     999901    1    3    3    0    0  0.76039208291E-01 -0.20011556857E-02  0.12226680969E+00  0.89170350373E+00  0.88000000000E+00 0.  1.
        -11    1    4    4    0    0 -0.47006693107E-01  0.23885925995E-01 -0.68653558071E-01  0.86566383858E-01  0.51100000000E-03 0. -1.
         11    1    4    4    0    0 -0.19617981211E-01 -0.19712217166E-01 -0.43821425933E-01  0.51903903362E-01  0.51100000000E-03 0.  1.
</event>
<event>
 8    1  0.2929965E+004  0.1043930E+01  0.7957747E-01            NaN
         13   -1    0    0    0    0  0.00000000000E+00  0.00000000000E+00  0.74505805969E-08  0.10566000000E+00  0.10566000000E+00 0.  1.
     999900   -1    0    0    0    0 -0.00000000000E+00 -0.00000000000E+00 -0.74505805969E-08  0.93827000000E+00  0.93827000000E+00 0. -1.
     999902    2    1    2    0    0  0.43753877577E-02 -0.45234776053E-02 -0.13644704352E-01  0.10289038952E+01  0.10287941688E+01 0.  0.
     999903    2    3    3    0    0  0.48844633234E-01 -0.50694580857E-01 -0.11343718843E+00  0.14094678791E+00  0.45191399384E-01 0.  0.
         14    1    1    2    0    0 -0.43753877577E-02  0.45234776053E-02  0.13644704352E-01  0.15026104769E-01  0.00000000000E+00 0.  1.
     999901    1    3    3    0    0 -0.44469245476E-01  0.46171103251E-01  0.99792484078E-01  0.88795710732E+00  0.88000000000E+00 0.  1.
        -11    1    4    4    0    0  0.25277866629E-01 -0.54087751319E-01 -0.84609089800E-01  0.10355392113E+00  0.51100000000E-03 0. -1.
         11    1    4    4    0    0  0.23566766605E-01  0.33931704622E-02 -0.28828098631E-01  0.37392866775E-01  0.51100000000E-03 0.  1.
</event>
<event>
 8    1  0.2929965E+004  0.1043930E+01  0.7957747E-01            NaN
         13   -1    0    0    0    0  0.00000000000E+00  0.00000000000E+00  0.74505805969E-08  0.10566000000E+00  0.10566000000E+00 0.  1.
     999900   -1    0    0    0    0 -0.00000000000E+00 -0.00000000000E+00 -0.74505805969E-08  0.93827000000E+00  0.93827000000E+00 0.  1.
     999902    2    1    2    0    0  0.78505228541E-02 -0.69315190612E-02 -0.15416631932E-01  0.10252926932E+01  0.10251232889E+01 0.  0.
     999903    2    3    3    0    0 -0.75800923978E-02 -0.86732436550E-01 -0.96570271641E-01  0.13782877641E+00  0.45727244521E-01 0.  0.
         14    1    1    2    0    0 -0.78505228541E-02  0.69315190612E-02  0.15416631932E-01  0.18637306825E-01  0.00000000000E+00 0.  1.
     999901    1    3    3    0    0  0.15430615252E-01  0.79800917489E-01  0.81153639709E-01  0.88746391676E+00  0.88000000000E+00 0. -1.
        -11    1    4    4    0    0  0.17016850637E-01 -0.46998118893E-01 -0.37404527404E-01  0.62432012433E-01  0.51100000000E-03 0. -1.
         11    1    4    4    0    0 -0.24596943035E-01 -0.39734317658E-01 -0.59165744237E-01  0.75396763979E-01  0.51100000000E-03 0.  1.
</event>
<event>
 8    1  0.2929965E+004  0.1043930E+01  0.7957747E-01            NaN
         13   -1    0    0    0    0  0.00000000000E+00  0.00000000000E+00  0.74505805969E-08  0.10566000000E+00  0.10566000000E+00 0.  1.
     999900   -1    0    0    0    0 -0.00000000000E+00 -0.00000000000E+00 -0.74505805969E-08  0.93827000000E+00  0.93827000000E+00 0.  1.
     999902    2    1    2    0    0 -0.89064090442E-02  0.26312078014E-02  0.98201042623E-02  0.10304140160E+01  0.10303253673E+01 0.  0.
     999903    2    3    3    0    0 -0.18633743766E-01 -0.11574979501E+00  0.63685510105E-01  0.14080164824E+00  0.44989204246E-01 0.  0.
         14    1    1    2    0    0  0.89064090442E-02 -0.26312078014E-02 -0.98201042623E-02  0.13515984029E-01  0.00000000000E+00 0. -1.
     999901    1    3    3    0    0  0.97273347219E-02  0.11838100281E+00 -0.53865405843E-01  0.88961236773E+00  0.88000000000E+00 0.  1.
        -11    1    4    4    0    0  0.17041918200E-02 -0.53029703718E-01  0.63786135843E-02  0.53441571631E-01  0.51100000000E-03 0. -1.
         11    1    4    4    0    0 -0.20337935586E-01 -0.62720091294E-01  0.57306896521E-01  0.87360076612E-01  0.51100000000E-03 0.  1.
</event>
<event>
 8    1  0.2929965E+004  0.1043930E+01  0.7957747E-01            NaN
         13   -1    0    0    0    0  0.00000000000E+00  0.00000000000E+00  0.74505805969E-08  0.10566000000E+00  0.10566000000E+00 0.  1.
     999900   -1    0    0    0    0 -0.00000000000E+00 -0.00000000000E+00 -0.74505805969E-08  0.93827000000E+00  0.93827000000E+00 0. -1.
     999902    2    1    2    0    0  0.15317725552E-01  0.75306969814E-02  0.81154737100E-03  0.10268419129E+01  0.10266997182E+01 0.  0.
     999903    2    3    3    0    0  0.89631359668E-01 -0.58256306167E-01 -0.71456484223E-01  0.13831891687E+00  0.50975639115E-01 0.  0.
         14    1    1    2    0    0 -0.15317725552E-01 -0.75306969814E-02 -0.81154737100E-03  0.17088087144E-01  0.00000000000E+00 0.  1.
     999901    1    3    3    0    0 -0.74313634116E-01  0.65787003149E-01  0.72268031594E-01  0.88852299598E+00  0.88000000000E+00 0.  1.
        -11    1    4    4    0    0  0.49426712469E-01 -0.60065592877E-01 -0.52362831801E-01  0.93771011663E-01  0.51100000000E-03 0.  1.
         11    1    4    4    0    0  0.40204647199E-01  0.18092867091E-02 -0.19093652423E-01  0.44547905210E-01  0.51100000000E-03 0. -1.
</event>
<event>
 8    1  0.2929965E+004  0.1043930E+01  0.7957747E-01            NaN
         13   -1    0    0    0    0  0.00000000000E+00  0.00000000000E+00  0.74505805969E-08  0.10566000000E+00  0.10566000000E+00 0.  1.
     999900   -1    0    0    0    0 -0.00000000000E+00 -0.00000000000E+00 -0.74505805969E-08  0.93827000000E+00  0.93827000000E+00 0.  1.
     999902    2    1    2    0    0 -0.86887033364E-02 -0.10320285728E-01  0.63897479442E-02  0.10290024837E+01  0.10288942029E+01 0.  0.
     999903    2    3    3    0    0  0.15680379948E-01  0.13917273724E-01  0.13007771775E+00  0.13968812683E+00  0.46400380382E-01 0.  0.
         14    1    1    2    0    0  0.86887033364E-02  0.10320285728E-01 -0.63897479442E-02  0.14927516269E-01  0.00000000000E+00 0. -1.
     999901    1    3    3    0    0 -0.24369083284E-01 -0.24237559452E-01 -0.12368796981E+00  0.88931435690E+00  0.88000000000E+00 0.  1.
        -11    1    4    4    0    0 -0.32209875635E-02  0.10473930831E-01  0.32909309559E-02  0.11452918209E-01  0.51100000000E-03 0.  1.
         11    1    4    4    0    0  0.18901367512E-01  0.34433428927E-02  0.12678678680E+00  0.12823520862E+00  0.51100000000E-03 0. -1.
</event>
<event>
 8    1  0.2929965E+004  0.1043930E+01  0.7957747E-01            NaN
         13   -1    0    0    0    0  0.00000000000E+00  0.00000000000E+00  0.74505805969E-08  0.10566000000E+00  0.10566000000E+00 0.  1.
     999900   -1    0    0    0    0 -0.00000000000E+00 -0.00000000000E+00 -0.74505805969E-08  0.93827000000E+00  0.93827000000E+00 0. -1.
     999902    2    1    2    0    0 -0.11554581297E-02  0.10025003067E-01  0.86171421977E-02  0.10306600750E+01  0.10305746452E+01 0.  0.
     999903    2    3    3    0    0  0.11609977613E+00 -0.62146011307E-01 -0.12292278859E-01  0.13970853357E+00  0.45012103859E-01 0.  0.
         14    1    1    2    0    0  0.11554581297E-02 -0.10025003067E-01 -0.86171421977E-02  0.13269925005E-01  0.00000000000E+00 0. -1.
     999901    1    3    3    0    0 -0.11725523426E+00  0.72171014374E-01  0.20909421056E-01  0.89095154142E+00  0.88000000000E+00 0.  1.
        -11    1    4    4    0    0  0.48357660290E-01 -0.44989085880E-01  0.89824495135E-02  0.66659032976E-01  0.51100000000E-03 0.  1.
         11    1    4    4    0    0  0.67742115842E-01 -0.17156925426E-01 -0.21274728372E-01  0.73049500594E-01  0.51100000000E-03 0. -1.
</event>
<event>
 7    1  0.2929965E+004  0.1043930E+01  0.7957747E-01            NaN
         13   -1    0    0    0    0  0.00000000000E+00  0.00000000000E+00  0.74505805969E-08  0.10566000000E+00  0.10566000000E+00 0.  1.
     999900   -1    0    0    0    0 -0.00000000000E+00 -0.00000000000E+00 -0.74505805969E-08  0.93827000000E+00  0.93827000000E+00 0. -1.
     999903    2    1    2    0    0 -0.68993228679E-01  0.78016814863E-01  0.55184462043E-01  0.12227780210E+00  0.32555291909E-01 0.  0.
         14    1    1    2    0    0 -0.17685976151E-01  0.14124641855E-01  0.18951138607E-01  0.29520245840E-01  0.00000000000E+00 0. -1.
     999901    1    1    2    0    0  0.86679204830E-01 -0.92141456718E-01 -0.74135600650E-01  0.89213195206E+00  0.88000000000E+00 0. -1.
        -11    1    3    3    0    0 -0.47572209506E-01  0.34374240176E-01  0.41122961195E-01  0.71666327961E-01  0.51100000000E-03 0. -1.
         11    1    3    3    0    0 -0.21421019173E-01  0.43642574688E-01  0.14061500849E-01  0.50611474143E-01  0.51100000000E-03 0.  1.
</event>
<event>
 8    1  0.2929965E+004  0.1043930E+01  0.7957747E-01            NaN
         13   -1    0    0    0    0  0.00000000000E+00  0.00000000000E+00  0.74505805969E-08  0.10566000000E+00  0.10566000000E+00 0. -1.
     999900   -1    0    0    0    0 -0.00000000000E+00 -0.00000000000E+00 -0.74505805969E-08  0.93827000000E+00  0.93827000000E+00 0.  1.
     999902    2    1    2    0    0  0.34400516919E-02  0.12582492862E-01  0.33054283737E-02  0.10304734425E+01  0.10303855768E+01 0.  0.
     999903    2    3    3    0    0 -0.75831930379E-02 -0.12213006250E+00  0.48774040640E-01  0.13899356098E+00  0.44351391992E-01 0.  0.
         14    1    1    2    0    0 -0.34400516919E-02 -0.12582492862E-01 -0.33054283737E-02  0.13456557472E-01  0.00000000000E+00 0. -1.
     999901    1    3    3    0    0  0.11023244730E-01  0.13471255536E+00 -0.45468612266E-01  0.89147988154E+00  0.88000000000E+00 0. -1.
        -11    1    4    4    0    0  0.16413405223E-01 -0.77110763291E-01  0.25004126628E-01  0.82709958020E-01  0.51100000000E-03 0.  1.
         11    1    4    4    0    0 -0.23996598261E-01 -0.45019299209E-01  0.23769914012E-01  0.56283602963E-01  0.51100000000E-03 0. -1.
</event>
<event>
 8    1  0.2929965E+004  0.1043930E+01  0.7957747E-01            NaN
         13   -1    0    0    0    0  0.00000000000E+00  0.00000000000E+00  0.74505805969E-08  0.10566000000E+00  0.10566000000E+00 0.  1.
     999900   -1    0    0    0    0 -0.00000000000E+00 -0.00000000000E+00 -0.74505805969E-08  0.93827000000E+00  0.93827000000E+00 0. -1.
     999902    2    1    2    0    0  0.45098888662E-02 -0.10368887278E-01 -0.73713341428E-02  0.10304322414E+01  0.10303438332E+01 0.  0.
     999903    2    3    3    0    0 -0.11621478191E+00 -0.63041175765E-01 -0.17881168068E-01  0.14056749169E+00  0.44265315698E-01 0.  0.
         14    1    1    2    0    0 -0.45098888662E-02  0.10368887278E-01  0.73713341428E-02  0.13497758629E-01  0.00000000000E+00 0.  1.
     999901    1    3    3    0    0  0.12072467077E+00  0.52672288487E-01  0.10509833926E-01  0.88986474968E+00  0.88000000000E+00 0.  1.
        -11    1    4    4    0    0 -0.11411455311E+00 -0.67406656433E-01 -0.21797064704E-01  0.13431739170E+00  0.51100000000E-03 0.  1.
         11    1    4    4    0    0 -0.21002288027E-02  0.43654806684E-02  0.39158966356E-02  0.62500999953E-02  0.51100000000E-03 0. -1.
</event>
<event>
 8    1  0.2929965E+004  0.1043930E+01  0.7957747E-01            NaN
         13   -1    0    0    0    0  0.00000000000E+00  0.00000000000E+00  0.74505805969E-08  0.10566000000E+00  0.10566000000E+00 0. -1.
     999900   -1    0    0    0    0 -0.00000000000E+00 -0.00000000000E+00 -0.74505805969E-08  0.93827000000E+00  0.93827000000E+00 0.  1.
     999902    2    1    2    0    0  0.49255148963E-03  0.10319377356E-01 -0.10071853565E-01  0.10295017503E+01  0.10294006409E+01 0.  0.
     999903    2    3    3    0    0  0.94659020695E-01  0.91312843528E-01 -0.20178712806E-01  0.14072201710E+00  0.45794541765E-01 0.  0.
         14    1    1    2    0    0 -0.49255148963E-03 -0.10319377356E-01  0.10071853565E-01  0.14428249728E-01  0.00000000000E+00 0. -1.
     999901    1    3    3    0    0 -0.94166469205E-01 -0.80993466172E-01  0.10106859241E-01  0.88877973317E+00  0.88000000000E+00 0. -1.
        -11    1    4    4    0    0  0.26833016928E-01  0.70149491668E-02  0.80846765843E-02  0.28893657189E-01  0.51100000000E-03 0. -1.
         11    1    4    4    0    0  0.67826003767E-01  0.84297894361E-01 -0.28263389390E-01  0.11182835992E+00  0.51100000000E-03 0.  1.
</event>
<event>
 8    1  0.2929965E+004  0.1043930E+01  0.7957747E-01            NaN
         13   -1    0    0    0    0  0.00000000000E+00  0.00000000000E+00  0.74505805969E-08  0.10566000000E+00  0.10566000000E+00 0.  1.
     999900   -1    0    0    0    0 -0.00000000000E+00 -0.00000000000E+00 -0.74505805969E-08  0.93827000000E+00  0.93827000000E+00 0.  1.
     999902    2    1    2    0    0  0.97275061721E-02 -0.12198340743E-02 -0.96995616809E-02  0.10301389207E+01  0.10300466019E+01 0.  0.
     999903    2    3    3    0    0  0.82071583008E-02 -0.41601575117E-01 -0.12716970851E+00  0.14141386093E+00  0.45029954481E-01 0.  0.
         14    1    1    2    0    0 -0.97275061721E-02  0.12198340743E-02  0.96995616809E-02  0.13791079301E-01  0.00000000000E+00 0.  1.
     999901    1    3    3    0    0  0.15203478713E-02  0.40381741043E-01  0.11747014683E+00  0.88872505977E+00  0.88000000000E+00 0. -1.
        -11    1    4    4    0    0  0.26567401364E-01 -0.21604336334E-01 -0.62333422154E-01  0.71121661975E-01  0.51100000000E-03 0. -1.
         11    1    4    4    0    0 -0.18360243063E-01 -0.19997238783E-01 -0.64836286356E-01  0.70292198954E-01  0.51100000000E-03 0.  1.
</event>
<event>
 8    1  0.2929965E+004  0.1043930E+01  0.7957747E-01            NaN
         13   -1    0    0    0    0  0.00000000000E+00  0.00000000000E+00  0.74505805969E-08  0.10566000000E+00  0.10566000000E+00 0. -1.
     999900   -1    0    0    0    0 -0.00000000000E+00 -0.00000000000E+00 -0.74505805969E-08  0.93827000000E+00  0.93827000000E+00 0.  1.
     999902    2    1    2    0    0 -0.78480363899E-02  0.39549362263E-02  0.12474869549E-01  0.10286703943E+01  0.10285572053E+01 0.  0.
     999903    2    3    3    0    0 -0.12908166958E+00  0.26303647703E-01  0.17071800927E-01  0.14006576316E+00  0.44418603287E-01 0.  0.
         14    1    1    2    0    0  0.78480363899E-02 -0.39549362263E-02 -0.12474869549E-01  0.15259605696E-01  0.00000000000E+00 0.  1.
     999901    1    3    3    0    0  0.12123363319E+00 -0.22348711476E-01 -0.45969313777E-02  0.88860463115E+00  0.88000000000E+00 0.  1.
        -11    1    4    4    0    0 -0.10295512697E+00  0.21896825111E-01 -0.52887978541E-02  0.10539194287E+00  0.51100000000E-03 0. -1.
         11    1    4    4    0    0 -0.26126542611E-01  0.44068225919E-02  0.22360598781E-01  0.34673820283E-01  0.51100000000E-03 0.  1.
</event>
<event>
 8    1  0.2929965E+004  0.1043930E+01  0.7957747E-01            NaN
         13   -1    0    0    0    0  0.00000000000E+00  0.00000000000E+00  0.74505805969E-08  0.10566000000E+00  0.10566000000E+00 0.  1.
     999900   -1    0    0    0    0 -0.00000000000E+00 -0.00000000000E+00 -0.74505805969E-08  0.93827000000E+00  0.93827000000E+00 0. -1.
     999902    2    1    2    0    0  0.16161962609E-02 -0.12542368163E-01  0.44190013392E-02  0.10305340804E+01  0.10304470099E+01 0.  0.
     999903    2    3    3    0    0  0.84503294976E-01 -0.47151667513E-01  0.92835957896E-01  0.14155397209E+00  0.45331284180E-01 0.  0.
         14    1    1    2    0    0 -0.16161962609E-02  0.12542368163E-01 -0.44190013392E-02  0.13395919615E-01  0.00000000000E+00 0.  1.
     999901    1    3    3    0    0 -0.82887098715E-01  0.34609299350E-01 -0.88416956556E-01  0.88898010829E+00  0.88000000000E+00 0.  1.
        -11    1    4    4    0    0  0.55656290994E-01 -0.31584447749E-01  0.87397467926E-01  0.10832256731E+00  0.51100000000E-03 0. -1.
         11    1    4    4    0    0  0.28847003982E-01 -0.15567219764E-01  0.54384899700E-02  0.33231404786E-01  0.51100000000E-03 0.  1.
</event>
<event>
 8    1  0.2929965E+004  0.1043930E+01  0.7957747E-01            NaN
         13   -1    0    0    0    0  0.00000000000E+00  0.00000000000E+00  0.74505805969E-08  0.10566000000E+00  0.10566000000E+00 0. -1.
     999900   -1    0    0    0    0 -0.00000000000E+00 -0.00000000000E+00 -0.74505805969E-08  0.93827000000E+00  0.93827000000E+00 0. -1.
     999902    2    1    2    0    0  0.11376553716E-01 -0.47326068602E-02 -0.71340604428E-02  0.10296920802E+01  0.10295936391E+01 0.  0.
     999903    2    3    3    0    0  0.56714799606E-01 -0.10592601832E+00  0.56668536792E-01  0.14044158990E+00  0.45559052442E-01 0.  0.
         14    1    1    2    0    0 -0.11376553716E-01  0.47326068602E-02  0.71340604428E-02  0.14237919811E-01  0.00000000000E+00 0. -1.
     999901    1    3    3    0    0 -0.45338245889E-01  0.10119341146E+00 -0.63802597235E-01  0.88925049029E+00  0.88000000000E+00 0. -1.
        -11    1    4    4    0    0  0.82518491648E-02 -0.59481628148E-01  0.36817705743E-01  0.70441193055E-01  0.51100000000E-03 0.  1.
         11    1    4    4    0    0  0.48462950441E-01 -0.46444390175E-01  0.19850831049E-01  0.70000396846E-01  0.51100000000E-03 0. -1.
</event>
<event>
 8    1  0.2929965E+004  0.1043930E+01  0.7957747E-01            NaN
         13   -1    0    0    0    0  0.00000000000E+00  0.00000000000E+00  0.74505805969E-08  0.10566000000E+00  0.10566000000E+00 0.  1.
     999900   -1    0    0    0    0 -0.00000000000E+00 -0.00000000000E+00 -0.74505805969E-08  0.93827000000E+00  0.93827000000E+00 0.  1.
     999902    2    1    2    0    0  0.80240324929E-02  0.77510088320E-02  0.82613833248E-02  0.10300478644E+01  0.10299543141E+01 0.  0.
     999903    2    3    3    0    0 -0.11350517581E-01  0.10316034565E-01  0.13274765806E+00  0.14107160757E+00  0.45210650552E-01 0.  0.
         14    1    1    2    0    0 -0.80240324929E-02 -0.77510088320E-02 -0.82613833248E-02  0.13882135635E-01  0.00000000000E+00 0. -1.
     999901    1    3    3    0    0  0.19374550074E-01 -0.25650257335E-02 -0.12448627474E+00  0.88897625679E+00  0.88000000000E+00 0.  1.
        -11    1    4    4    0    0 -0.95184071923E-02 -0.15719134993E-01  0.31114609575E-01  0.36139608886E-01  0.51100000000E-03 0. -1.
         11    1    4    4    0    0 -0.18321103885E-02  0.26035169559E-01  0.10163304848E+00  0.10493199868E+00  0.51100000000E-03 0.  1.
</event>
<event>
 8    1  0.2929965E+004  0.1043930E+01  0.7957747E-01            NaN
         13   -1    0    0    0    0  0.00000000000E+00  0.00000000000E+00  0.74505805969E-08  0.10566000000E+00  0.10566000000E+00 0. -1.
     999900   -1    0    0    0    0 -0.00000000000E+00 -0.00000000000E+00 -0.74505805969E-08  0.93827000000E+00  0.93827000000E+00 0.  1.
     999902    2    1    2    0    0 -0.27841408058E-02  0.24828952519E-02 -0.13294811974E-01  0.10301217331E+01  0.10300291825E+01 0.  0.
     999903    2    3    3    0    0 -0.41266319216E-01 -0.39221000192E-01  0.11681225893E+00  0.13874754522E+00  0.48626962805E-01 0.  0.
         14    1    1    2    0    0  0.27841408058E-02 -0.24828952519E-02  0.13294811974E-01  0.13808266882E-01  0.00000000000E+00 0. -1.
     999901    1    3    3    0    0  0.38482178410E-01  0.41703895444E-01 -0.13010707090E+00  0.89137418790E+00  0.88000000000E+00 0.  1.
        -11    1    4    4    0    0 -0.27344300367E-01 -0.27596633023E-01  0.11393404095E+00  0.12037654142E+00  0.51100000000E-03 0. -1.
         11    1    4    4    0    0 -0.13922018849E-01 -0.11624367169E-01  0.28782179792E-02  0.18371003800E-01  0.51100000000E-03 0.  1.
</event>
<event>
 8    1  0.2929965E+004  0.1043930E+01  0.7957747E-01            NaN
         13   -1    0    0    0    0  0.00000000000E+00  0.00000000000E+00  0.74505805969E-08  0.10566000000E+00  0.10566000000E+00 0. -1.
     999900   -1    0    0    0    0 -0.00000000000E+00 -0.00000000000E+00 -0.74505805969E-08  0.93827000000E+00  0.93827000000E+00 0. -1.
     999902    2    1    2    0    0  0.12906489287E-01  0.74743748493E-02  0.93029106633E-03  0.10289864667E+01  0.10288779517E+01 0.  0.
     999903    2    3    3    0    0  0.61755931873E-01 -0.42288844856E-01 -0.10869242916E+00  0.13944737997E+00  0.45048708124E-01 0.  0.
         14    1    1    2    0    0 -0.12906489287E-01 -0.74743748493E-02 -0.93029106633E-03  0.14943533269E-01  0.00000000000E+00 0. -1.
     999901    1    3    3    0    0 -0.48849442586E-01  0.49763219705E-01  0.10962272023E+00  0.88953908676E+00  0.88000000000E+00 0.  1.
        -11    1    4    4    0    0  0.22638862245E-01  0.67702069000E-02 -0.20990692550E-01  0.31610505848E-01  0.51100000000E-03 0. -1.
         11    1    4    4    0    0  0.39117069627E-01 -0.49059051756E-01 -0.87701736614E-01  0.10783687413E+00  0.51100000000E-03 0.  1.
</event>
<event>
 8    1  0.2929965E+004  0.1043930E+01  0.7957747E-01            NaN
         13   -1    0    0    0    0  0.00000000000E+00  0.00000000000E+00  0.74505805969E-08  0.10566000000E+00  0.10566000000E+00 0.  1.
     999900   -1    0    0    0    0 -0.00000000000E+00 -0.00000000000E+00 -0.74505805969E-08  0.93827000000E+00  0.93827000000E+00 0. -1.
     999902    2    1    2    0    0 -0.12664667070E-01 -0.54343446966E-02  0.30343284887E-02  0.10298185492E+01  0.10297218611E+01 0.  0.
     999903    2    3    3    0    0 -0.65958660930E-01  0.10949566393E+00 -0.35106344145E-01  0.13992874278E+00  0.44807948899E-01 0.  0.
         14    1    1    2    0    0  0.12664667070E-01  0.54343446966E-02 -0.30343284887E-02  0.14111450799E-01  0.00000000000E+00 0.  1.
     999901    1    3    3    0    0  0.53293993860E-01 -0.11493000863E+00  0.38140672634E-01  0.88988980642E+00  0.88000000000E+00 0.  1.
        -11    1    4    4    0    0 -0.59363467693E-01  0.65858322266E-01 -0.36221207349E-01  0.95778791447E-01  0.51100000000E-03 0. -1.
         11    1    4    4    0    0 -0.65951932367E-02  0.43637341668E-01  0.11148632034E-02  0.44149951332E-01  0.51100000000E-03 0.  1.
</event>
<event>
 8    1  0.2929965E+004  0.1043930E+01  0.7957747E-01            NaN
         13   -1    0    0    0    0  0.00000000000E+00  0.00000000000E+00  0.74505805969E-08  0.10566000000E+00  0.10566000000E+00 0.  1.
     999900   -1    0    0    0    0 -0.00000000000E+00 -0.00000000000E+00 -0.74505805969E-08  0.93827000000E+00  0.93827000000E+00 0. -1.
     999902    2    1    2    0    0  0.14067713509E-02  0.18208535897E-02  0.14033645183E-01  0.10297089694E+01  0.10296107634E+01 0.  0.
     999903    2    3    3    0    0 -0.11776056234E-01  0.80253251560E-01 -0.10258812347E+00  0.13845924858E+00  0.45468456676E-01 0.  0.
         14    1    1    2    0    0 -0.14067713509E-02 -0.18208535897E-02 -0.14033645183E-01  0.14221030573E-01  0.00000000000E+00 0. -1.
     999901    1    3    3    0    0  0.13182827585E-01 -0.78432397970E-01  0.11662176865E+00  0.89124972085E+00  0.88000000000E+00 0.  1.
        -11    1    4    4    0    0  0.17311101404E-01  0.29887492412E-01 -0.43502857219E-01  0.55549042672E-01  0.51100000000E-03 0. -1.
         11    1    4    4    0    0 -0.29087157638E-01  0.50365759147E-01 -0.59085266251E-01  0.82910205903E-01  0.51100000000E-03 0.  1.
</event>
<event>
 8    1  0.2929965E+004  0.1043930E+01  0.7957747E-01            NaN
         13   -1    0    0    0    0  0.00000000000E+00  0.00000000000E+00  0.74505805969E-08  0.10566000000E+00  0.10566000000E+00 0. -1.
     999900   -1    0    0    0    0 -0.00000000000E+00 -0.00000000000E+00 -0.74505805969E-08  0.93827000000E+00  0.93827000000E+00 0.  1.
     999902    2    1    2    0    0 -0.96915827852E-02  0.94351932313E-02  0.22498201535E-02  0.10302182773E+01  0.10301270250E+01 0.  0.
     999903    2    3    3    0    0  0.11721245659E+00  0.19414589644E-01  0.57015962698E-01  0.13937398456E+00  0.45371811726E-01 0.  0.
         14    1    1    2    0    0  0.96915827852E-02 -0.94351932313E-02 -0.22498201535E-02  0.13711722682E-01  0.00000000000E+00 0.  1.
     999901    1    3    3    0    0 -0.12690403938E+00 -0.99793964131E-02 -0.54766142545E-01  0.89084429275E+00  0.88000000000E+00 0. -1.
        -11    1    4    4    0    0  0.39325108680E-01  0.30429236314E-02  0.43363322317E-01  0.58620494712E-01  0.51100000000E-03 0. -1.
         11    1    4    4    0    0  0.77887347912E-01  0.16371666013E-01  0.13652640381E-01  0.80753489852E-01  0.51100000000E-03 0.  1.
</event>
<event>
 7    1  0.2929965E+004  0.1043930E+01  0.7957747E-01            NaN
         13   -1    0    0    0    0  0.00000000000E+00  0.00000000000E+00  0.74505805969E-08  0.10566000000E+00  0.10566000000E+00 0.  1.
     999900   -1    0    0    0    0 -0.00000000000E+00 -0.00000000000E+00 -0.74505805969E-08  0.93827000000E+00  0.93827000000E+00 0.  1.
     999903    2    1    2    0    0 -0.84856348994E-01  0.72767601987E-01 -0.30458454033E-01  0.12433651215E+00  0.45123463600E-01 0.  0.
         14    1    1    2    0    0 -0.63327894656E-03  0.93271565333E-02  0.30235201728E-01  0.31647500924E-01  0.00000000000E+00 0.  1.
     999901    1    1    2    0    0  0.85489627941E-01 -0.82094758520E-01  0.22325230541E-03  0.88794598693E+00  0.88000000000E+00 0. -1.
        -11    1    3    3    0    0 -0.62028956744E-01  0.34779979659E-01 -0.10095264033E-02  0.71123264298E-01  0.51100000000E-03 0. -1.
         11    1    3    3    0    0 -0.22827392250E-01  0.37987622328E-01 -0.29448927630E-01  0.53213247849E-01  0.51100000000E-03 0.  1.
</event>
<event>
 8    1  0.2929965E+004  0.1043930E+01  0.7957747E-01            NaN
         13   -1    0    0    0    0  0.00000000000E+00  0.00000000000E+00  0.74505805969E-08  0.10566000000E+00  0.10566000000E+00 0. -1.
     999900   -1    0    0    0    0 -0.00000000000E+00 -0.00000000000E+00 -0.74505805969E-08  0.93827000000E+00  0.93827000000E+00 0.  1.
     999902    2    1    2    0    0 -0.12725715445E-01 -0.19321847700E-03  0.51189902346E-02  0.10302119379E+01  0.10301206006E+01 0.  0.
     999903    2    3    3    0    0 -0.25586966051E-01 -0.70065796227E-01  0.11216177326E+00  0.14088312003E+00  0.41278099468E-01 0.  0.
         14    1    1    2    0    0  0.12725715445E-01  0.19321847700E-03 -0.51189902346E-02  0.13718062108E-01  0.00000000000E+00 0.  1.
     999901    1    3    3    0    0  0.12861250606E-01  0.69872577750E-01 -0.10704278302E+00  0.88932881787E+00  0.88000000000E+00 0.  1.
        -11    1    4    4    0    0  0.10852077985E-02 -0.25242855177E-01  0.12049005666E-01  0.27996768957E-01  0.51100000000E-03 0.  1.
         11    1    4    4    0    0 -0.26672173849E-01 -0.44822941050E-01  0.10011276759E+00  0.11288635107E+00  0.51100000000E-03 0. -1.
</event>
<event>
 8    1  0.2929965E+004  0.1043930E+01  0.7957747E-01            NaN
         13   -1    0    0    0    0  0.00000000000E+00  0.00000000000E+00  0.74505805969E-08  0.10566000000E+00  0.10566000000E+00 0.  1.
     999900   -1    0    0    0    0 -0.00000000000E+00 -0.00000000000E+00 -0.74505805969E-08  0.93827000000E+00  0.93827000000E+00 0.  1.
     999902    2    1    2    0    0 -0.43604973073E-04 -0.10275522176E-01 -0.93429405417E-02  0.10300419189E+01  0.10299482880E+01 0.  0.
     999903    2    3    3    0    0 -0.66821581061E-01 -0.11568965576E+00  0.86273648132E-02  0.14105689684E+00  0.44422928528E-01 0.  0.
         14    1    1    2    0    0  0.43604973073E-04  0.10275522176E-01  0.93429405417E-02  0.13888081053E-01  0.00000000000E+00 0. -1.
     999901    1    3    3    0    0  0.66777976088E-01  0.10541413358E+00 -0.17970305355E-01  0.88898502210E+00  0.88000000000E+00 0.  1.
        -11    1    4    4    0    0 -0.57946690665E-01 -0.60462683562E-01  0.13809829690E-01  0.84879488569E-01  0.51100000000E-03 0. -1.
         11    1    4    4    0    0 -0.88748903955E-02 -0.55226972194E-01 -0.51824648771E-02  0.56177408275E-01  0.51100000000E-03 0.  1.
</event>
<event>
 8    1  0.2929965E+004  0.1043930E+01  0.7957747E-01            NaN
         13   -1    0    0    0    0  0.00000000000E+00  0.00000000000E+00  0.74505805969E-08  0.10566000000E+00  0.10566000000E+00 0. -1.
     999900   -1    0    0    0    0 -0.00000000000E+00 -0.00000000000E+00 -0.74505805969E-08  0.93827000000E+00  0.93827000000E+00 0. -1.
     999902    2    1    2    0    0  0.67961531250E-02  0.45386628880E-02  0.10634043690E-01  0.10305184362E+01  0.10304311609E+01 0.  0.
     999903    2    3    3    0    0  0.72685798029E-01  0.10156459720E+00 -0.47729243198E-01  0.14082087496E+00  0.44202324926E-01 0.  0.
         14    1    1    2    0    0 -0.67961531250E-02 -0.45386628880E-02 -0.10634043690E-01  0.13411563790E-01  0.00000000000E+00 0.  1.
     999901    1    3    3    0    0 -0.65889644904E-01 -0.97025934313E-01  0.58363286888E-01  0.88969756125E+00  0.88000000000E+00 0.  1.
        -11    1    4    4    0    0  0.44280533039E-01  0.51587156427E-01 -0.48185195167E-01  0.83331113450E-01  0.51100000000E-03 0.  1.
         11    1    4    4    0    0  0.28405264990E-01  0.49977440774E-01  0.45595196929E-03  0.57489761511E-01  0.51100000000E-03 0. -1.
</event>
<event>
 8    1  0.2929965E+004  0.1043930E+01  0.7957747E-01            NaN
         13   -1    0    0    0    0  0.00000000000E+00  0.00000000000E+00  0.74505805969E-08  0.10566000000E+00  0.10566000000E+00 0.  1.
     999900   -1    0    0    0    0 -0.00000000000E+00 -0.00000000000E+00 -0.74505805969E-08  0.93827000000E+00  0.93827000000E+00 0.  1.
     999902    2    1    2    0    0  0.55053970512E-02 -0.92947779369E-02 -0.82157388049E-02  0.10303579457E+01  0.10302685551E+01 0.  0.
     999903    2    3    3    0    0  0.12468261546E+00 -0.49545378660E-01  0.16620069442E-01  0.14106601523E+00  0.40285168475E-01 0.  0.
         14    1    1    2    0    0 -0.55053970512E-02  0.92947779369E-02  0.82157388049E-02  0.13572054292E-01  0.00000000000E+00 0.  1.
     999901    1    3    3    0    0 -0.11917721841E+00  0.40250600723E-01 -0.24835808247E-01  0.88929193048E+00  0.88000000000E+00 0.  1.
        -11    1    4    4    0    0  0.24965273960E-01 -0.10116030311E-01 -0.12864105929E-01  0.29855406805E-01  0.51100000000E-03 0. -1.
         11    1    4    4    0    0  0.99717341502E-01 -0.39429348349E-01  0.29484175372E-01  0.11121060842E+00  0.51100000000E-03 0.  1.
</event>
<event>
 8    1  0.2929965E+004  0.1043930E+01  0.7957747E-01            NaN
         13   -1    0    0    0    0  0.00000000000E+00  0.00000000000E+00  0.74505805969E-08  0.10566000000E+00  0.10566000000E+00 0. -1.
     999900   -1    0    0    0    0 -0.00000000000E+00 -0.00000000000E+00 -0.74505805969E-08  0.93827000000E+00  0.93827000000E+00 0.  1.
     999902    2    1    2    0    0 -0.56746721188E-02 -0.41785877855E-02 -0.10351593811E-01  0.10314073009E+01  0.10313312767E+01 0.  0.
     999903    2    3    3    0    0  0.84988637811E-01 -0.96364520658E-01 -0.39863367274E-01  0.14146964755E+00  0.43765097161E-01 0.  0.
         14    1    1    2    0    0  0.56746721188E-02  0.41785877855E-02  0.10351593811E-01  0.12522699149E-01  0.00000000000E+00 0. -1.
     999901    1    3    3    0    0 -0.90663309930E-01  0.92185932872E-01  0.29511773463E-01  0.88993765330E+00  0.88000000000E+00 0. -1.
        -11    1    4    4    0    0  0.43370112370E-01 -0.36972823890E-01  0.32723959778E-02  0.57087004211E-01  0.51100000000E-03 0.  1.
         11    1    4    4    0    0  0.41618525441E-01 -0.59391696768E-01 -0.43135763252E-01  0.84382643341E-01  0.51100000000E-03 0. -1.
</event>
<event>
 8    1  0.2929965E+004  0.1043930E+01  0.7957747E-01            NaN
         13   -1    0    0    0    0  0.00000000000E+00  0.00000000000E+00  0.74505805969E-08  0.10566000000E+00  0.10566000000E+00 0. -1.
     999900   -1    0    0    0    0 -0.00000000000E+00 -0.00000000000E+00 -0.74505805969E-08  0.93827000000E+00  0.93827000000E+00 0. -1.
     999902    2    1    2    0    0  0.11539454012E-01  0.37378277586E-03 -0.66976720792E-02  0.10305824338E+01  0.10304959948E+01 0.  0.
     999903    2    3    3    0    0  0.69865176032E-01  0.33893833706E-01  0.10792385351E+00  0.14060289594E+00  0.45734903563E-01 0.  0.
         14    1    1    2    0    0 -0.11539454012E-01 -0.37378277586E-03  0.66976720792E-02  0.13347566210E-01  0.00000000000E+00 0. -1.
     999901    1    3    3    0    0 -0.58325722021E-01 -0.33520050930E-01 -0.11462152559E+00  0.88997953785E+00  0.88000000000E+00 0. -1.
        -11    1    4    4    0    0  0.22048137678E-01  0.25347435252E-01  0.17325042061E-01  0.37802527063E-01  0.51100000000E-03 0. -1.
         11    1    4    4    0    0  0.47817038355E-01  0.85463984542E-02  0.90598811452E-01  0.10280036888E+00  0.51100000000E-03 0.  1.
</event>
<event>
 8    1  0.2929965E+004  0.1043930E+01  0.7957747E-01            NaN
         13   -1    0    0    0    0  0.00000000000E+00  0.00000000000E+00  0.74505805969E-08  0.10566000000E+00  0.10566000000E+00 0. -1.
     999900   -1    0    0    0    0 -0.00000000000E+00 -0.00000000000E+00 -0.74505805969E-08  0.93827000000E+00  0.93827000000E+00 0. -1.
     999902    2    1    2    0    0 -0.75482882788E-02  0.14672690083E-01  0.66010587891E-03  0.10274163623E+01  0.10272836421E+01 0.  0.
     999903    2    3    3    0    0  0.16184663081E-01 -0.10715080215E+00  0.68907832218E-01  0.13609040151E+00  0.45045203086E-01 0.  0.
         14    1    1    2    0    0  0.75482882788E-02 -0.14672690083E-01 -0.66010587891E-03  0.16513637697E-01  0.00000000000E+00 0.  1.
     999901    1    3    3    0    0 -0.23732951360E-01  0.12182349223E+00 -0.68247726339E-01  0.89132596080E+00  0.88000000000E+00 0. -1.
        -11    1    4    4    0    0  0.26400229944E-01 -0.34709916531E-01  0.32383921611E-01  0.54320621744E-01  0.51100000000E-03 0.  1.
         11    1    4    4    0    0 -0.10215566864E-01 -0.72440885618E-01  0.36523910607E-01  0.81769779763E-01  0.51100000000E-03 0. -1.
</event>
<event>
 8    1  0.2929965E+004  0.1043930E+01  0.7957747E-01            NaN
         13   -1    0    0    0    0  0.00000000000E+00  0.00000000000E+00  0.74505805969E-08  0.10566000000E+00  0.10566000000E+00 0. -1.
     999900   -1    0    0    0    0 -0.00000000000E+00 -0.00000000000E+00 -0.74505805969E-08  0.93827000000E+00  0.93827000000E+00 0.  1.
     999902    2    1    2    0    0  0.95645058033E-02  0.72511406270E-03  0.99361587371E-02  0.10301193949E+01  0.10300268128E+01 0.  0.
     999903    2    3    3    0    0  0.16033244951E-01 -0.74918413977E-01  0.10962012482E+00  0.14124331752E+00  0.45423224019E-01 0.  0.
         14    1    1    2    0    0 -0.95645058033E-02 -0.72511406270E-03 -0.99361587371E-02  0.13810605060E-01  0.00000000000E+00 0.  1.
     999901    1    3    3    0    0 -0.64687391475E-02  0.75643528040E-01 -0.99683966087E-01  0.88887607742E+00  0.88000000000E+00 0.  1.
        -11    1    4    4    0    0 -0.80024057655E-02 -0.32641596187E-01  0.72990658822E-01  0.80358009532E-01  0.51100000000E-03 0.  1.
         11    1    4    4    0    0  0.24035650716E-01 -0.42276817790E-01  0.36629466002E-01  0.60885307985E-01  0.51100000000E-03 0. -1.
</event>
<event>
 8    1  0.2929965E+004  0.1043930E+01  0.7957747E-01            NaN
         13   -1    0    0    0    0  0.00000000000E+00  0.00000000000E+00  0.74505805969E-08  0.10566000000E+00  0.10566000000E+00 0. -1.
     999900   -1    0    0    0    0 -0.00000000000E+00 -0.00000000000E+00 -0.74505805969E-08  0.93827000000E+00  0.93827000000E+00 0. -1.
     999902    2    1    2    0    0 -0.89550293245E-02 -0.74631123849E-02  0.85707643773E-02  0.10294611162E+01  0.10293594324E+01 0.  0.
     999903    2    3    3    0    0 -0.12238135653E+00  0.41019164217E-01  0.32373523203E-01  0.14053894065E+00  0.45203767242E-01 0.  0.
         14    1    1    2    0    0  0.89550293245E-02  0.74631123849E-02 -0.85707643773E-02  0.14468883809E-01  0.00000000000E+00 0.  1.
     999901    1    3    3    0    0  0.11342632721E+00 -0.48482276602E-01 -0.23802758825E-01  0.88892217555E+00  0.88000000000E+00 0. -1.
        -11    1    4    4    0    0 -0.10096499802E+00  0.19069962089E-01  0.11397966206E-01  0.10338166682E+00  0.51100000000E-03 0. -1.
         11    1    4    4    0    0 -0.21416358516E-01  0.21949202129E-01  0.20975556996E-01  0.37157273830E-01  0.51100000000E-03 0.  1.
</event>
<event>
 8    1  0.2929965E+004  0.1043930E+01  0.7957747E-01            NaN
         13   -1    0    0    0    0  0.00000000000E+00  0.00000000000E+00  0.74505805969E-08  0.10566000000E+00  0.10566000000E+00 0.  1.
     999900   -1    0    0    0    0 -0.00000000000E+00 -0.00000000000E+00 -0.74505805969E-08  0.93827000000E+00  0.93827000000E+00 0. -1.
     999902    2    1    2    0    0 -0.10933248450E-01  0.45742067649E-02 -0.74184601930E-02  0.10299481246E+01  0.10298532160E+01 0.  0.
     999903    2    3    3    0    0 -0.11705822131E+00 -0.41035671063E-01  0.48184495278E-01  0.14065938659E+00  0.45571525932E-01 0.  0.
         14    1    1    2    0    0  0.10933248450E-01 -0.45742067649E-02  0.74184601930E-02  0.13981875440E-01  0.00000000000E+00 0.  1.
     999901    1    3    3    0    0  0.10612497286E+00  0.45609877828E-01 -0.55602955471E-01  0.88928873797E+00  0.88000000000E+00 0. -1.
        -11    1    4    4    0    0 -0.54135270566E-01  0.28828171442E-02  0.10710941092E-01  0.55262315677E-01  0.51100000000E-03 0.  1.
         11    1    4    4    0    0 -0.62922950742E-01 -0.43918488207E-01  0.37473554185E-01  0.85397070915E-01  0.51100000000E-03 0. -1.
</event>
<event>
 8    1  0.2929965E+004  0.1043930E+01  0.7957747E-01            NaN
         13   -1    0    0    0    0  0.00000000000E+00  0.00000000000E+00  0.74505805969E-08  0.10566000000E+00  0.10566000000E+00 0.  1.
     999900   -1    0    0    0    0 -0.00000000000E+00 -0.00000000000E+00 -0.74505805969E-08  0.93827000000E+00  0.93827000000E+00 0. -1.
     999902    2    1    2    0    0 -0.26683422995E-02  0.91357222921E-02 -0.74431902700E-02  0.10318476760E+01  0.10317769351E+01 0.  0.
     999903    2    3    3    0    0  0.73266543490E-01  0.10325954710E+00 -0.46774957312E-01  0.14270629848E+00  0.46332175988E-01 0.  0.
         14    1    1    2    0    0  0.26683422995E-02 -0.91357222921E-02  0.74431902700E-02  0.12082324024E-01  0.00000000000E+00 0.  1.
     999901    1    3    3    0    0 -0.75934885789E-01 -0.94123824809E-01  0.39331767042E-01  0.88914137750E+00  0.88000000000E+00 0.  1.
        -11    1    4    4    0    0  0.50018884262E-01  0.97160355018E-01 -0.46238724851E-01  0.11866045747E+00  0.51100000000E-03 0.  1.
         11    1    4    4    0    0  0.23247659228E-01  0.60991920832E-02 -0.53623246078E-03  0.24045841010E-01  0.51100000000E-03 0. -1.
</event>
<event>
 8    1  0.2929965E+004  0.1043930E+01  0.7957747E-01            NaN
         13   -1    0    0    0    0  0.00000000000E+00  0.00000000000E+00  0.74505805969E-08  0.10566000000E+00  0.10566000000E+00 0. -1.
     999900   -1    0    0    0    0 -0.00000000000E+00 -0.00000000000E+00 -0.74505805969E-08  0.93827000000E+00  0.93827000000E+00 0. -1.
     999902    2    1    2    0    0 -0.69151064315E-02  0.10077686124E-01 -0.56848514415E-02  0.10304505345E+01  0.10303623673E+01 0.  0.
     999903    2    3    3    0    0  0.40440797734E-01 -0.23144403927E-02  0.12568236251E+00  0.13935374325E+00  0.44526337762E-01 0.  0.
         14    1    1    2    0    0  0.69151064315E-02 -0.10077686124E-01  0.56848514415E-02  0.13479465512E-01  0.00000000000E+00 0. -1.
     999901    1    3    3    0    0 -0.47355904165E-01  0.12392126516E-01 -0.13136721395E+00  0.89109679124E+00  0.88000000000E+00 0. -1.
        -11    1    4    4    0    0  0.25946570759E-02 -0.18097292283E-01  0.28380118040E-01  0.33762944989E-01  0.51100000000E-03 0.  1.
         11    1    4    4    0    0  0.37846140658E-01  0.15782851890E-01  0.97302244472E-01  0.10559079826E+00  0.51100000000E-03 0. -1.
</event>
<event>
 8    1  0.2929965E+004  0.1043930E+01  0.7957747E-01            NaN
         13   -1    0    0    0    0  0.00000000000E+00  0.00000000000E+00  0.74505805969E-08  0.10566000000E+00  0.10566000000E+00 0.  1.
     999900   -1    0    0    0    0 -0.00000000000E+00 -0.00000000000E+00 -0.74505805969E-08  0.93827000000E+00  0.93827000000E+00 0.  1.
     999902    2    1    2    0    0 -0.10128063808E-01  0.75587483940E-02  0.13801767352E-01  0.10252163383E+01  0.10250455303E+01 0.  0.
     999903    2    3    3    0    0 -0.11700627766E+00 -0.51933371369E-01 -0.16475928151E-01  0.13623995851E+00  0.43615662453E-01 0.  0.
         14    1    1    2    0    0  0.10128063808E-01 -0.75587483940E-02 -0.13801767352E-01  0.18713661742E-01  0.00000000000E+00 0. -1.
     999901    1    3    3    0    0  0.10687821385E+00  0.59492119763E-01  0.30277695502E-01  0.88897637975E+00  0.88000000000E+00 0.  1.
        -11    1    4    4    0    0 -0.10250406748E+00 -0.44611769860E-01 -0.29263347961E-01  0.11555906938E+00  0.51100000000E-03 0. -1.
         11    1    4    4    0    0 -0.14502210182E-01 -0.73216015088E-02  0.12787419811E-01  0.20680889130E-01  0.51100000000E-03 0.  1.
</event>
<event>
 8    1  0.2929965E+004  0.1043930E+01  0.7957747E-01            NaN
         13   -1    0    0    0    0  0.00000000000E+00  0.00000000000E+00  0.74505805969E-08  0.10566000000E+00  0.10566000000E+00 0. -1.
     999900   -1    0    0    0    0 -0.00000000000E+00 -0.00000000000E+00 -0.74505805969E-08  0.93827000000E+00  0.93827000000E+00 0. -1.
     999902    2    1    2    0    0  0.12136692884E-01  0.63353992985E-02  0.97918331913E-03  0.10302042797E+01  0.10301128397E+01 0.  0.
     999903    2    3    3    0    0 -0.60913475820E-01 -0.10630130459E+00 -0.43706655723E-01  0.13890176177E+00  0.48713537899E-01 0.  0.
         14    1    1    2    0    0 -0.12136692884E-01 -0.63353992985E-02 -0.97918331913E-03  0.13725720324E-01  0.00000000000E+00 0. -1.
     999901    1    3    3    0    0  0.73050168704E-01  0.11263670389E+00  0.44685839042E-01  0.89130251790E+00  0.88000000000E+00 0. -1.
        -11    1    4    4    0    0 -0.31124688557E-01 -0.41829430551E-01 -0.43459982262E-01  0.67878410980E-01  0.51100000000E-03 0. -1.
         11    1    4    4    0    0 -0.29788787263E-01 -0.64471874041E-01 -0.24667346074E-03  0.71023350792E-01  0.51100000000E-03 0.  1.
</event>
<event>
 8    1  0.2929965E+004  0.1043930E+01  0.7957747E-01            NaN
         13   -1    0    0    0    0  0.00000000000E+00  0.00000000000E+00  0.74505805969E-08  0.10566000000E+00  0.10566000000E+00 0.  1.
     999900   -1    0    0    0    0 -0.00000000000E+00 -0.00000000000E+00 -0.74505805969E-08  0.93827000000E+00  0.93827000000E+00 0.  1.
     999902    2    1    2    0    0  0.10583074343E-01 -0.13020804397E-02 -0.96165519424E-02  0.10295712066E+01  0.10294710751E+01 0.  0.
     999903    2    3    3    0    0 -0.17294720925E-02 -0.38978867812E-01 -0.12770422623E+00  0.14079911102E+00  0.44650610918E-01 0.  0.
         14    1    1    2    0    0 -0.10583074343E-01  0.13020804397E-02  0.96165519424E-02  0.14358793378E-01  0.00000000000E+00 0. -1.
     999901    1    3    3    0    0  0.12312546435E-01  0.37676787373E-01  0.11808767429E+00  0.88877209560E+00  0.88000000000E+00 0. -1.
        -11    1    4    4    0    0  0.57322745635E-02 -0.45449552432E-01 -0.11939308383E+00  0.12788076624E+00  0.51100000000E-03 0.  1.
         11    1    4    4    0    0 -0.74617466560E-02  0.64706846197E-02 -0.83111424075E-02  0.12918344775E-01  0.51100000000E-03 0. -1.
</event>
<event>
 7    1  0.2929965E+004  0.1043930E+01  0.7957747E-01            NaN
         13   -1    0    0    0    0  0.00000000000E+00  0.00000000000E+00  0.74505805969E-08  0.10566000000E+00  0.10566000000E+00 0. -1.
     999900   -1    0    0    0    0 -0.00000000000E+00 -0.00000000000E+00 -0.74505805969E-08  0.93827000000E+00  0.93827000000E+00 0. -1.
     999902    2    1    2    0    0  0.45845395335E-03 -0.12987539355E-01  0.11611303477E-01  0.10265027591E+01  0.10263548147E+01 0.  0.
         14    1    1    2    0    0 -0.45845395335E-03  0.12987539355E-01 -0.11611303477E-01  0.17427240945E-01  0.00000000000E+00 0.  1.
     999901    1    3    3    0    0 -0.64503309295E-01  0.74838389559E-01  0.45222799107E-01  0.88668289880E+00  0.88000000000E+00 0. -1.
        -11    1    3    3    0    0  0.30856818020E-01 -0.93989508427E-01 -0.13766611819E-01  0.99879685796E-01  0.51100000000E-03 0.  1.
         11    1    3    3    0    0  0.34104945228E-01  0.61635795132E-02 -0.19844883811E-01  0.39940174460E-01  0.51100000000E-03 0. -1.
</event>
<event>
 8    1  0.2929965E+004  0.1043930E+01  0.7957747E-01            NaN
         13   -1    0    0    0    0  0.00000000000E+00  0.00000000000E+00  0.74505805969E-08  0.10566000000E+00  0.10566000000E+00 0. -1.
     999900   -1    0    0    0    0 -0.00000000000E+00 -0.00000000000E+00 -0.74505805969E-08  0.93827000000E+00  0.93827000000E+00 0. -1.
     999902    2    1    2    0    0 -0.10629766800E-01 -0.72318676570E-02 -0.27205786071E-02  0.10307887139E+01  0.10307049429E+01 0.  0.
     999903    2    3    3    0    0  0.95514205802E-01  0.39286575228E-02  0.90812665277E-01  0.13941922377E+00  0.45303221993E-01 0.  0.
         14    1    1    2    0    0  0.10629766800E-01  0.72318676570E-02  0.27205786071E-02  0.13141286086E-01  0.00000000000E+00 0. -1.
     999901    1    3    3    0    0 -0.10614397260E+00 -0.11160525180E-01 -0.93533243885E-01  0.89136949014E+00  0.88000000000E+00 0.  1.
        -11    1    4    4    0    0  0.60756918943E-01  0.17274663779E-01  0.34683906288E-01  0.72062831505E-01  0.51100000000E-03 0.  1.
         11    1    4    4    0    0  0.34757286859E-01 -0.13346006256E-01  0.56128758989E-01  0.67356392268E-01  0.51100000000E-03 0. -1.
</event>
<event>
 8    1  0.2929965E+004  0.1043930E+01  0.7957747E-01            NaN
         13   -1    0    0    0    0  0.00000000000E+00  0.00000000000E+00  0.74505805969E-08  0.10566000000E+00  0.10566000000E+00 0. -1.
     999900   -1    0    0    0    0 -0.00000000000E+00 -0.00000000000E+00 -0.74505805969E-08  0.93827000000E+00  0.93827000000E+00 0.  1.
     999902    2    1    2    0    0 -0.73942794079E-02 -0.92910079000E-02 -0.75252730188E-02  0.10298719799E+01  0.10297760276E+01 0.  0.
     999903    2    3    3    0    0  0.78609876418E-01  0.10163051866E+00 -0.26095973040E-01  0.13855544196E+00  0.44814458537E-01 0.  0.
         14    1    1    2    0    0  0.73942794079E-02  0.92910079000E-02  0.75252730188E-02  0.14058020123E-01  0.00000000000E+00 0. -1.
     999901    1    3    3    0    0 -0.86004155826E-01 -0.11092152656E+00  0.18570700021E-01  0.89131653792E+00  0.88000000000E+00 0.  1.
        -11    1    4    4    0    0  0.81238572868E-01  0.83890144243E-01 -0.15729056953E-01  0.11783431748E+00  0.51100000000E-03 0. -1.
         11    1    4    4    0    0 -0.26286964498E-02  0.17740374413E-01 -0.10366916087E-01  0.20721124474E-01  0.51100000000E-03 0.  1.
</event>
<event>
 8    1  0.2929965E+004  0.1043930E+01  0.7957747E-01            NaN
         13   -1    0    0    0    0  0.00000000000E+00  0.00000000000E+00  0.74505805969E-08  0.10566000000E+00  0.10566000000E+00 0.  1.
     999900   -1    0    0    0    0 -0.00000000000E+00 -0.00000000000E+00 -0.74505805969E-08  0.93827000000E+00  0.93827000000E+00 0. -1.
     999902    2    1    2    0    0  0.32230416299E-02 -0.94752952675E-02 -0.81992811610E-02  0.10309917842E+01  0.10309105982E+01 0.  0.
     999903    2    3    3    0    0 -0.88239767208E-01 -0.95942615211E-01 -0.32106706195E-01  0.14171477006E+00  0.45398166709E-01 0.  0.
         14    1    1    2    0    0 -0.32230416299E-02  0.94752952675E-02  0.81992811610E-02  0.12938215847E-01  0.00000000000E+00 0.  1.
     999901    1    3    3    0    0  0.91462808837E-01  0.86467319944E-01  0.23907425034E-01  0.88927701409E+00  0.88000000000E+00 0. -1.
        -11    1    4    4    0    0 -0.33201984244E-01 -0.41649696994E-01 -0.36022700598E-01  0.64303694270E-01  0.51100000000E-03 0.  1.
         11    1    4    4    0    0 -0.55037782963E-01 -0.54292918218E-01  0.39159944026E-02  0.77411075792E-01  0.51100000000E-03 0. -1.
</event>
<event>
 8    1  0.2929965E+004  0.1043930E+01  0.7957747E-01            NaN
         13   -1    0    0    0    0  0.00000000000E+00  0.00000000000E+00  0.74505805969E-08  0.10566000000E+00  0.10566000000E+00 0. -1.
     999900   -1    0    0    0    0 -0.00000000000E+00 -0.00000000000E+00 -0.74505805969E-08  0.93827000000E+00  0.93827000000E+00 0. -1.
     999902    2    1    2    0    0  0.10132881602E-01  0.46524072079E-02 -0.71139657985E-02  0.10307039389E+01  0.10306190766E+01 0.  0.
     999903    2    3    3    0    0  0.40108352097E-01 -0.80363821330E-01  0.96915130674E-01  0.14000289993E+00  0.46273596658E-01 0.  0.
         14    1    1    2    0    0 -0.10132881602E-01 -0.46524072079E-02  0.71139657985E-02  0.13226061083E-01  0.00000000000E+00 0. -1.
     999901    1    3    3    0    0 -0.29975470495E-01  0.85016228538E-01 -0.10402909647E+00  0.89070103899E+00  0.88000000000E+00 0. -1.
        -11    1    4    4    0    0  0.36493833877E-01 -0.32533920306E-01  0.28970461729E-01  0.56831370345E-01  0.51100000000E-03 0.  1.
         11    1    4    4    0    0  0.36145182201E-02 -0.47829901024E-01  0.67944668945E-01  0.83171529581E-01  0.51100000000E-03 0. -1.
</event>
<event>
 8    1  0.2929965E+004  0.1043930E+01  0.7957747E-01            NaN
         13   -1    0    0    0    0  0.00000000000E+00  0.00000000000E+00  0.74505805969E-08  0.10566000000E+00  0.10566000000E+00 0.  1.
     999900   -1    0    0    0    0 -0.00000000000E+00 -0.00000000000E+00 -0.74505805969E-08  0.93827000000E+00  0.93827000000E+00 0.  1.
     999902    2    1    2    0    0 -0.30376720170E-02  0.66263452669E-02  0.12742672942E-01  0.10292496861E+01  0.10291449872E+01 0.  0.
     999903    2    3    3    0    0  0.66100199963E-01  0.10994296125E+00  0.34589049941E-01  0.14024370598E+00  0.44891018326E-01 0.  0.
         14    1    1    2    0    0  0.30376720170E-02 -0.66263452669E-02 -0.12742672942E-01  0.14680313913E-01  0.00000000000E+00 0. -1.
     999901    1    3    3    0    0 -0.69137871980E-01 -0.10331661599E+00 -0.21846376999E-01  0.88900598011E+00  0.88000000000E+00 0. -1.
        -11    1    4    4    0    0  0.47573473108E-01  0.94910597653E-01  0.43550906043E-01  0.11475277525E+00  0.51100000000E-03 0. -1.
         11    1    4    4    0    0  0.18526726855E-01  0.15032363600E-01 -0.89618561015E-02  0.25490930723E-01  0.51100000000E-03 0.  1.
</event>
<event>
 8    1  0.2929965E+004  0.1043930E+01  0.7957747E-01            NaN
         13   -1    0    0    0    0  0.00000000000E+00  0.00000000000E+00  0.74505805969E-08  0.10566000000E+00  0.10566000000E+00 0. -1.
     999900   -1    0    0    0    0 -0.00000000000E+00 -0.00000000000E+00 -0.74505805969E-08  0.93827000000E+00  0.93827000000E+00 0. -1.
     999902    2    1    2    0    0  0.12624410387E-01 -0.40381481360E-02  0.44407392187E-02  0.10299513540E+01  0.10298564896E+01 0.  0.
     999903    2    3    3    0    0 -0.42112808887E-01 -0.12563652693E+00 -0.35952332098E-02  0.13986882655E+00  0.44635606501E-01 0.  0.
         14    1    1    2    0    0 -0.12624410387E-01  0.40381481360E-02 -0.44407392187E-02  0.13978645957E-01  0.00000000000E+00 0.  1.
     999901    1    3    3    0    0  0.54737219274E-01  0.12159837879E+00  0.80359724284E-02  0.89008252749E+00  0.88000000000E+00 0. -1.
        -11    1    4    4    0    0 -0.17262080540E-01 -0.77798472480E-01 -0.22387796569E-01  0.82777148422E-01  0.51100000000E-03 0.  1.
         11    1    4    4    0    0 -0.24850728347E-01 -0.47838054447E-01  0.18792563359E-01  0.57091678126E-01  0.51100000000E-03 0. -1.
</event>
<event>
 8    1  0.2929965E+004  0.1043930E+01  0.7957747E-01            NaN
         13   -1    0    0    0    0  0.00000000000E+00  0.00000000000E+00  0.74505805969E-08  0.10566000000E+00  0.10566000000E+00 0.  1.
     999900   -1    0    0    0    0 -0.00000000000E+00 -0.00000000000E+00 -0.74505805969E-08  0.93827000000E+00  0.93827000000E+00 0. -1.
     999902    2    1    2    0    0  0.12504657495E-01  0.33113460010E-03  0.97722422982E-02  0.10280563480E+01  0.10279337925E+01 0.  0.
     999903    2    3    3    0    0  0.73091527012E-01 -0.10771163015E+00 -0.15485556078E-01  0.13902206058E+00  0.46294322444E-01 0.  0.
         14    1    1    2    0    0 -0.12504657495E-01 -0.33113460010E-03 -0.97722422982E-02  0.15873652029E-01  0.00000000000E+00 0. -1.
     999901    1    3    3    0    0 -0.60586869517E-01  0.10804276475E+00  0.25257798376E-01  0.88903428739E+00  0.88000000000E+00 0. -1.
        -11    1    4    4    0    0  0.19158814490E-01 -0.69391962570E-01 -0.86589820510E-02  0.72508921748E-01  0.51100000000E-03 0.  1.
         11    1    4    4    0    0  0.53932712522E-01 -0.38319667583E-01 -0.68265740269E-02  0.66513138835E-01  0.51100000000E-03 0. -1.
</event>
<event>
 8    1  0.2929965E+004  0.1043930E+01  0.7957747E-01            NaN
         13   -1    0    0    0    0  0.00000000000E+00  0.00000000000E+00  0.74505805969E-08  0.10566000000E+00  0.10566000000E+00 0.  1.
     999900   -1    0    0    0    0 -0.00000000000E+00 -0.00000000000E+00 -0.74505805969E-08  0.93827000000E+00  0.93827000000E+00 0. -1.
     999902    2    1    2    0    0  0.30967104402E-02 -0.15800572208E-01 -0.73921344328E-03  0.10278118694E+01  0.10276854795E+01 0.  0.
     999903    2    3    3    0    0  0.13910211705E-01  0.97561837503E-01  0.83196511795E-01  0.13651328098E+00  0.44748298090E-01 0.  0.
         14    1    1    2    0    0 -0.30967104402E-02  0.15800572208E-01  0.73921344328E-03  0.16118130604E-01  0.00000000000E+00 0. -1.
     999901    1    3    3    0    0 -0.10813501264E-01 -0.11336240971E+00 -0.83935725238E-01  0.89129858842E+00  0.88000000000E+00 0. -1.
        -11    1    4    4    0    0  0.59273412084E-02  0.16872898637E-02  0.21144490256E-01  0.22030227191E-01  0.51100000000E-03 0. -1.
         11    1    4    4    0    0  0.79828704963E-02  0.95874547639E-01  0.62052021539E-01  0.11448305379E+00  0.51100000000E-03 0.  1.
</event>
<event>
 8    1  0.2929965E+004  0.1043930E+01  0.7957747E-01            NaN
         13   -1    0    0    0    0  0.00000000000E+00  0.00000000000E+00  0.74505805969E-08  0.10566000000E+00  0.10566000000E+00 0. -1.
     999900   -1    0    0    0    0 -0.00000000000E+00 -0.00000000000E+00 -0.74505805969E-08  0.93827000000E+00  0.93827000000E+00 0. -1.
     999902    2    1    2    0    0  0.17209469419E-02 -0.67010677489E-02  0.11989093638E-01  0.10300878783E+01  0.10299948702E+01 0.  0.
     999903    2    3    3    0    0 -0.13021830438E-01  0.90868536954E-01 -0.93322519228E-01  0.13833246728E+00  0.44722699304E-01 0.  0.
         14    1    1    2    0    0 -0.17209469419E-02  0.67010677489E-02 -0.11989093638E-01  0.13842121716E-01  0.00000000000E+00 0.  1.
     999901    1    3    3    0    0  0.14742777380E-01 -0.97569604703E-01  0.10531161287E+00  0.89175541100E+00  0.88000000000E+00 0.  1.
        -11    1    4    4    0    0 -0.10508788925E-01  0.61965232154E-02 -0.30546258298E-01  0.32896300121E-01  0.51100000000E-03 0.  1.
         11    1    4    4    0    0 -0.25130415134E-02  0.84672013739E-01 -0.62776260930E-01  0.10543616716E+00  0.51100000000E-03 0. -1.
</event>
<event>
 8    1  0.2929965E+004  0.1043930E+01  0.7957747E-01            NaN
         13   -1    0    0    0    0  0.00000000000E+00  0.00000000000E+00  0.74505805969E-08  0.10566000000E+00  0.10566000000E+00 0.  1.
     999900   -1    0    0    0    0 -0.00000000000E+00 -0.00000000000E+00 -0.74505805969E-08  0.93827000000E+00  0.93827000000E+00 0.  1.
     999902    2    1    2    0    0  0.37517929022E-02 -0.29287847043E-02 -0.12082363904E-01  0.10309439595E+01  0.10308621685E+01 0.  0.
     999903    2    3    3    0    0  0.84972139411E-01  0.75285625915E-01  0.68838959394E-01  0.14006658340E+00  0.44627967801E-01 0.  0.
         14    1    1    2    0    0 -0.37517929022E-02  0.29287847043E-02  0.12082363904E-01  0.12986040479E-01  0.00000000000E+00 0.  1.
     999901    1    3    3    0    0 -0.81220346509E-01 -0.78214410619E-01 -0.80921323298E-01  0.89087737612E+00  0.88000000000E+00 0.  1.
        -11    1    4    4    0    0  0.53779003521E-01  0.70917650095E-01  0.40865634087E-01  0.97937508061E-01  0.51100000000E-03 0.  1.
         11    1    4    4    0    0  0.31193135890E-01  0.43679758193E-02  0.27973325307E-01  0.42129075342E-01  0.51100000000E-03 0. -1.
</event>
<event>
 8    1  0.2929965E+004  0.1043930E+01  0.7957747E-01            NaN
         13   -1    0    0    0    0  0.00000000000E+00  0.00000000000E+00  0.74505805969E-08  0.10566000000E+00  0.10566000000E+00 0.  1.
     999900   -1    0    0    0    0 -0.00000000000E+00 -0.00000000000E+00 -0.74505805969E-08  0.93827000000E+00  0.93827000000E+00 0.  1.
     999902    2    1    2    0    0  0.11138717334E-01  0.97691337096E-03 -0.96382386038E-02  0.10291678515E+01  0.10290619737E+01 0.  0.
     999903    2    3    3    0    0  0.44231582724E-01 -0.48215253566E-01 -0.11597821153E+00  0.14078550319E+00  0.45699767760E-01 0.  0.
         14    1    1    2    0    0 -0.11138717334E-01 -0.97691337096E-03  0.96382386038E-02  0.14762148454E-01  0.00000000000E+00 0.  1.
     999901    1    3    3    0    0 -0.33092865390E-01  0.49192166937E-01  0.10633997292E+00  0.88838234836E+00  0.88000000000E+00 0. -1.
        -11    1    4    4    0    0 -0.56637695611E-02  0.24471616983E-02 -0.22491809395E-01  0.23328298200E-01  0.51100000000E-03 0.  1.
         11    1    4    4    0    0  0.49895352285E-01 -0.50662415265E-01 -0.93486402130E-01  0.11745720499E+00  0.51100000000E-03 0. -1.
</event>
<event>
 8    1  0.2929965E+004  0.1043930E+01  0.7957747E-01            NaN
         13   -1    0    0    0    0  0.00000000000E+00  0.00000000000E+00  0.74505805969E-08  0.10566000000E+00  0.10566000000E+00 0.  1.
     999900   -1    0    0    0    0 -0.00000000000E+00 -0.00000000000E+00 -0.74505805969E-08  0.93827000000E+00  0.93827000000E+00 0. -1.
     999902    2    1    2    0    0  0.17731319482E-02 -0.92413706385E-02  0.93792310607E-02  0.10306440336E+01  0.10305583958E+01 0.  0.
     999903    2    3    3    0    0  0.34103225954E-01 -0.12965384622E+00  0.93306574529E-02  0.14185586894E+00  0.45418900542E-01 0.  0.
         14    1    1    2    0    0 -0.17731319482E-02  0.92413706385E-02 -0.93792310607E-02  0.13285966411E-01  0.00000000000E+00 0. -1.
     999901    1    3    3    0    0 -0.32330094005E-01  0.12041247558E+00  0.48573607896E-04  0.88878816464E+00  0.88000000000E+00 0.  1.
        -11    1    4    4    0    0  0.14444967673E-01 -0.32789599606E-01 -0.16863356769E-01  0.39603647003E-01  0.51100000000E-03 0. -1.
         11    1    4    4    0    0  0.19658258281E-01 -0.96864246610E-01  0.26194014222E-01  0.10225222194E+00  0.51100000000E-03 0.  1.
</event>
<event>
 8    1  0.2929965E+004  0.1043930E+01  0.7957747E-01            NaN
         13   -1    0    0    0    0  0.00000000000E+00  0.00000000000E+00  0.74505805969E-08  0.10566000000E+00  0.10566000000E+00 0. -1.
     999900   -1    0    0    0    0 -0.00000000000E+00 -0.00000000000E+00 -0.74505805969E-08  0.93827000000E+00  0.93827000000E+00 0.  1.
     999902    2    1    2    0    0  0.30156394639E-02  0.13559562240E-01  0.10808287551E-02  0.10299971611E+01  0.10299029216E+01 0.  0.
     999903    2    3    3    0    0 -0.46671596493E-01 -0.92962492227E-01  0.80950117616E-01  0.13859664907E+00  0.42846781818E-01 0.  0.
         14    1    1    2    0    0 -0.30156394639E-02 -0.13559562240E-01 -0.10808287551E-02  0.13932838918E-01  0.00000000000E+00 0.  1.
     999901    1    3    3    0    0  0.49687235957E-01  0.10652205447E+00 -0.79869288861E-01  0.89140051201E+00  0.88000000000E+00 0. -1.
        -11    1    4    4    0    0 -0.50418968649E-01 -0.92907738831E-01  0.69426789513E-01  0.12646841723E+00  0.51100000000E-03 0.  1.
         11    1    4    4    0    0  0.37473721563E-02 -0.54753396024E-04  0.11523328103E-01  0.12128231841E-01  0.51100000000E-03 0. -1.
</event>
<event>
 8    1  0.2929965E+004  0.1043930E+01  0.7957747E-01            NaN
         13   -1    0    0    0    0  0.00000000000E+00  0.00000000000E+00  0.74505805969E-08  0.10566000000E+00  0.10566000000E+00 0. -1.
     999900   -1    0    0    0    0 -0.00000000000E+00 -0.00000000000E+00 -0.74505805969E-08  0.93827000000E+00  0.93827000000E+00 0. -1.
     999902    2    1    2    0    0 -0.95912866641E-02  0.23197293461E-01  0.16076008540E-02  0.10187766387E+01  0.10184660760E+01 0.  0.
     999903    2    3    3    0    0  0.87271675335E-01 -0.32102209136E-01 -0.76254480737E-01  0.12832564503E+00  0.44786473319E-01 0.  0.
         14    1    1    2    0    0  0.95912866641E-02 -0.23197293461E-01 -0.16076008540E-02  0.25153361292E-01  0.00000000000E+00 0. -1.
     999901    1    3    3    0    0 -0.96862961999E-01  0.55299502597E-01  0.77862081591E-01  0.89045099368E+00  0.88000000000E+00 0.  1.
        -11    1    4    4    0    0  0.23158625824E-01 -0.18648481353E-01 -0.49112553011E-01  0.57414212449E-01  0.51100000000E-03 0.  1.
         11    1    4    4    0    0  0.64113049511E-01 -0.13453727783E-01 -0.27141927726E-01  0.70911432580E-01  0.51100000000E-03 0. -1.
</event>
<event>
 8    1  0.2929965E+004  0.1043930E+01  0.7957747E-01            NaN
         13   -1    0    0    0    0  0.00000000000E+00  0.00000000000E+00  0.74505805969E-08  0.10566000000E+00  0.10566000000E+00 0. -1.
     999900   -1    0    0    0    0 -0.00000000000E+00 -0.00000000000E+00 -0.74505805969E-08  0.93827000000E+00  0.93827000000E+00 0.  1.
     999902    2    1    2    0    0 -0.28359672101E-02  0.55867194915E-02 -0.12766953651E-01  0.10297085637E+01  0.10296103520E+01 0.  0.
     999903    2    3    3    0    0  0.97804858101E-01 -0.91074246599E-02 -0.89704861564E-01  0.14051570765E+00  0.45265510663E-01 0.  0.
         14    1    1    2    0    0  0.28359672101E-02 -0.55867194915E-02  0.12766953651E-01  0.14221436292E-01  0.00000000000E+00 0. -1.
     999901    1    3    3    0    0 -0.10064082531E+00  0.14694144151E-01  0.76937907913E-01  0.88919285606E+00  0.88000000000E+00 0. -1.
        -11    1    4    4    0    0  0.39217233802E-01  0.17099554579E-01 -0.46246653589E-01  0.63003176770E-01  0.51100000000E-03 0. -1.
         11    1    4    4    0    0  0.58587624300E-01 -0.26206979239E-01 -0.43458207975E-01  0.77512530879E-01  0.51100000000E-03 0.  1.
</event>
<event>
 8    1  0.2929965E+004  0.1043930E+01  0.7957747E-01            NaN
         13   -1    0    0    0    0  0.00000000000E+00  0.00000000000E+00  0.74505805969E-08  0.10566000000E+00  0.10566000000E+00 0. -1.
     999900   -1    0    0    0    0 -0.00000000000E+00 -0.00000000000E+00 -0.74505805969E-08  0.93827000000E+00  0.93827000000E+00 0. -1.
     999902    2    1    2    0    0 -0.13536419380E-01 -0.41781165019E-02 -0.17600159025E-01  0.10213367066E+01  0.10210867796E+01 0.  0.
     999903    2    3    3    0    0  0.83808407937E-01  0.83064401001E-01  0.31855894015E-01  0.13030742909E+00  0.45184999044E-01 0.  0.
         14    1    1    2    0    0  0.13536419380E-01  0.41781165019E-02  0.17600159025E-01  0.22593293360E-01  0.00000000000E+00 0. -1.
     999901    1    3    3    0    0 -0.97344827317E-01 -0.87242517502E-01 -0.49456053040E-01  0.89102927755E+00  0.88000000000E+00 0.  1.
        -11    1    4    4    0    0  0.39180124459E-01  0.61465698374E-01  0.30333558092E-02  0.72955990828E-01  0.51100000000E-03 0.  1.
         11    1    4    4    0    0  0.44628283477E-01  0.21598702626E-01  0.28822538206E-01  0.57351438264E-01  0.51100000000E-03 0. -1.
</event>
<event>
 8    1  0.2929965E+004  0.1043930E+01  0.7957747E-01            NaN
         13   -1    0    0    0    0  0.00000000000E+00  0.00000000000E+00  0.74505805969E-08  0.10566000000E+00  0.10566000000E+00 0. -1.
     999900   -1    0    0    0    0 -0.00000000000E+00 -0.00000000000E+00 -0.74505805969E-08  0.93827000000E+00  0.93827000000E+00 0.  1.
     999902    2    1    2    0    0 -0.11341613071E-02 -0.12636590144E-01 -0.42424839341E-02  0.10305520928E+01  0.10304652578E+01 0.  0.
     999903    2    3    3    0    0  0.14201903382E-01 -0.13317659420E+00  0.13361584554E-01  0.14202804092E+00  0.45340193681E-01 0.  0.
         14    1    1    2    0    0  0.11341613071E-02  0.12636590144E-01  0.42424839341E-02  0.13377907245E-01  0.00000000000E+00 0. -1.
     999901    1    3    3    0    0 -0.15336064689E-01  0.12054000406E+00 -0.17604068488E-01  0.88852405183E+00  0.88000000000E+00 0.  1.
        -11    1    4    4    0    0  0.15289887855E-01 -0.11430384378E+00 -0.53198231805E-02  0.11544570591E+00  0.51100000000E-03 0.  1.
         11    1    4    4    0    0 -0.10879844728E-02 -0.18872750426E-01  0.18681407735E-01  0.26582335015E-01  0.51100000000E-03 0. -1.
</event>
<event>
 8    1  0.2929965E+004  0.1043930E+01  0.7957747E-01            NaN
         13   -1    0    0    0    0  0.00000000000E+00  0.00000000000E+00  0.74505805969E-08  0.10566000000E+00  0.10566000000E+00 0. -1.
     999900   -1    0    0    0    0 -0.00000000000E+00 -0.00000000000E+00 -0.74505805969E-08  0.93827000000E+00  0.93827000000E+00 0. -1.
     999902    2    1    2    0    0  0.72042158354E-02 -0.19911611736E-02  0.11943876484E-01  0.10298402295E+01  0.10297438403E+01 0.  0.
     999903    2    3    3    0    0  0.10482608494E+00  0.80889157029E-01 -0.10813814322E-01  0.14028017585E+00  0.45055802610E-01 0.  0.
         14    1    1    2    0    0 -0.72042158354E-02  0.19911611736E-02 -0.11943876484E-01  0.14089770548E-01  0.00000000000E+00 0.  1.
     999901    1    3    3    0    0 -0.97621869101E-01 -0.82880318202E-01  0.22757690806E-01  0.88956005360E+00  0.88000000000E+00 0. -1.
        -11    1    4    4    0    0  0.67598174129E-01  0.26543060022E-01  0.40884240017E-02  0.72739421999E-01  0.51100000000E-03 0. -1.
         11    1    4    4    0    0  0.37227910807E-01  0.54346097006E-01 -0.14902238324E-01  0.67540753852E-01  0.51100000000E-03 0.  1.
</event>
<event>
 8    1  0.2929965E+004  0.1043930E+01  0.7957747E-01            NaN
         13   -1    0    0    0    0  0.00000000000E+00  0.00000000000E+00  0.74505805969E-08  0.10566000000E+00  0.10566000000E+00 0. -1.
     999900   -1    0    0    0    0 -0.00000000000E+00 -0.00000000000E+00 -0.74505805969E-08  0.93827000000E+00  0.93827000000E+00 0. -1.
     999902    2    1    2    0    0 -0.83726473136E-02 -0.42934074952E-02 -0.11215573360E-01  0.10292902030E+01  0.10291860854E+01 0.  0.
     999903    2    3    3    0    0  0.12001217477E+00 -0.48936780434E-01 -0.22024990350E-01  0.13878891899E+00  0.44491946052E-01 0.  0.
         14    1    1    2    0    0  0.83726473136E-02  0.42934074952E-02  0.11215573360E-01  0.14639797018E-01  0.00000000000E+00 0. -1.
     999901    1    3    3    0    0 -0.12838482208E+00  0.44643372939E-01  0.10809416990E-01  0.89050128399E+00  0.88000000000E+00 0.  1.
        -11    1    4    4    0    0  0.11247023742E+00 -0.29661324033E-01 -0.18139220474E-01  0.11772272885E+00  0.51100000000E-03 0.  1.
         11    1    4    4    0    0  0.75419373502E-02 -0.19275456401E-01 -0.38857698752E-02  0.21066190140E-01  0.51100000000E-03 0. -1.
</event>
<event>
 8    1  0.2929965E+004  0.1043930E+01  0.7957747E-01            NaN
         13   -1    0    0    0    0  0.00000000000E+00  0.00000000000E+00  0.74505805969E-08  0.10566000000E+00  0.10566000000E+00 0.  1.
     999900   -1    0    0    0    0 -0.00000000000E+00 -0.00000000000E+00 -0.74505805969E-08  0.93827000000E+00  0.93827000000E+00 0.  1.
     999902    2    1    2    0    0 -0.21515597272E-02  0.13424157856E-01 -0.34460806321E-02  0.10299045697E+01  0.10298090648E+01 0.  0.
     999903    2    3    3    0    0 -0.15202705296E-01  0.13413896349E+00 -0.12952484655E-01  0.14151683429E+00  0.40433448476E-01 0.  0.
         14    1    1    2    0    0  0.21515597272E-02 -0.13424157856E-01  0.34460806321E-02  0.14025430300E-01  0.00000000000E+00 0. -1.
     999901    1    3    3    0    0  0.13051145569E-01 -0.12071480563E+00  0.95064040226E-02  0.88838773540E+00  0.88000000000E+00 0. -1.
        -11    1    4    4    0    0 -0.22312504221E-01  0.37181402288E-01 -0.85341422982E-02  0.44197253608E-01  0.51100000000E-03 0. -1.
         11    1    4    4    0    0  0.71097989246E-02  0.96957561202E-01 -0.44183423565E-02  0.97319580687E-01  0.51100000000E-03 0.  1.
</event>
<event>
 8    1  0.2929965E+004  0.1043930E+01  0.7957747E-01            NaN
         13   -1    0    0    0    0  0.00000000000E+00  0.00000000000E+00  0.74505805969E-08  0.10566000000E+00  0.10566000000E+00 0.  1.
     999900   -1    0    0    0    0 -0.00000000000E+00 -0.00000000000E+00 -0.74505805969E-08  0.93827000000E+00  0.93827000000E+00 0. -1.
     999902    2    1    2    0    0 -0.10022362448E-01  0.59455929167E-03 -0.67975049927E-02  0.10318053423E+01  0.10317341019E+01 0.  0.
     999903    2    3    3    0    0  0.64557033435E-01 -0.83294802186E-01 -0.82845380203E-01  0.14142183473E+00  0.45068211417E-01 0.  0.
         14    1    1    2    0    0  0.10022362448E-01 -0.59455929167E-03  0.67975049927E-02  0.12124657683E-01  0.00000000000E+00 0.  1.
     999901    1    3    3    0    0 -0.74579395883E-01  0.83889361478E-01  0.76047875211E-01  0.89038350759E+00  0.88000000000E+00 0.  1.
        -11    1    4    4    0    0  0.39063180866E-01 -0.23151478103E-01 -0.16506178273E-01  0.48318092677E-01  0.51100000000E-03 0. -1.
         11    1    4    4    0    0  0.25493852568E-01 -0.60143324083E-01 -0.66339201931E-01  0.93103742053E-01  0.51100000000E-03 0.  1.
</event>
<event>
 8    1  0.2929965E+004  0.1043930E+01  0.7957747E-01            NaN
         13   -1    0    0    0    0  0.00000000000E+00  0.00000000000E+00  0.74505805969E-08  0.10566000000E+00  0.10566000000E+00 0. -1.
     999900   -1    0    0    0    0 -0.00000000000E+00 -0.00000000000E+00 -0.74505805969E-08  0.93827000000E+00  0.93827000000E+00 0. -1.
     999902    2    1    2    0    0  0.48023199720E-02 -0.10504040175E-01 -0.66372368285E-02  0.10306089621E+01  0.10305228686E+01 0.  0.
     999903    2    3    3    0    0  0.69836329356E-01  0.10514915232E+00 -0.40221895782E-01  0.14002880705E+00  0.45352053675E-01 0.  0.
         14    1    1    2    0    0 -0.48023199720E-02  0.10504040175E-01  0.66372368285E-02  0.13321037866E-01  0.00000000000E+00 0.  1.
     999901    1    3    3    0    0 -0.65034009384E-01 -0.11565319249E+00  0.33584658954E-01  0.89058015508E+00  0.88000000000E+00 0.  1.
        -11    1    4    4    0    0  0.45506134282E-01  0.46534176497E-01 -0.37254328172E-03  0.65089459585E-01  0.51100000000E-03 0. -1.
         11    1    4    4    0    0  0.24330195073E-01  0.58614975821E-01 -0.39849352501E-01  0.74939347465E-01  0.51100000000E-03 0.  1.
</event>
<event>
 8    1  0.2929965E+004  0.1043930E+01  0.7957747E-01            NaN
         13   -1    0    0    0    0  0.00000000000E+00  0.00000000000E+00  0.74505805969E-08  0.10566000000E+00  0.10566000000E+00 0. -1.
     999900   -1    0    0    0    0 -0.00000000000E+00 -0.00000000000E+00 -0.74505805969E-08  0.93827000000E+00  0.93827000000E+00 0. -1.
     999902    2    1    2    0    0  0.38613115828E-02  0.12104191274E-01 -0.51386223972E-02  0.10302250150E+01  0.10301338529E+01 0.  0.
     999903    2    3    3    0    0 -0.81078820527E-01  0.22963354876E-01  0.10193745057E+00  0.13960835624E+00  0.44700766168E-01 0.  0.
         14    1    1    2    0    0 -0.38613115828E-02 -0.12104191274E-01  0.51386223972E-02  0.13704984994E-01  0.00000000000E+00 0.  1.
     999901    1    3    3    0    0  0.84940132110E-01 -0.10859163602E-01 -0.10707607297E+00  0.89061665877E+00  0.88000000000E+00 0.  1.
        -11    1    4    4    0    0 -0.71406808971E-01  0.88500942702E-02  0.57888102241E-01  0.92350149096E-01  0.51100000000E-03 0. -1.
         11    1    4    4    0    0 -0.96720115564E-02  0.14113260606E-01  0.44049348333E-01  0.47258207139E-01  0.51100000000E-03 0.  1.
</event>
<event>
 8    1  0.2929965E+004  0.1043930E+01  0.7957747E-01            NaN
         13   -1    0    0    0    0  0.00000000000E+00  0.00000000000E+00  0.74505805969E-08  0.10566000000E+00  0.10566000000E+00 0.  1.
     999900   -1    0    0    0    0 -0.00000000000E+00 -0.00000000000E+00 -0.74505805969E-08  0.93827000000E+00  0.93827000000E+00 0.  1.
     999902    2    1    2    0    0  0.11915603198E-01 -0.13071344008E-01 -0.56830301487E-02  0.10253520974E+01  0.10251837812E+01 0.  0.
     999903    2    3    3    0    0 -0.27631774904E-02  0.12505655379E+00  0.12788697125E-01  0.13426512775E+00  0.47082873318E-01 0.  0.
         14    1    1    2    0    0 -0.11915603198E-01  0.13071344008E-01  0.56830301487E-02  0.18577902611E-01  0.00000000000E+00 0. -1.
     999901    1    3    3    0    0  0.14678780688E-01 -0.13812789780E+00 -0.18471727274E-01  0.89108696964E+00  0.88000000000E+00 0. -1.
        -11    1    4    4    0    0 -0.18114720893E-01  0.10776367292E+00  0.34784907592E-02  0.10933212397E+00  0.51100000000E-03 0.  1.
         11    1    4    4    0    0  0.15351543403E-01  0.17292880873E-01  0.93102063662E-02  0.24933003777E-01  0.51100000000E-03 0. -1.
</event>
<event>
 8    1  0.2929965E+004  0.1043930E+01  0.7957747E-01            NaN
         13   -1    0    0    0    0  0.00000000000E+00  0.00000000000E+00  0.74505805969E-08  0.10566000000E+00  0.10566000000E+00 0.  1.
     999900   -1    0    0    0    0 -0.00000000000E+00 -0.00000000000E+00 -0.74505805969E-08  0.93827000000E+00  0.93827000000E+00 0.  1.
     999902    2    1    2    0    0 -0.15523225523E-01  0.12358630255E-01  0.16777611443E-02  0.10240171611E+01  0.10238235321E+01 0.  0.
     999903    2    3    3    0    0 -0.10534634940E+00  0.31058045262E-01 -0.67478666625E-01  0.13654858516E+00  0.45052082659E-01 0.  0.
         14    1    1    2    0    0  0.15523225523E-01 -0.12358630255E-01 -0.16777611443E-02  0.19912838945E-01  0.00000000000E+00 0.  1.
     999901    1    3    3    0    0  0.89823123875E-01 -0.18699415007E-01  0.69156427769E-01  0.88746857590E+00  0.88000000000E+00 0.  1.
        -11    1    4    4    0    0 -0.32022093916E-01  0.21596770017E-01 -0.35176923392E-02  0.38787501264E-01  0.51100000000E-03 0.  1.
         11    1    4    4    0    0 -0.73324255482E-01  0.94612752442E-02 -0.63960974285E-01  0.97761083892E-01  0.51100000000E-03 0. -1.
</event>
<event>
 8    1  0.2929965E+004  0.1043930E+01  0.7957747E-01            NaN
         13   -1    0    0    0    0  0.00000000000E+00  0.00000000000E+00  0.74505805969E-08  0.10566000000E+00  0.10566000000E+00 0. -1.
     999900   -1    0    0    0    0 -0.00000000000E+00 -0.00000000000E+00 -0.74505805969E-08  0.93827000000E+00  0.93827000000E+00 0.  1.
     999902    2    1    2    0    0  0.38896311396E-03 -0.13970002360E-01  0.71241288924E-02  0.10282435259E+01  0.10281238656E+01 0.  0.
     999903    2    3    3    0    0  0.77569200438E-01 -0.68167252788E-01 -0.81144418747E-01  0.13881367057E+00  0.44956236885E-01 0.  0.
         14    1    1    2    0    0 -0.38896311396E-03  0.13970002360E-01 -0.71241288924E-02  0.15686474133E-01  0.00000000000E+00 0.  1.
     999901    1    3    3    0    0 -0.77180237324E-01  0.54197250428E-01  0.88268547640E-01  0.88942985529E+00  0.88000000000E+00 0. -1.
        -11    1    4    4    0    0  0.17745604467E-01  0.14747901553E-03 -0.29270823088E-01  0.34234053707E-01  0.51100000000E-03 0. -1.
         11    1    4    4    0    0  0.59823595971E-01 -0.68314731803E-01 -0.51873595659E-01  0.10457961687E+00  0.51100000000E-03 0.  1.
</event>
<event>
 8    1  0.2929965E+004  0.1043930E+01  0.7957747E-01            NaN
         13   -1    0    0    0    0  0.00000000000E+00  0.00000000000E+00  0.74505805969E-08  0.10566000000E+00  0.10566000000E+00 0. -1.
     999900   -1    0    0    0    0 -0.00000000000E+00 -0.00000000000E+00 -0.74505805969E-08  0.93827000000E+00  0.93827000000E+00 0.  1.
     999902    2    1    2    0    0  0.11949025901E-01 -0.72945555180E-02 -0.86228592855E-03  0.10299038353E+01  0.10298083203E+01 0.  0.
     999903    2    3    3    0    0 -0.53671501432E-01  0.11849675785E+00  0.19809273321E-01  0.13830032389E+00  0.42573003109E-01 0.  0.
         14    1    1    2    0    0 -0.11949025901E-01  0.72945555180E-02  0.86228592855E-03  0.14026164737E-01  0.00000000000E+00 0.  1.
     999901    1    3    3    0    0  0.65620527333E-01 -0.12579131336E+00 -0.20671559250E-01  0.89160351137E+00  0.88000000000E+00 0. -1.
        -11    1    4    4    0    0  0.41021614849E-02  0.23162720100E-01 -0.51029911386E-02  0.24075734067E-01  0.51100000000E-03 0. -1.
         11    1    4    4    0    0 -0.57773662917E-01  0.95334037745E-01  0.24912264460E-01  0.11422458983E+00  0.51100000000E-03 0.  1.
</event>
<event>
 8    1  0.2929965E+004  0.1043930E+01  0.7957747E-01            NaN
         13   -1    0    0    0    0  0.00000000000E+00  0.00000000000E+00  0.74505805969E-08  0.10566000000E+00  0.10566000000E+00 0. -1.
     999900   -1    0    0    0    0 -0.00000000000E+00 -0.00000000000E+00 -0.74505805969E-08  0.93827000000E+00  0.93827000000E+00 0.  1.
     999902    2    1    2    0    0  0.74820422391E-02 -0.73463220548E-02  0.83156127600E-02  0.10305472193E+01  0.10304603206E+01 0.  0.
     999903    2    3    3    0    0 -0.63983622705E-01 -0.53005095732E-01 -0.10213697225E+00  0.13959725526E+00  0.46389529286E-01 0.  0.
         14    1    1    2    0    0 -0.74820422391E-02  0.73463220548E-02 -0.83156127600E-02  0.13382780704E-01  0.00000000000E+00 0.  1.
     999901    1    3    3    0    0  0.71465664945E-01  0.45658773677E-01  0.11045258501E+00  0.89094996404E+00  0.88000000000E+00 0.  1.
        -11    1    4    4    0    0 -0.43343640914E-01 -0.96611608989E-02 -0.32576177238E-01  0.55077015914E-01  0.51100000000E-03 0. -1.
         11    1    4    4    0    0 -0.20639981792E-01 -0.43343934833E-01 -0.69560795014E-01  0.84520239346E-01  0.51100000000E-03 0.  1.
</event>
<event>
 8    1  0.2929965E+004  0.1043930E+01  0.7957747E-01            NaN
         13   -1    0    0    0    0  0.00000000000E+00  0.00000000000E+00  0.74505805969E-08  0.10566000000E+00  0.10566000000E+00 0. -1.
     999900   -1    0    0    0    0 -0.00000000000E+00 -0.00000000000E+00 -0.74505805969E-08  0.93827000000E+00  0.93827000000E+00 0. -1.
     999902    2    1    2    0    0  0.63007525443E-02 -0.16087664372E-01  0.75135913109E-02  0.10250894458E+01  0.10249162919E+01 0.  0.
     999903    2    3    3    0    0  0.54295943984E-01  0.21296642127E-01  0.11483561860E+00  0.13648427910E+00  0.45156867054E-01 0.  0.
         14    1    1    2    0    0 -0.63007525443E-02  0.16087664372E-01 -0.75135913109E-02  0.18840554184E-01  0.00000000000E+00 0.  1.
     999901    1    3    3    0    0 -0.47995191439E-01 -0.37384306499E-01 -0.10732202729E+00  0.88860516672E+00  0.88000000000E+00 0. -1.
        -11    1    4    4    0    0  0.25654192885E-01 -0.12135884204E-01  0.58166435126E-01  0.64722581796E-01  0.51100000000E-03 0. -1.
         11    1    4    4    0    0  0.28641751098E-01  0.33432526331E-01  0.56669183478E-01  0.71761697303E-01  0.51100000000E-03 0.  1.
</event>
<event>
 8    1  0.2929965E+004  0.1043930E+01  0.7957747E-01            NaN
         13   -1    0    0    0    0  0.00000000000E+00  0.00000000000E+00  0.74505805969E-08  0.10566000000E+00  0.10566000000E+00 0. -1.
     999900   -1    0    0    0    0 -0.00000000000E+00 -0.00000000000E+00 -0.74505805969E-08  0.93827000000E+00  0.93827000000E+00 0.  1.
     999902    2    1    2    0    0  0.70290592840E-02  0.81683720370E-02  0.59181541217E-02  0.10316355084E+01  0.10315622461E+01 0.  0.
     999903    2    3    3    0    0  0.57371326252E-01 -0.11852239373E+00  0.17911823045E-01  0.14105775092E+00  0.47301467198E-01 0.  0.
         14    1    1    2    0    0 -0.70290592840E-02 -0.81683720370E-02 -0.59181541217E-02  0.12294491627E-01  0.00000000000E+00 0. -1.
     999901    1    3    3    0    0 -0.50342266968E-01  0.12669076577E+00 -0.11993668924E-01  0.89057775745E+00  0.88000000000E+00 0.  1.
        -11    1    4    4    0    0  0.99045136382E-02 -0.73284786087E-01  0.14745022747E-01  0.75408461587E-01  0.51100000000E-03 0. -1.
         11    1    4    4    0    0  0.47466812614E-01 -0.45237607642E-01  0.31668002980E-02  0.65649289334E-01  0.51100000000E-03 0.  1.
</event>
<event>
 8    1  0.2929965E+004  0.1043930E+01  0.7957747E-01            NaN
         13   -1    0    0    0    0  0.00000000000E+00  0.00000000000E+00  0.74505805969E-08  0.10566000000E+00  0.10566000000E+00 0. -1.
     999900   -1    0    0    0    0 -0.00000000000E+00 -0.00000000000E+00 -0.74505805969E-08  0.93827000000E+00  0.93827000000E+00 0. -1.
     999902    2    1    2    0    0 -0.90929874583E-02  0.77766555951E-02  0.42679689092E-02  0.10312266795E+01  0.10311484327E+01 0.  0.
     999903    2    3    3    0    0  0.72838541922E-01 -0.22703777013E-01  0.10948946883E+00  0.14065753770E+00  0.44448672036E-01 0.  0.
         14    1    1    2    0    0  0.90929874583E-02 -0.77766555951E-02 -0.42679689092E-02  0.12703320502E-01  0.00000000000E+00 0.  1.
     999901    1    3    3    0    0 -0.81931529380E-01  0.30480432609E-01 -0.10522149993E+00  0.89056914180E+00  0.88000000000E+00 0. -1.
        -11    1    4    4    0    0  0.64465724147E-01 -0.23566551862E-01  0.62225187381E-01  0.92646894292E-01  0.51100000000E-03 0. -1.
         11    1    4    4    0    0  0.83728177754E-02  0.86277484893E-03  0.47264281454E-01  0.48010643407E-01  0.51100000000E-03 0.  1.
</event>
<event>
 8    1  0.2929965E+004  0.1043930E+01  0.7957747E-01            NaN
         13   -1    0    0    0    0  0.00000000000E+00  0.00000000000E+00  0.74505805969E-08  0.10566000000E+00  0.10566000000E+00 0.  1.
     999900   -1    0    0    0    0 -0.00000000000E+00 -0.00000000000E+00 -0.74505805969E-08  0.93827000000E+00  0.93827000000E+00 0. -1.
     999902    2    1    2    0    0 -0.12160752731E-01  0.65546052491E-02 -0.14518838721E-02  0.10300391856E+01  0.10299455176E+01 0.  0.
     999903    2    3    3    0    0  0.11183186107E-01  0.20240504584E-01  0.13032886397E+00  0.13981538859E+00  0.45033192476E-01 0.  0.
         14    1    1    2    0    0  0.12160752731E-01 -0.65546052491E-02  0.14518838721E-02  0.13890814366E-01  0.00000000000E+00 0.  1.
     999901    1    3    3    0    0 -0.23343938839E-01 -0.13685899335E-01 -0.13178074785E+00  0.89022379704E+00  0.88000000000E+00 0. -1.
        -11    1    4    4    0    0  0.22937573864E-02  0.30916288489E-01  0.11506766968E+00  0.11917175816E+00  0.51100000000E-03 0. -1.
         11    1    4    4    0    0  0.88894287209E-02 -0.10675783906E-01  0.15261194295E-01  0.20643630429E-01  0.51100000000E-03 0.  1.
</event>
<event>
 8    1  0.2929965E+004  0.1043930E+01  0.7957747E-01            NaN
         13   -1    0    0    0    0  0.00000000000E+00  0.00000000000E+00  0.74505805969E-08  0.10566000000E+00  0.10566000000E+00 0.  1.
     999900   -1    0    0    0    0 -0.00000000000E+00 -0.00000000000E+00 -0.74505805969E-08  0.93827000000E+00  0.93827000000E+00 0.  1.
     999902    2    1    2    0    0  0.82314063869E-03  0.33437989325E-03  0.12870565191E-01  0.10310288055E+01  0.10309480865E+01 0.  0.
     999903    2    3    3    0    0 -0.98858562066E-01 -0.61320315384E-01  0.67288259643E-01  0.14159132668E+00  0.44577993831E-01 0.  0.
         14    1    1    2    0    0 -0.82314063869E-03 -0.33437989325E-03 -0.12870565191E-01  0.12901194471E-01  0.00000000000E+00 0. -1.
     999901    1    3    3    0    0  0.99681702705E-01  0.61654695277E-01 -0.54417694451E-01  0.88943747884E+00  0.88000000000E+00 0.  1.
        -11    1    4    4    0    0 -0.74181769513E-01 -0.25643488041E-01  0.28834356795E-01  0.83619403609E-01  0.51100000000E-03 0. -1.
         11    1    4    4    0    0 -0.24676792553E-01 -0.35676827343E-01  0.38453902847E-01  0.57971923076E-01  0.51100000000E-03 0.  1.
</event>
<event>
 8    1  0.2929965E+004  0.1043930E+01  0.7957747E-01            NaN
         13   -1    0    0    0    0  0.00000000000E+00  0.00000000000E+00  0.74505805969E-08  0.10566000000E+00  0.10566000000E+00 0.  1.
     999900   -1    0    0    0    0 -0.00000000000E+00 -0.00000000000E+00 -0.74505805969E-08  0.93827000000E+00  0.93827000000E+00 0. -1.
     999902    2    1    2    0    0 -0.10714145648E-01  0.11466651705E-02 -0.97835567340E-02  0.10293757656E+01  0.10292728700E+01 0.  0.
     999903    2    3    3    0    0 -0.11563831467E+00  0.50001661766E-01  0.41456845150E-01  0.14031925963E+00  0.45808717663E-01 0.  0.
         14    1    1    2    0    0  0.10714145648E-01 -0.11466651705E-02  0.97835567340E-02  0.14554234447E-01  0.00000000000E+00 0.  1.
     999901    1    3    3    0    0  0.10492416902E+00 -0.48854996595E-01 -0.51240401884E-01  0.88905650592E+00  0.88000000000E+00 0. -1.
        -11    1    4    4    0    0 -0.99527013203E-01  0.58577652564E-01  0.32446813438E-01  0.11995842847E+00  0.51100000000E-03 0.  1.
         11    1    4    4    0    0 -0.16111301469E-01 -0.85759907987E-02  0.90100317124E-02  0.20360831164E-01  0.51100000000E-03 0. -1.
</event>
<event>
 8    1  0.2929965E+004  0.1043930E+01  0.7957747E-01            NaN
         13   -1    0    0    0    0  0.00000000000E+00  0.00000000000E+00  0.74505805969E-08  0.10566000000E+00  0.10566000000E+00 0.  1.
     999900   -1    0    0    0    0 -0.00000000000E+00 -0.00000000000E+00 -0.74505805969E-08  0.93827000000E+00  0.93827000000E+00 0. -1.
     999902    2    1    2    0    0 -0.12352165151E-01  0.68238008863E-03 -0.62929874485E-02  0.10300503992E+01  0.10299568834E+01 0.  0.
     999903    2    3    3    0    0  0.63157742737E-01 -0.19498209248E-01 -0.11489326288E+00  0.13993634912E+00  0.44862448870E-01 0.  0.
         14    1    1    2    0    0  0.12352165151E-01 -0.68238008863E-03  0.62929874485E-02  0.13879600770E-01  0.00000000000E+00 0.  1.
     999901    1    3    3    0    0 -0.75509907888E-01  0.20180589336E-01  0.10860027543E+00  0.89011405011E+00  0.88000000000E+00 0.  1.
        -11    1    4    4    0    0  0.51868161710E-01 -0.31788761162E-01 -0.74205054579E-01  0.95955629233E-01  0.51100000000E-03 0.  1.
         11    1    4    4    0    0  0.11289581027E-01  0.12290551914E-01 -0.40688208303E-01  0.43980719890E-01  0.51100000000E-03 0. -1.
</event>
<event>
 8    1  0.2929965E+004  0.1043930E+01  0.7957747E-01            NaN
         13   -1    0    0    0    0  0.00000000000E+00  0.00000000000E+00  0.74505805969E-08  0.10566000000E+00  0.10566000000E+00 0.  1.
     999900   -1    0    0    0    0 -0.00000000000E+00 -0.00000000000E+00 -0.74505805969E-08  0.93827000000E+00  0.93827000000E+00 0. -1.
     999902    2    1    2    0    0 -0.47818913580E-02  0.29184352701E-03 -0.13280905309E-01  0.10298114270E+01  0.10297146406E+01 0.  0.
     999903    2    3    3    0    0  0.51370437601E-01 -0.11829753890E+00  0.27743378853E-01  0.13913779566E+00  0.44231228139E-01 0.  0.
         14    1    1    2    0    0  0.47818913580E-02 -0.29184352701E-03  0.13280905309E-01  0.14118572996E-01  0.00000000000E+00 0.  1.
     999901    1    3    3    0    0 -0.56152328959E-01  0.11858938243E+00 -0.41024284162E-01  0.89067363134E+00  0.88000000000E+00 0. -1.
        -11    1    4    4    0    0  0.39860670789E-01 -0.48850996317E-01  0.27382310053E-01  0.68741144460E-01  0.51100000000E-03 0. -1.
         11    1    4    4    0    0  0.11509766812E-01 -0.69446542586E-01  0.36106880034E-03  0.70396651205E-01  0.51100000000E-03 0.  1.
</event>
<event>
 8    1  0.2929965E+004  0.1043930E+01  0.7957747E-01            NaN
         13   -1    0    0    0    0  0.00000000000E+00  0.00000000000E+00  0.74505805969E-08  0.10566000000E+00  0.10566000000E+00 0.  1.
     999900   -1    0    0    0    0 -0.00000000000E+00 -0.00000000000E+00 -0.74505805969E-08  0.93827000000E+00  0.93827000000E+00 0. -1.
     999902    2    1    2    0    0 -0.10916027748E-01  0.18309247659E-03  0.25623088484E-01  0.10160779651E+01  0.10156961629E+01 0.  0.
     999903    2    3    3    0    0  0.10802419031E+00  0.11284236584E-01 -0.42356245415E-01  0.12540900263E+00  0.46225606839E-01 0.  0.
         14    1    1    2    0    0  0.10916027748E-01 -0.18309247659E-03 -0.25623088484E-01  0.27852034901E-01  0.00000000000E+00 0. -1.
     999901    1    3    3    0    0 -0.11894021806E+00 -0.11101144107E-01  0.67979333899E-01  0.89066896247E+00  0.88000000000E+00 0.  1.
        -11    1    4    4    0    0  0.75819356390E-01 -0.11139869366E-01 -0.39085765694E-01  0.86026912613E-01  0.51100000000E-03 0. -1.
         11    1    4    4    0    0  0.32204833917E-01  0.22424105950E-01 -0.32704797209E-02  0.39382090015E-01  0.51100000000E-03 0.  1.
</event>
<event>
 8    1  0.2929965E+004  0.1043930E+01  0.7957747E-01            NaN
         13   -1    0    0    0    0  0.00000000000E+00  0.00000000000E+00  0.74505805969E-08  0.10566000000E+00  0.10566000000E+00 0. -1.
     999900   -1    0    0    0    0 -0.00000000000E+00 -0.00000000000E+00 -0.74505805969E-08  0.93827000000E+00  0.93827000000E+00 0. -1.
     999902    2    1    2    0    0  0.88767015987E-02 -0.42900885273E-02  0.94745048253E-02  0.10302564148E+01  0.10301656727E+01 0.  0.
     999903    2    3    3    0    0  0.98018693535E-01 -0.74251912791E-01 -0.52219534342E-01  0.14084812494E+00  0.44612819874E-01 0.  0.
         14    1    1    2    0    0 -0.88767015987E-02  0.42900885273E-02 -0.94745048253E-02  0.13673585211E-01  0.00000000000E+00 0.  1.
     999901    1    3    3    0    0 -0.89141991936E-01  0.69961824264E-01  0.61694039167E-01  0.88940828985E+00  0.88000000000E+00 0. -1.
        -11    1    4    4    0    0  0.65975336857E-01 -0.43842922107E-01 -0.10186535430E-01  0.79868476368E-01  0.51100000000E-03 0.  1.
         11    1    4    4    0    0  0.32043356678E-01 -0.30408990684E-01 -0.42032998911E-01  0.60979648573E-01  0.51100000000E-03 0. -1.
</event>
<event>
 8    1  0.2929965E+004  0.1043930E+01  0.7957747E-01            NaN
         13   -1    0    0    0    0  0.00000000000E+00  0.00000000000E+00  0.74505805969E-08  0.10566000000E+00  0.10566000000E+00 0. -1.
     999900   -1    0    0    0    0 -0.00000000000E+00 -0.00000000000E+00 -0.74505805969E-08  0.93827000000E+00  0.93827000000E+00 0.  1.
     999902    2    1    2    0    0  0.10143376101E-01  0.89934229617E-02 -0.62894012978E-02  0.10289858940E+01  0.10288773706E+01 0.  0.
     999903    2    3    3    0    0  0.84744956038E-01  0.21742107965E-01 -0.10040317955E+00  0.14073743329E+00  0.45517027960E-01 0.  0.
         14    1    1    2    0    0 -0.10143376101E-01 -0.89934229617E-02  0.62894012978E-02  0.14944105994E-01  0.00000000000E+00 0. -1.
     999901    1    3    3    0    0 -0.74601579937E-01 -0.12748685004E-01  0.94113778250E-01  0.88824846071E+00  0.88000000000E+00 0. -1.
        -11    1    4    4    0    0  0.56230381767E-01  0.54095854873E-02 -0.32189575007E-01  0.65019607111E-01  0.51100000000E-03 0. -1.
         11    1    4    4    0    0  0.28514574271E-01  0.16332522478E-01 -0.68213604542E-01  0.75717826183E-01  0.51100000000E-03 0.  1.
</event>
<event>
 8    1  0.2929965E+004  0.1043930E+01  0.7957747E-01            NaN
         13   -1    0    0    0    0  0.00000000000E+00  0.00000000000E+00  0.74505805969E-08  0.10566000000E+00  0.10566000000E+00 0. -1.
     999900   -1    0    0    0    0 -0.00000000000E+00 -0.00000000000E+00 -0.74505805969E-08  0.93827000000E+00  0.93827000000E+00 0. -1.
     999902    2    1    2    0    0  0.19964262232E-02 -0.21026767471E-02  0.13408206464E-01  0.10302118745E+01  0.10301205363E+01 0.  0.
     999903    2    3    3    0    0  0.13160549874E+00 -0.23939638773E-01 -0.46107210058E-02  0.14026803000E+00  0.41961266523E-01 0.  0.
         14    1    1    2    0    0 -0.19964262232E-02  0.21026767471E-02 -0.13408206464E-01  0.13718125519E-01  0.00000000000E+00 0.  1.
     999901    1    3    3    0    0 -0.12960907251E+00  0.21836962026E-01  0.18018927470E-01  0.88994384448E+00  0.88000000000E+00 0. -1.
        -11    1    4    4    0    0  0.15433583139E-01 -0.17831468783E-01 -0.40469896338E-02  0.23933157200E-01  0.51100000000E-03 0.  1.
         11    1    4    4    0    0  0.11617191560E+00 -0.61081699907E-02 -0.56373137198E-03  0.11633487280E+00  0.51100000000E-03 0. -1.
</event>
<event>
 8    1  0.2929965E+004  0.1043930E+01  0.7957747E-01            NaN
         13   -1    0    0    0    0  0.00000000000E+00  0.00000000000E+00  0.74505805969E-08  0.10566000000E+00  0.10566000000E+00 0.  1.
     999900   -1    0    0    0    0 -0.00000000000E+00 -0.00000000000E+00 -0.74505805969E-08  0.93827000000E+00  0.93827000000E+00 0.  1.
     999902    2    1    2    0    0  0.20595307851E-02  0.71758540728E-02 -0.95895372584E-02  0.10317770673E+01  0.10317054923E+01 0.  0.
     999903    2    3    3    0    0 -0.12333582188E+00  0.49030787003E-01  0.18814850367E-01  0.14144980211E+00  0.45147590083E-01 0.  0.
         14    1    1    2    0    0 -0.20595307851E-02 -0.71758540728E-02  0.95895372584E-02  0.12152932714E-01  0.00000000000E+00 0.  1.
     999901    1    3    3    0    0  0.12539535266E+00 -0.41854932930E-01 -0.28404387625E-01  0.89032726518E+00  0.88000000000E+00 0.  1.
        -11    1    4    4    0    0 -0.11889829524E+00  0.36432427297E-01  0.86486762839E-02  0.12465627579E+00  0.51100000000E-03 0. -1.
         11    1    4    4    0    0 -0.44375266351E-02  0.12598359706E-01  0.10166174083E-01  0.16793526324E-01  0.51100000000E-03 0.  1.
</event>
<event>
 8    1  0.2929965E+004  0.1043930E+01  0.7957747E-01            NaN
         13   -1    0    0    0    0  0.00000000000E+00  0.00000000000E+00  0.74505805969E-08  0.10566000000E+00  0.10566000000E+00 0.  1.
     999900   -1    0    0    0    0 -0.00000000000E+00 -0.00000000000E+00 -0.74505805969E-08  0.93827000000E+00  0.93827000000E+00 0. -1.
     999902    2    1    2    0    0  0.15409036741E-01  0.23147707273E-01 -0.52994380289E-02  0.10156220716E+01  0.10152274886E+01 0.  0.
     999903    2    3    3    0    0 -0.10062205216E+00  0.46592927277E-01  0.40744345640E-01  0.12650288842E+00  0.45245782378E-01 0.  0.
         14    1    1    2    0    0 -0.15409036741E-01 -0.23147707273E-01  0.52994380289E-02  0.28307928372E-01  0.00000000000E+00 0.  1.
     999901    1    3    3    0    0  0.11603108891E+00 -0.23445220004E-01 -0.46043783669E-01  0.88911918321E+00  0.88000000000E+00 0. -1.
        -11    1    4    4    0    0 -0.50444762303E-01  0.42012466013E-01  0.73671868753E-02  0.66062530285E-01  0.51100000000E-03 0. -1.
         11    1    4    4    0    0 -0.50177289862E-01  0.45804612646E-02  0.33377158765E-01  0.60440358135E-01  0.51100000000E-03 0.  1.
</event>
<event>
 8    1  0.2929965E+004  0.1043930E+01  0.7957747E-01            NaN
         13   -1    0    0    0    0  0.00000000000E+00  0.00000000000E+00  0.74505805969E-08  0.10566000000E+00  0.10566000000E+00 0.  1.
     999900   -1    0    0    0    0 -0.00000000000E+00 -0.00000000000E+00 -0.74505805969E-08  0.93827000000E+00  0.93827000000E+00 0.  1.
     999902    2    1    2    0    0 -0.96817088160E-02 -0.31824813391E-02 -0.96881188523E-02  0.10298685876E+01  0.10297725886E+01 0.  0.
     999903    2    3    3    0    0  0.56720798133E-01  0.11512721438E+00 -0.34566283238E-01  0.13912429198E+00  0.41100076038E-01 0.  0.
         14    1    1    2    0    0  0.96817088160E-02  0.31824813391E-02  0.96881188523E-02  0.14061412446E-01  0.00000000000E+00 0.  1.
     999901    1    3    3    0    0 -0.66402506949E-01 -0.11830969572E+00  0.24878164386E-01  0.89074429557E+00  0.88000000000E+00 0. -1.
        -11    1    4    4    0    0  0.17715771324E-01  0.53629343933E-01  0.41724891026E-02  0.56635906196E-01  0.51100000000E-03 0. -1.
         11    1    4    4    0    0  0.39005026809E-01  0.61497870449E-01 -0.38738772341E-01  0.82488385786E-01  0.51100000000E-03 0.  1.
</event>
<event>
 8    1  0.2929965E+004  0.1043930E+01  0.7957747E-01            NaN
         13   -1    0    0    0    0  0.00000000000E+00  0.00000000000E+00  0.74505805969E-08  0.10566000000E+00  0.10566000000E+00 0.  1.
     999900   -1    0    0    0    0 -0.00000000000E+00 -0.00000000000E+00 -0.74505805969E-08  0.93827000000E+00  0.93827000000E+00 0.  1.
     999902    2    1    2    0    0 -0.13696856020E-01 -0.49802147895E-03 -0.63210947043E-02  0.10288366860E+01  0.10287259685E+01 0.  0.
     999903    2    3    3    0    0  0.42574895501E-01  0.10291679832E+00  0.67959530415E-01  0.13789406927E+00  0.44629446146E-01 0.  0.
         14    1    1    2    0    0  0.13696856020E-01  0.49802147895E-03  0.63210947043E-02  0.15093314033E-01  0.00000000000E+00 0.  1.
     999901    1    3    3    0    0 -0.56271751521E-01 -0.10341481980E+00 -0.74280625120E-01  0.89094261669E+00  0.88000000000E+00 0.  1.
        -11    1    4    4    0    0  0.47189867970E-02  0.11483138100E-01  0.28981328804E-01  0.31532678878E-01  0.51100000000E-03 0. -1.
         11    1    4    4    0    0  0.37855908704E-01  0.91433660219E-01  0.38978201612E-01  0.10636139039E+00  0.51100000000E-03 0.  1.
</event>
<event>
 8    1  0.2929965E+004  0.1043930E+01  0.7957747E-01            NaN
         13   -1    0    0    0    0  0.00000000000E+00  0.00000000000E+00  0.74505805969E-08  0.10566000000E+00  0.10566000000E+00 0. -1.
     999900   -1    0    0    0    0 -0.00000000000E+00 -0.00000000000E+00 -0.74505805969E-08  0.93827000000E+00  0.93827000000E+00 0. -1.
     999902    2    1    2    0    0 -0.37441612351E-02 -0.40016467312E-02 -0.13050717358E-01  0.10297753844E+01  0.10296780998E+01 0.  0.
     999903    2    3    3    0    0  0.27833866350E-01  0.93700717502E-01 -0.89923984579E-01  0.14047654652E+00  0.45747005831E-01 0.  0.
         14    1    1    2    0    0  0.37441612351E-02  0.40016467312E-02  0.13050717358E-01  0.14154615624E-01  0.00000000000E+00 0. -1.
     999901    1    3    3    0    0 -0.31578027585E-01 -0.97702364233E-01  0.76873267221E-01  0.88929883786E+00  0.88000000000E+00 0.  1.
        -11    1    4    4    0    0  0.18320886038E-01  0.93253492802E-02 -0.30702257201E-01  0.36952763397E-01  0.51100000000E-03 0.  1.
         11    1    4    4    0    0  0.95129803115E-02  0.84375368221E-01 -0.59221727378E-01  0.10352378312E+00  0.51100000000E-03 0. -1.
</event>
<event>
 8    1  0.2929965E+004  0.1043930E+01  0.7957747E-01            NaN
         13   -1    0    0    0    0  0.00000000000E+00  0.00000000000E+00  0.74505805969E-08  0.10566000000E+00  0.10566000000E+00 0. -1.
     999900   -1    0    0    0    0 -0.00000000000E+00 -0.00000000000E+00 -0.74505805969E-08  0.93827000000E+00  0.93827000000E+00 0.  1.
     999902    2    1    2    0    0 -0.51031581484E-02  0.11885293420E-01 -0.49317582918E-02  0.10300871440E+01  0.10299941260E+01 0.  0.
     999903    2    3    3    0    0 -0.12017129583E+00  0.27922558390E-01  0.50927971420E-01  0.14069511592E+00  0.44504469024E-01 0.  0.
         14    1    1    2    0    0  0.51031581484E-02 -0.11885293420E-01  0.49317582918E-02  0.13842856014E-01  0.00000000000E+00 0. -1.
     999901    1    3    3    0    0  0.11506813768E+00 -0.16037264969E-01 -0.55859729712E-01  0.88939202806E+00  0.88000000000E+00 0.  1.
        -11    1    4    4    0    0 -0.74234568889E-01  0.12389827658E-01  0.75676909016E-02  0.75642647456E-01  0.51100000000E-03 0.  1.
         11    1    4    4    0    0 -0.45936726941E-01  0.15532730731E-01  0.43360280519E-01  0.65052468467E-01  0.51100000000E-03 0. -1.
</event>
<event>
 8    1  0.2929965E+004  0.1043930E+01  0.7957747E-01            NaN
         13   -1    0    0    0    0  0.00000000000E+00  0.00000000000E+00  0.74505805969E-08  0.10566000000E+00  0.10566000000E+00 0.  1.
     999900   -1    0    0    0    0 -0.00000000000E+00 -0.00000000000E+00 -0.74505805969E-08  0.93827000000E+00  0.93827000000E+00 0. -1.
     999902    2    1    2    0    0 -0.13874468233E-01 -0.21091299772E-01  0.37156650346E-02  0.10184123598E+01  0.10180926208E+01 0.  0.
     999903    2    3    3    0    0  0.10383870257E+00  0.46632214563E-01  0.36206252488E-01  0.12740253760E+00  0.44311107900E-01 0.  0.
         14    1    1    2    0    0  0.13874468233E-01  0.21091299772E-01 -0.37156650346E-02  0.25517640201E-01  0.00000000000E+00 0. -1.
     999901    1    3    3    0    0 -0.11771317080E+00 -0.67723514334E-01 -0.32490587454E-01  0.89100982219E+00  0.88000000000E+00 0. -1.
        -11    1    4    4    0    0  0.18229865255E-01 -0.65746306999E-02 -0.22549288440E-02  0.19516648820E-01  0.51100000000E-03 0.  1.
         11    1    4    4    0    0  0.85608837310E-01  0.53206845263E-01  0.38461181332E-01  0.10788588878E+00  0.51100000000E-03 0. -1.
</event>
<event>
 8    1  0.2929965E+004  0.1043930E+01  0.7957747E-01            NaN
         13   -1    0    0    0    0  0.00000000000E+00  0.00000000000E+00  0.74505805969E-08  0.10566000000E+00  0.10566000000E+00 0.  1.
     999900   -1    0    0    0    0 -0.00000000000E+00 -0.00000000000E+00 -0.74505805969E-08  0.93827000000E+00  0.93827000000E+00 0. -1.
     999902    2    1    2    0    0 -0.50834008848E-02 -0.28222112213E-02  0.25302877704E-01  0.10179676915E+01  0.10176365656E+01 0.  0.
     999903    2    3    3    0    0 -0.10924320614E+00  0.19328515732E-01  0.53433136611E-01  0.13110173142E+00  0.44998825377E-01 0.  0.
         14    1    1    2    0    0  0.50834008848E-02  0.28222112213E-02 -0.25302877704E-01  0.25962308465E-01  0.00000000000E+00 0. -1.
     999901    1    3    3    0    0  0.10415980526E+00 -0.22150726953E-01 -0.28130258907E-01  0.88686596011E+00  0.88000000000E+00 0.  1.
        -11    1    4    4    0    0 -0.53648911081E-01  0.27400455368E-01  0.12332074164E-01  0.61492534414E-01  0.51100000000E-03 0.  1.
         11    1    4    4    0    0 -0.55594295064E-01 -0.80719396362E-02  0.41101062447E-01  0.69609197010E-01  0.51100000000E-03 0. -1.
</event>
<event>
 8    1  0.2929965E+004  0.1043930E+01  0.7957747E-01            NaN
         13   -1    0    0    0    0  0.00000000000E+00  0.00000000000E+00  0.74505805969E-08  0.10566000000E+00  0.10566000000E+00 0.  1.
     999900   -1    0    0    0    0 -0.00000000000E+00 -0.00000000000E+00 -0.74505805969E-08  0.93827000000E+00  0.93827000000E+00 0. -1.
     999902    2    1    2    0    0  0.63323868713E-02  0.55982582400E-02 -0.10439141963E-01  0.10304981236E+01  0.10304105820E+01 0.  0.
     999903    2    3    3    0    0  0.12041911759E+00  0.21916481068E-01  0.53578179855E-01  0.14067775745E+00  0.44028559583E-01 0.  0.
         14    1    1    2    0    0 -0.63323868713E-02 -0.55982582400E-02  0.10439141963E-01  0.13431876404E-01  0.00000000000E+00 0.  1.
     999901    1    3    3    0    0 -0.11408673072E+00 -0.16318222828E-01 -0.64017321818E-01  0.88982036615E+00  0.88000000000E+00 0. -1.
        -11    1    4    4    0    0  0.19782838591E-01  0.21295147052E-01  0.76925696872E-02  0.30071261032E-01  0.51100000000E-03 0. -1.
         11    1    4    4    0    0  0.10063627900E+00  0.62133401585E-03  0.45885610168E-01  0.11060649641E+00  0.51100000000E-03 0.  1.
</event>
<event>
 7    1  0.2929965E+004  0.1043930E+01  0.7957747E-01            NaN
         13   -1    0    0    0    0  0.00000000000E+00  0.00000000000E+00  0.74505805969E-08  0.10566000000E+00  0.10566000000E+00 0. -1.
     999900   -1    0    0    0    0 -0.00000000000E+00 -0.00000000000E+00 -0.74505805969E-08  0.93827000000E+00  0.93827000000E+00 0. -1.
     999903    2    1    2    0    0 -0.28109524663E-01 -0.81887143938E-01 -0.60606116795E-01  0.11680871690E+00  0.49754650363E-01 0.  0.
         14    1    1    2    0    0  0.65749774808E-02 -0.39489889528E-02 -0.36565020323E-01  0.37360748839E-01  0.00000000000E+00 0.  1.
     999901    1    1    2    0    0  0.21534547182E-01  0.85836132891E-01  0.97171137118E-01  0.88976053426E+00  0.88000000000E+00 0.  1.
        -11    1    3    3    0    0 -0.84126754607E-02  0.50448869050E-02 -0.11192608168E-01  0.14891594639E-01  0.51100000000E-03 0. -1.
         11    1    3    3    0    0 -0.19696849202E-01 -0.86932030843E-01 -0.49413508628E-01  0.10191712227E+00  0.51100000000E-03 0.  1.
</event>
<event>
 8    1  0.2929965E+004  0.1043930E+01  0.7957747E-01            NaN
         13   -1    0    0    0    0  0.00000000000E+00  0.00000000000E+00  0.74505805969E-08  0.10566000000E+00  0.10566000000E+00 0. -1.
     999900   -1    0    0    0    0 -0.00000000000E+00 -0.00000000000E+00 -0.74505805969E-08  0.93827000000E+00  0.93827000000E+00 0.  1.
     999902    2    1    2    0    0 -0.61931430140E-02 -0.10945704464E-01 -0.54804020779E-02  0.10302114624E+01  0.10301201187E+01 0.  0.
     999903    2    3    3    0    0 -0.92456189395E-01  0.66753125976E-01 -0.68572305635E-01  0.14034686051E+00  0.44620100517E-01 0.  0.
         14    1    1    2    0    0  0.61931430140E-02  0.10945704464E-01  0.54804020779E-02  0.13718537588E-01  0.00000000000E+00 0.  1.
     999901    1    3    3    0    0  0.86263046381E-01 -0.77698830440E-01  0.63091903557E-01  0.88986460190E+00  0.88000000000E+00 0.  1.
        -11    1    4    4    0    0 -0.74488560678E-01  0.30612148913E-01 -0.34859870065E-01  0.87756031103E-01  0.51100000000E-03 0. -1.
         11    1    4    4    0    0 -0.17967628717E-01  0.36140977063E-01 -0.33712435570E-01  0.52590829408E-01  0.51100000000E-03 0.  1.
</event>
<event>
 8    1  0.2929965E+004  0.1043930E+01  0.7957747E-01            NaN
         13   -1    0    0    0    0  0.00000000000E+00  0.00000000000E+00  0.74505805969E-08  0.10566000000E+00  0.10566000000E+00 0.  1.
     999900   -1    0    0    0    0 -0.00000000000E+00 -0.00000000000E+00 -0.74505805969E-08  0.93827000000E+00  0.93827000000E+00 0. -1.
     999902    2    1    2    0    0  0.64201806042E-02 -0.16098273260E-01  0.10815573232E-01  0.10235008604E+01  0.10232969566E+01 0.  0.
     999903    2    3    3    0    0 -0.66036502552E-01 -0.35190399694E-01 -0.10100860280E+00  0.13326542716E+00  0.44246495195E-01 0.  0.
         14    1    1    2    0    0 -0.64201806042E-02  0.16098273260E-01 -0.10815573232E-01  0.20429139612E-01  0.00000000000E+00 0.  1.
     999901    1    3    3    0    0  0.72456683157E-01  0.19092126433E-01  0.11182417603E+00  0.89023543323E+00  0.88000000000E+00 0. -1.
        -11    1    4    4    0    0 -0.37799569376E-01  0.46084442967E-02 -0.46450103807E-01  0.60065950992E-01  0.51100000000E-03 0. -1.
         11    1    4    4    0    0 -0.28236933176E-01 -0.39798843990E-01 -0.54558498994E-01  0.73199476170E-01  0.51100000000E-03 0.  1.
</event>
<event>
 8    1  0.2929965E+004  0.1043930E+01  0.7957747E-01            NaN
         13   -1    0    0    0    0  0.00000000000E+00  0.00000000000E+00  0.74505805969E-08  0.10566000000E+00  0.10566000000E+00 0. -1.
     999900   -1    0    0    0    0 -0.00000000000E+00 -0.00000000000E+00 -0.74505805969E-08  0.93827000000E+00  0.93827000000E+00 0. -1.
     999902    2    1    2    0    0  0.82768095683E-02 -0.10747457007E-01  0.36530868135E-02  0.10298815676E+01  0.10297857471E+01 0.  0.
     999903    2    3    3    0    0 -0.98243340371E-01  0.82061635495E-01  0.28526564752E-01  0.13826575356E+00  0.43792553753E-01 0.  0.
         14    1    1    2    0    0 -0.82768095683E-02  0.10747457007E-01 -0.36530868135E-02  0.14048432368E-01  0.00000000000E+00 0. -1.
     999901    1    3    3    0    0  0.10652014994E+00 -0.92809092501E-01 -0.24873477938E-01  0.89161581407E+00  0.88000000000E+00 0. -1.
        -11    1    4    4    0    0 -0.48713945412E-01  0.21149759360E-01  0.27371903409E-01  0.59748163284E-01  0.51100000000E-03 0. -1.
         11    1    4    4    0    0 -0.49529394959E-01  0.60911876135E-01  0.11546613427E-02  0.78517590278E-01  0.51100000000E-03 0.  1.
</event>
<event>
 8    1  0.2929965E+004  0.1043930E+01  0.7957747E-01            NaN
         13   -1    0    0    0    0  0.00000000000E+00  0.00000000000E+00  0.74505805969E-08  0.10566000000E+00  0.10566000000E+00 0. -1.
     999900   -1    0    0    0    0 -0.00000000000E+00 -0.00000000000E+00 -0.74505805969E-08  0.93827000000E+00  0.93827000000E+00 0.  1.
     999902    2    1    2    0    0 -0.10429401756E-01  0.11669752633E-01 -0.16609422577E-02  0.10281910586E+01  0.10280705903E+01 0.  0.
     999903    2    3    3    0    0 -0.66415112030E-01  0.10568873179E+00 -0.45442384607E-01  0.14033364724E+00  0.45248724783E-01 0.  0.
         14    1    1    2    0    0  0.10429401756E-01 -0.11669752633E-01  0.16609422577E-02  0.15738941409E-01  0.00000000000E+00 0.  1.
     999901    1    3    3    0    0  0.55985710275E-01 -0.94018979160E-01  0.43781442349E-01  0.88785741135E+00  0.88000000000E+00 0. -1.
        -11    1    4    4    0    0 -0.15826570803E-01  0.45754998687E-01  0.23735673319E-02  0.48475717541E-01  0.51100000000E-03 0. -1.
         11    1    4    4    0    0 -0.50588541228E-01  0.59933733107E-01 -0.47815951939E-01  0.91857929699E-01  0.51100000000E-03 0.  1.
</event>
<event>
 8    1  0.2929965E+004  0.1043930E+01  0.7957747E-01            NaN
         13   -1    0    0    0    0  0.00000000000E+00  0.00000000000E+00  0.74505805969E-08  0.10566000000E+00  0.10566000000E+00 0. -1.
     999900   -1    0    0    0    0 -0.00000000000E+00 -0.00000000000E+00 -0.74505805969E-08  0.93827000000E+00  0.93827000000E+00 0. -1.
     999902    2    1    2    0    0  0.89648058415E-02 -0.75524544865E-02  0.38058956449E-02  0.10316055465E+01  0.10315319246E+01 0.  0.
     999903    2    3    3    0    0  0.93102964639E-01  0.94901190421E-01  0.18249398366E-01  0.14155802311E+00  0.45069228935E-01 0.  0.
         14    1    1    2    0    0 -0.89648058415E-02  0.75524544865E-02 -0.38058956449E-02  0.12324453505E-01  0.00000000000E+00 0.  1.
     999901    1    3    3    0    0 -0.84138158798E-01 -0.10245364491E+00 -0.14443502721E-01  0.89004752339E+00  0.88000000000E+00 0.  1.
        -11    1    4    4    0    0  0.39835367511E-01  0.62690927569E-01 -0.65116012455E-02  0.74563201219E-01  0.51100000000E-03 0.  1.
         11    1    4    4    0    0  0.53267597129E-01  0.32210262851E-01  0.24760999612E-01  0.66994821886E-01  0.51100000000E-03 0. -1.
</event>
<event>
 8    1  0.2929965E+004  0.1043930E+01  0.7957747E-01            NaN
         13   -1    0    0    0    0  0.00000000000E+00  0.00000000000E+00  0.74505805969E-08  0.10566000000E+00  0.10566000000E+00 0. -1.
     999900   -1    0    0    0    0 -0.00000000000E+00 -0.00000000000E+00 -0.74505805969E-08  0.93827000000E+00  0.93827000000E+00 0.  1.
     999902    2    1    2    0    0 -0.37294805667E-02  0.10685843837E-01  0.16104261949E-01  0.10242464145E+01  0.10240572612E+01 0.  0.
     999903    2    3    3    0    0 -0.12180520998E-01 -0.55854206908E-01 -0.11062655988E+00  0.13264128914E+00  0.45688273237E-01 0.  0.
         14    1    1    2    0    0  0.37294805667E-02 -0.10685843837E-01 -0.16104261949E-01  0.19683585464E-01  0.00000000000E+00 0.  1.
     999901    1    3    3    0    0  0.84510404312E-02  0.66540050745E-01  0.12673082183E+00  0.89160512540E+00  0.88000000000E+00 0. -1.
        -11    1    4    4    0    0 -0.18159342467E-01 -0.93754232059E-02 -0.12669020109E-01  0.24050477555E-01  0.51100000000E-03 0. -1.
         11    1    4    4    0    0  0.59788214687E-02 -0.46478783702E-01 -0.97957539772E-01  0.10859081158E+00  0.51100000000E-03 0.  1.
</event>
<event>
 8    1  0.2929965E+004  0.1043930E+01  0.7957747E-01            NaN
         13   -1    0    0    0    0  0.00000000000E+00  0.00000000000E+00  0.74505805969E-08  0.10566000000E+00  0.10566000000E+00 0.  1.
     999900   -1    0    0    0    0 -0.00000000000E+00 -0.00000000000E+00 -0.74505805969E-08  0.93827000000E+00  0.93827000000E+00 0.  1.
     999902    2    1    2    0    0  0.54026823438E-02  0.48329769496E-02 -0.10985434868E-01  0.10307684491E+01  0.10306844179E+01 0.  0.
     999903    2    3    3    0    0  0.10931913343E+00 -0.55422909611E-01  0.51691912590E-01  0.14039894685E+00  0.44915905912E-01 0.  0.
         14    1    1    2    0    0 -0.54026823438E-02 -0.48329769496E-02  0.10985434868E-01  0.13161550894E-01  0.00000000000E+00 0.  1.
     999901    1    3    3    0    0 -0.10391645109E+00  0.60255886560E-01 -0.62677347458E-01  0.89036950226E+00  0.88000000000E+00 0.  1.
        -11    1    4    4    0    0  0.95675596892E-01 -0.59196311823E-01  0.33595206428E-01  0.11741772520E+00  0.51100000000E-03 0. -1.
         11    1    4    4    0    0  0.13643536540E-01  0.37734022128E-02  0.18096706163E-01  0.22981221650E-01  0.51100000000E-03 0.  1.
</event>
<event>
 8    1  0.2929965E+004  0.1043930E+01  0.7957747E-01            NaN
         13   -1    0    0    0    0  0.00000000000E+00  0.00000000000E+00  0.74505805969E-08  0.10566000000E+00  0.10566000000E+00 0.  1.
     999900   -1    0    0    0    0 -0.00000000000E+00 -0.00000000000E+00 -0.74505805969E-08  0.93827000000E+00  0.93827000000E+00 0. -1.
     999902    2    1    2    0    0 -0.14420519379E-01  0.21989455852E-03 -0.10744244429E-01  0.10259456034E+01  0.10257879618E+01 0.  0.
     999903    2    3    3    0    0  0.33189963274E-01 -0.29625681950E-01 -0.12144707106E+00  0.13723157047E+00  0.45867833737E-01 0.  0.
         14    1    1    2    0    0  0.14420519379E-01 -0.21989455852E-03  0.10744244429E-01  0.17984396601E-01  0.00000000000E+00 0.  1.
     999901    1    3    3    0    0 -0.47610482652E-01  0.29845576508E-01  0.11070282663E+00  0.88871403293E+00  0.88000000000E+00 0.  1.
        -11    1    4    4    0    0  0.37717189770E-01 -0.60508119271E-02 -0.89118113618E-01  0.96961322314E-01  0.51100000000E-03 0.  1.
         11    1    4    4    0    0 -0.45272264959E-02 -0.23574870022E-01 -0.32328957444E-01  0.40270248158E-01  0.51100000000E-03 0. -1.
</event>
<event>
 8    1  0.2929965E+004  0.1043930E+01  0.7957747E-01            NaN
         13   -1    0    0    0    0  0.00000000000E+00  0.00000000000E+00  0.74505805969E-08  0.10566000000E+00  0.10566000000E+00 0. -1.
     999900   -1    0    0    0    0 -0.00000000000E+00 -0.00000000000E+00 -0.74505805969E-08  0.93827000000E+00  0.93827000000E+00 0.  1.
     999902    2    1    2    0    0  0.80902082507E-02  0.73668096140E-02  0.65011155592E-02  0.10312026335E+01  0.10311240883E+01 0.  0.
     999903    2    3    3    0    0 -0.32597977322E-02 -0.13106228419E+00 -0.15773521952E-01  0.14003059845E+00  0.46602745515E-01 0.  0.
         14    1    1    2    0    0 -0.80902082507E-02 -0.73668096140E-02 -0.65011155592E-02  0.12727366458E-01  0.00000000000E+00 0.  1.
     999901    1    3    3    0    0  0.11350005983E-01  0.13842909381E+00  0.22274637512E-01  0.89117203509E+00  0.88000000000E+00 0.  1.
        -11    1    4    4    0    0 -0.17010884113E-01 -0.90107120018E-01 -0.26618043853E-01  0.95485311100E-01  0.51100000000E-03 0.  1.
         11    1    4    4    0    0  0.13751086381E-01 -0.40955164174E-01  0.10844521900E-01  0.44545287354E-01  0.51100000000E-03 0. -1.
</event>
<event>
 8    1  0.2929965E+004  0.1043930E+01  0.7957747E-01            NaN
         13   -1    0    0    0    0  0.00000000000E+00  0.00000000000E+00  0.74505805969E-08  0.10566000000E+00  0.10566000000E+00 0.  1.
     999900   -1    0    0    0    0 -0.00000000000E+00 -0.00000000000E+00 -0.74505805969E-08  0.93827000000E+00  0.93827000000E+00 0. -1.
     999902    2    1    2    0    0 -0.93649895143E-02 -0.21869661781E-02 -0.67577835287E-02  0.10321761288E+01  0.10321092032E+01 0.  0.
     999903    2    3    3    0    0 -0.48108036244E-01 -0.10487795618E+00  0.70001161662E-01  0.14204220700E+00  0.44295113622E-01 0.  0.
         14    1    1    2    0    0  0.93649895143E-02  0.21869661781E-02  0.67577835287E-02  0.11753871187E-01  0.00000000000E+00 0.  1.
     999901    1    3    3    0    0  0.38743046730E-01  0.10269099000E+00 -0.76758945191E-01  0.89013392181E+00  0.88000000000E+00 0. -1.
        -11    1    4    4    0    0 -0.10567931825E-01 -0.86222011206E-02  0.26760685346E-01  0.30040288554E-01  0.51100000000E-03 0.  1.
         11    1    4    4    0    0 -0.37540104419E-01 -0.96255755061E-01  0.43240476316E-01  0.11200191844E+00  0.51100000000E-03 0. -1.
</event>
<event>
 8    1  0.2929965E+004  0.1043930E+01  0.7957747E-01            NaN
         13   -1    0    0    0    0  0.00000000000E+00  0.00000000000E+00  0.74505805969E-08  0.10566000000E+00  0.10566000000E+00 0.  1.
     999900   -1    0    0    0    0 -0.00000000000E+00 -0.00000000000E+00 -0.74505805969E-08  0.93827000000E+00  0.93827000000E+00 0. -1.
     999902    2    1    2    0    0 -0.54529168129E-02  0.15047820073E-02 -0.12490690516E-01  0.10302181066E+01  0.10301268520E+01 0.  0.
     999903    2    3    3    0    0  0.94720866257E-01  0.89168354390E-01 -0.25299164306E-01  0.14011488466E+00  0.45487308769E-01 0.  0.
         14    1    1    2    0    0  0.54529168129E-02 -0.15047820073E-02  0.12490690516E-01  0.13711893385E-01  0.00000000000E+00 0.  1.
     999901    1    3    3    0    0 -0.10017378307E+00 -0.87663572382E-01  0.12808473791E-01  0.89010322196E+00  0.88000000000E+00 0.  1.
        -11    1    4    4    0    0  0.69127857904E-01  0.50618705734E-01  0.32497923011E-02  0.85742267170E-01  0.51100000000E-03 0. -1.
         11    1    4    4    0    0  0.25593008353E-01  0.38549648656E-01 -0.28548956607E-01  0.54372617487E-01  0.51100000000E-03 0.  1.
</event>
<event>
 8    1  0.2929965E+004  0.1043930E+01  0.7957747E-01            NaN
         13   -1    0    0    0    0  0.00000000000E+00  0.00000000000E+00  0.74505805969E-08  0.10566000000E+00  0.10566000000E+00 0.  1.
     999900   -1    0    0    0    0 -0.00000000000E+00 -0.00000000000E+00 -0.74505805969E-08  0.93827000000E+00  0.93827000000E+00 0. -1.
     999902    2    1    2    0    0 -0.99527964317E-02 -0.27276406125E-02  0.73024717522E-02  0.10312878375E+01  0.10312103468E+01 0.  0.
     999903    2    3    3    0    0 -0.15582079656E-01  0.22543359046E-01  0.13158479189E+00  0.14217794135E+00  0.46357365172E-01 0.  0.
         14    1    1    2    0    0  0.99527964317E-02  0.27276406125E-02 -0.73024717522E-02  0.12642162545E-01  0.00000000000E+00 0. -1.
     999901    1    3    3    0    0  0.56292832243E-02 -0.25270999658E-01 -0.12428232014E+00  0.88910989611E+00  0.88000000000E+00 0. -1.
        -11    1    4    4    0    0 -0.37452726986E-02  0.11404941992E-01  0.12338032880E+00  0.12396397229E+00  0.51100000000E-03 0. -1.
         11    1    4    4    0    0 -0.11836806957E-01  0.11138417053E-01  0.82044630928E-02  0.18213969063E-01  0.51100000000E-03 0.  1.
</event>
<event>
 8    1  0.2929965E+004  0.1043930E+01  0.7957747E-01            NaN
         13   -1    0    0    0    0  0.00000000000E+00  0.00000000000E+00  0.74505805969E-08  0.10566000000E+00  0.10566000000E+00 0.  1.
     999900   -1    0    0    0    0 -0.00000000000E+00 -0.00000000000E+00 -0.74505805969E-08  0.93827000000E+00  0.93827000000E+00 0.  1.
     999902    2    1    2    0    0  0.86919222352E-02  0.10890939234E-01 -0.86981281645E-03  0.10299686733E+01  0.10298740454E+01 0.  0.
     999903    2    3    3    0    0 -0.42024868462E-01 -0.10121081794E+00  0.72124606407E-01  0.13841543199E+00  0.44126564855E-01 0.  0.
         14    1    1    2    0    0 -0.86919222352E-02 -0.10890939234E-01  0.86981281645E-03  0.13961326723E-01  0.00000000000E+00 0.  1.
     999901    1    3    3    0    0  0.50716790697E-01  0.11210175717E+00 -0.72994419224E-01  0.89155324129E+00  0.88000000000E+00 0. -1.
        -11    1    4    4    0    0 -0.12899518881E-01 -0.80872718738E-01  0.57125261069E-01  0.99851643935E-01  0.51100000000E-03 0.  1.
         11    1    4    4    0    0 -0.29125349581E-01 -0.20338099198E-01  0.14999345338E-01  0.38563788050E-01  0.51100000000E-03 0. -1.
</event>
<event>
 8    1  0.2929965E+004  0.1043930E+01  0.7957747E-01            NaN
         13   -1    0    0    0    0  0.00000000000E+00  0.00000000000E+00  0.74505805969E-08  0.10566000000E+00  0.10566000000E+00 0.  1.
     999900   -1    0    0    0    0 -0.00000000000E+00 -0.00000000000E+00 -0.74505805969E-08  0.93827000000E+00  0.93827000000E+00 0.  1.
     999902    2    1    2    0    0  0.14336011213E-02 -0.72500669165E-02  0.11705675729E-01  0.10300865349E+01  0.10299935086E+01 0.  0.
     999903    2    3    3    0    0 -0.10866551081E+00 -0.69429054777E-01  0.18929761152E-01  0.14101947981E+00  0.53847664232E-01 0.  0.
         14    1    1    2    0    0 -0.14336011213E-02  0.72500669165E-02 -0.11705675729E-01  0.13843465128E-01  0.00000000000E+00 0.  1.
     999901    1    3    3    0    0  0.11009911193E+00  0.62178987861E-01 -0.72240854232E-02  0.88906705506E+00  0.88000000000E+00 0.  1.
        -11    1    4    4    0    0 -0.72555330845E-01 -0.18611996200E-01 -0.29087438184E-02  0.74962686373E-01  0.51100000000E-03 0.  1.
         11    1    4    4    0    0 -0.36110179964E-01 -0.50817058577E-01  0.21838504971E-01  0.66056793442E-01  0.51100000000E-03 0. -1.
</event>
<event>
 8    1  0.2929965E+004  0.1043930E+01  0.7957747E-01            NaN
         13   -1    0    0    0    0  0.00000000000E+00  0.00000000000E+00  0.74505805969E-08  0.10566000000E+00  0.10566000000E+00 0.  1.
     999900   -1    0    0    0    0 -0.00000000000E+00 -0.00000000000E+00 -0.74505805969E-08  0.93827000000E+00  0.93827000000E+00 0.  1.
     999902    2    1    2    0    0  0.93456410630E-02 -0.16398381733E-01 -0.15042106781E-01  0.10197946958E+01  0.10195090528E+01 0.  0.
     999903    2    3    3    0    0 -0.11575449523E+00  0.16753018411E-02  0.35962987334E-01  0.12930144951E+00  0.44984648319E-01 0.  0.
         14    1    1    2    0    0 -0.93456410630E-02  0.16398381733E-01  0.15042106781E-01  0.24135304157E-01  0.00000000000E+00 0. -1.
     999901    1    3    3    0    0  0.12510013630E+00 -0.18073683574E-01 -0.51005094115E-01  0.89049324633E+00  0.88000000000E+00 0.  1.
        -11    1    4    4    0    0 -0.39988101862E-01 -0.15553088925E-01 -0.17202229250E-02  0.42943767343E-01  0.51100000000E-03 0. -1.
         11    1    4    4    0    0 -0.75766393371E-01  0.17228390767E-01  0.37683210259E-01  0.86357682167E-01  0.51100000000E-03 0.  1.
</event>
<event>
 8    1  0.2929965E+004  0.1043930E+01  0.7957747E-01            NaN
         13   -1    0    0    0    0  0.00000000000E+00  0.00000000000E+00  0.74505805969E-08  0.10566000000E+00  0.10566000000E+00 0. -1.
     999900   -1    0    0    0    0 -0.00000000000E+00 -0.00000000000E+00 -0.74505805969E-08  0.93827000000E+00  0.93827000000E+00 0. -1.
     999902    2    1    2    0    0 -0.11528520261E-01 -0.49691568773E-02  0.77564371585E-02  0.10291732518E+01  0.10290674519E+01 0.  0.
     999903    2    3    3    0    0 -0.11381198117E+00 -0.56483955380E-01 -0.39646059705E-01  0.14048732442E+00  0.44958580943E-01 0.  0.
         14    1    1    2    0    0  0.11528520261E-01  0.49691568773E-02 -0.77564371585E-02  0.14756748181E-01  0.00000000000E+00 0.  1.
     999901    1    3    3    0    0  0.10228346091E+00  0.51514798503E-01  0.47402496864E-01  0.88868592739E+00  0.88000000000E+00 0.  1.
        -11    1    4    4    0    0 -0.31232818800E-02 -0.16903169673E-01 -0.59948895226E-02  0.18211860314E-01  0.51100000000E-03 0. -1.
         11    1    4    4    0    0 -0.11068869929E+00 -0.39580785707E-01 -0.33651170183E-01  0.12227546411E+00  0.51100000000E-03 0.  1.
</event>
<event>
 8    1  0.2929965E+004  0.1043930E+01  0.7957747E-01            NaN
         13   -1    0    0    0    0  0.00000000000E+00  0.00000000000E+00  0.74505805969E-08  0.10566000000E+00  0.10566000000E+00 0. -1.
     999900   -1    0    0    0    0 -0.00000000000E+00 -0.00000000000E+00 -0.74505805969E-08  0.93827000000E+00  0.93827000000E+00 0. -1.
     999902    2    1    2    0    0 -0.10311705376E-01 -0.31432931264E-02 -0.97540772186E-02  0.10293919953E+01  0.10292893307E+01 0.  0.
     999903    2    3    3    0    0 -0.16932613194E-01  0.80260450003E-02 -0.13215849998E+00  0.14082492787E+00  0.44884968595E-01 0.  0.
         14    1    1    2    0    0  0.10311705376E-01  0.31432931264E-02  0.97540772186E-02  0.14538004740E-01  0.00000000000E+00 0. -1.
     999901    1    3    3    0    0  0.66209078177E-02 -0.11169338127E-01  0.12240442276E+00  0.88856706739E+00  0.88000000000E+00 0.  1.
        -11    1    4    4    0    0  0.14344328731E-01  0.68085499076E-02 -0.29581567302E-01  0.33577468094E-01  0.51100000000E-03 0.  1.
         11    1    4    4    0    0 -0.31276941925E-01  0.12174950927E-02 -0.10257693268E+00  0.10724745978E+00  0.51100000000E-03 0. -1.
</event>
<event>
 8    1  0.2929965E+004  0.1043930E+01  0.7957747E-01            NaN
         13   -1    0    0    0    0  0.00000000000E+00  0.00000000000E+00  0.74505805969E-08  0.10566000000E+00  0.10566000000E+00 0.  1.
     999900   -1    0    0    0    0 -0.00000000000E+00 -0.00000000000E+00 -0.74505805969E-08  0.93827000000E+00  0.93827000000E+00 0.  1.
     999902    2    1    2    0    0  0.25232601692E-04 -0.76450128964E-02  0.12567321934E-01  0.10292199885E+01  0.10291148625E+01 0.  0.
     999903    2    3    3    0    0  0.13828497686E-01  0.14155973700E-01 -0.12920084649E+00  0.13750028658E+00  0.42683148148E-01 0.  0.
         14    1    1    2    0    0 -0.25232601692E-04  0.76450128964E-02 -0.12567321934E-01  0.14710011539E-01  0.00000000000E+00 0. -1.
     999901    1    3    3    0    0 -0.13803265084E-01 -0.21800986596E-01  0.14176816843E+00  0.89171970188E+00  0.88000000000E+00 0. -1.
        -11    1    4    4    0    0  0.17520881934E-01 -0.11419548607E-01 -0.50406135133E-01  0.54574966552E-01  0.51100000000E-03 0. -1.
         11    1    4    4    0    0 -0.36923842480E-02  0.25575522306E-01 -0.78794711359E-01  0.82925320029E-01  0.51100000000E-03 0.  1.
</event>
<event>
 8    1  0.2929965E+004  0.1043930E+01  0.7957747E-01            NaN
         13   -1    0    0    0    0  0.00000000000E+00  0.00000000000E+00  0.74505805969E-08  0.10566000000E+00  0.10566000000E+00 0. -1.
     999900   -1    0    0    0    0 -0.00000000000E+00 -0.00000000000E+00 -0.74505805969E-08  0.93827000000E+00  0.93827000000E+00 0.  1.
     999902    2    1    2    0    0 -0.82304322084E-02  0.10222584129E-01 -0.48261766175E-02  0.10299466806E+01  0.10298517523E+01 0.  0.
     999903    2    3    3    0    0  0.28628668358E-01  0.11296846401E+00 -0.65700345362E-01  0.14111544041E+00  0.44894962163E-01 0.  0.
         14    1    1    2    0    0  0.82304322084E-02 -0.10222584129E-01  0.48261766175E-02  0.13983319397E-01  0.00000000000E+00 0. -1.
     999901    1    3    3    0    0 -0.36859100567E-01 -0.10274587988E+00  0.60874168744E-01  0.88883124020E+00  0.88000000000E+00 0.  1.
        -11    1    4    4    0    0  0.91909670829E-02  0.38101870887E-01 -0.47624005283E-01  0.61680900133E-01  0.51100000000E-03 0.  1.
         11    1    4    4    0    0  0.19437701275E-01  0.74866593124E-01 -0.18076340078E-01  0.79434540274E-01  0.51100000000E-03 0. -1.
</event>
<event>
 8    1  0.2929965E+004  0.1043930E+01  0.7957747E-01            NaN
         13   -1    0    0    0    0  0.00000000000E+00  0.00000000000E+00  0.74505805969E-08  0.10566000000E+00  0.10566000000E+00 0. -1.
     999900   -1    0    0    0    0 -0.00000000000E+00 -0.00000000000E+00 -0.74505805969E-08  0.93827000000E+00  0.93827000000E+00 0. -1.
     999902    2    1    2    0    0 -0.99995104104E-02  0.27348367854E-02  0.62668728320E-02  0.10318162378E+01  0.10317451261E+01 0.  0.
     999903    2    3    3    0    0 -0.49048959101E-01 -0.92114533439E-01 -0.84286214194E-01  0.14124275732E+00  0.44209308221E-01 0.  0.
         14    1    1    2    0    0  0.99995104104E-02 -0.27348367854E-02 -0.62668728320E-02  0.12113762247E-01  0.00000000000E+00 0.  1.
     999901    1    3    3    0    0  0.39049448690E-01  0.94849370225E-01  0.90553087026E-01  0.89057348043E+00  0.88000000000E+00 0.  1.
        -11    1    4    4    0    0 -0.33475409207E-01 -0.91819564355E-01 -0.73593557997E-01  0.12234258588E+00  0.51100000000E-03 0.  1.
         11    1    4    4    0    0 -0.15573549894E-01 -0.29496908449E-03 -0.10692656197E-01  0.18900171444E-01  0.51100000000E-03 0. -1.
</event>
<event>
 8    1  0.2929965E+004  0.1043930E+01  0.7957747E-01            NaN
         13   -1    0    0    0    0  0.00000000000E+00  0.00000000000E+00  0.74505805969E-08  0.10566000000E+00  0.10566000000E+00 0. -1.
     999900   -1    0    0    0    0 -0.00000000000E+00 -0.00000000000E+00 -0.74505805969E-08  0.93827000000E+00  0.93827000000E+00 0.  1.
     999902    2    1    2    0    0 -0.99372810173E-02 -0.25247283387E-03 -0.95663496460E-02  0.10301340462E+01  0.10300416617E+01 0.  0.
     999903    2    3    3    0    0 -0.50892061292E-02 -0.22582832823E-01  0.12911227999E+00  0.13898091055E+00  0.45932867280E-01 0.  0.
         14    1    1    2    0    0  0.99372810173E-02  0.25247283387E-03  0.95663496460E-02  0.13795953831E-01  0.00000000000E+00 0. -1.
     999901    1    3    3    0    0 -0.48480748881E-02  0.22330359989E-01 -0.13867862963E+00  0.89115313562E+00  0.88000000000E+00 0.  1.
        -11    1    4    4    0    0 -0.22228542751E-01 -0.25366742398E-01  0.92442376846E-01  0.98404440401E-01  0.51100000000E-03 0.  1.
         11    1    4    4    0    0  0.17139336622E-01  0.27839095750E-02  0.36669903141E-01  0.40576470149E-01  0.51100000000E-03 0. -1.
</event>
<event>
 8    1  0.2929965E+004  0.1043930E+01  0.7957747E-01            NaN
         13   -1    0    0    0    0  0.00000000000E+00  0.00000000000E+00  0.74505805969E-08  0.10566000000E+00  0.10566000000E+00 0. -1.
     999900   -1    0    0    0    0 -0.00000000000E+00 -0.00000000000E+00 -0.74505805969E-08  0.93827000000E+00  0.93827000000E+00 0.  1.
     999902    2    1    2    0    0  0.27257361628E-02 -0.12232680968E-01  0.59839597106E-02  0.10300420234E+01  0.10299483939E+01 0.  0.
     999903    2    3    3    0    0 -0.28330941884E-01 -0.11526411384E+00 -0.61144594664E-01  0.14094909446E+00  0.45161128909E-01 0.  0.
         14    1    1    2    0    0 -0.27257361628E-02  0.12232680968E-01 -0.59839597106E-02  0.13887976638E-01  0.00000000000E+00 0. -1.
     999901    1    3    3    0    0  0.31056678047E-01  0.10303143288E+00  0.67128554374E-01  0.88909292890E+00  0.88000000000E+00 0. -1.
        -11    1    4    4    0    0 -0.27175621564E-01 -0.11184933592E+00 -0.67636702654E-01  0.13350570407E+00  0.51100000000E-03 0.  1.
         11    1    4    4    0    0 -0.11553203202E-02 -0.34147779237E-02  0.64921079897E-02  0.74433903875E-02  0.51100000000E-03 0. -1.
</event>
<event>
 8    1  0.2929965E+004  0.1043930E+01  0.7957747E-01            NaN
         13   -1    0    0    0    0  0.00000000000E+00  0.00000000000E+00  0.74505805969E-08  0.10566000000E+00  0.10566000000E+00 0. -1.
     999900   -1    0    0    0    0 -0.00000000000E+00 -0.00000000000E+00 -0.74505805969E-08  0.93827000000E+00  0.93827000000E+00 0.  1.
     999902    2    1    2    0    0 -0.11973441918E-01 -0.68051658760E-02  0.32905244283E-02  0.10297701573E+01  0.10296728003E+01 0.  0.
     999903    2    3    3    0    0  0.70200778444E-01 -0.98851810934E-01 -0.53916700005E-01  0.13932203761E+00  0.42471046658E-01 0.  0.
         14    1    1    2    0    0  0.11973441918E-01  0.68051658760E-02 -0.32905244283E-02  0.14159842689E-01  0.00000000000E+00 0.  1.
     999901    1    3    3    0    0 -0.82174220362E-01  0.92046645058E-01  0.57207224433E-01  0.89044811970E+00  0.88000000000E+00 0.  1.
        -11    1    4    4    0    0  0.38464161681E-01 -0.79892318873E-01 -0.50865051977E-01  0.10222420938E+00  0.51100000000E-03 0. -1.
         11    1    4    4    0    0  0.31736616763E-01 -0.18959492060E-01 -0.30516480275E-02  0.37097828230E-01  0.51100000000E-03 0.  1.
</event>
<event>
 8    1  0.2929965E+004  0.1043930E+01  0.7957747E-01            NaN
         13   -1    0    0    0    0  0.00000000000E+00  0.00000000000E+00  0.74505805969E-08  0.10566000000E+00  0.10566000000E+00 0. -1.
     999900   -1    0    0    0    0 -0.00000000000E+00 -0.00000000000E+00 -0.74505805969E-08  0.93827000000E+00  0.93827000000E+00 0. -1.
     999902    2    1    2    0    0 -0.72919917291E-02 -0.89673189541E-02  0.74677907479E-02  0.10301694095E+01  0.10300775012E+01 0.  0.
     999903    2    3    3    0    0 -0.11815857495E+00 -0.33808870655E-01 -0.52294408711E-01  0.14085505424E+00  0.44732008158E-01 0.  0.
         14    1    1    2    0    0  0.72919917291E-02  0.89673189541E-02 -0.74677907479E-02  0.13760590513E-01  0.00000000000E+00 0.  1.
     999901    1    3    3    0    0  0.11086658322E+00  0.24841551701E-01  0.59762199459E-01  0.88931435525E+00  0.88000000000E+00 0.  1.
        -11    1    4    4    0    0 -0.57294397872E-01  0.43385183572E-02 -0.33858551787E-01  0.66694328238E-01  0.51100000000E-03 0. -1.
         11    1    4    4    0    0 -0.60864177076E-01 -0.38147389013E-01 -0.18435856925E-01  0.74160726002E-01  0.51100000000E-03 0.  1.
</event>
<event>
 8    1  0.2929965E+004  0.1043930E+01  0.7957747E-01            NaN
         13   -1    0    0    0    0  0.00000000000E+00  0.00000000000E+00  0.74505805969E-08  0.10566000000E+00  0.10566000000E+00 0.  1.
     999900   -1    0    0    0    0 -0.00000000000E+00 -0.00000000000E+00 -0.74505805969E-08  0.93827000000E+00  0.93827000000E+00 0.  1.
     999902    2    1    2    0    0 -0.58753104854E-02  0.68373444929E-02 -0.60972791449E-02  0.10330467392E+01  0.10329894094E+01 0.  0.
     999903    2    3    3    0    0  0.78919231623E-01  0.91936449668E-01 -0.61258339354E-01  0.14317331300E+00  0.45447304830E-01 0.  0.
         14    1    1    2    0    0  0.58753104854E-02 -0.68373444929E-02  0.60972791449E-02  0.10883260816E-01  0.00000000000E+00 0. -1.
     999901    1    3    3    0    0 -0.84794542108E-01 -0.85099105175E-01  0.55161060209E-01  0.88987342619E+00  0.88000000000E+00 0.  1.
        -11    1    4    4    0    0  0.71565582929E-01  0.54620834671E-01 -0.52217595058E-01  0.10407692633E+00  0.51100000000E-03 0.  1.
         11    1    4    4    0    0  0.73536486938E-02  0.37315614997E-01 -0.90407442964E-02  0.39096386664E-01  0.51100000000E-03 0. -1.
</event>
<event>
 8    1  0.2929965E+004  0.1043930E+01  0.7957747E-01            NaN
         13   -1    0    0    0    0  0.00000000000E+00  0.00000000000E+00  0.74505805969E-08  0.10566000000E+00  0.10566000000E+00 0. -1.
     999900   -1    0    0    0    0 -0.00000000000E+00 -0.00000000000E+00 -0.74505805969E-08  0.93827000000E+00  0.93827000000E+00 0. -1.
     999902    2    1    2    0    0  0.15117547239E-01  0.43567771568E-02  0.75772176280E-02  0.10264675841E+01  0.10263190368E+01 0.  0.
     999903    2    3    3    0    0 -0.18713226871E-01 -0.60153365825E-01  0.11311950143E+00  0.13717277726E+00  0.45296102886E-01 0.  0.
         14    1    1    2    0    0 -0.15117547239E-01 -0.43567771568E-02 -0.75772176280E-02  0.17462415890E-01  0.00000000000E+00 0.  1.
     999901    1    3    3    0    0  0.33830774110E-01  0.64510142982E-01 -0.10554228380E+00  0.88929480685E+00  0.88000000000E+00 0. -1.
        -11    1    4    4    0    0 -0.23479950315E-01 -0.65048820290E-01  0.92845369826E-01  0.11577210764E+00  0.51100000000E-03 0. -1.
         11    1    4    4    0    0  0.47667234442E-02  0.48954544651E-02  0.20274131605E-01  0.21400669620E-01  0.51100000000E-03 0.  1.
</event>
<event>
 7    1  0.2929965E+004  0.1043930E+01  0.7957747E-01            NaN
         13   -1    0    0    0    0  0.00000000000E+00  0.00000000000E+00  0.74505805969E-08  0.10566000000E+00  0.10566000000E+00 0. -1.
     999900   -1    0    0    0    0 -0.00000000000E+00 -0.00000000000E+00 -0.74505805969E-08  0.93827000000E+00  0.93827000000E+00 0.  1.
     999903    2    1    2    0    0 -0.32175774015E-01 -0.64741754866E-01  0.61914744770E-01  0.10788467875E+00  0.50782802530E-01 0.  0.
         14    1    1    2    0    0 -0.28133216330E-01  0.43266357274E-01 -0.97648503302E-03  0.51617914098E-01  0.00000000000E+00 0. -1.
     999901    1    1    2    0    0  0.60308990345E-01  0.21475397592E-01 -0.60938259737E-01  0.88442740715E+00  0.88000000000E+00 0.  1.
        -11    1    3    3    0    0  0.13336701005E-01 -0.22634314095E-01  0.20382036011E-01  0.33254597895E-01  0.51100000000E-03 0.  1.
         11    1    3    3    0    0 -0.45512475020E-01 -0.42107440771E-01  0.41532708759E-01  0.74630080856E-01  0.51100000000E-03 0. -1.
</event>
<event>
 8    1  0.2929965E+004  0.1043930E+01  0.7957747E-01            NaN
         13   -1    0    0    0    0  0.00000000000E+00  0.00000000000E+00  0.74505805969E-08  0.10566000000E+00  0.10566000000E+00 0.  1.
     999900   -1    0    0    0    0 -0.00000000000E+00 -0.00000000000E+00 -0.74505805969E-08  0.93827000000E+00  0.93827000000E+00 0.  1.
     999902    2    1    2    0    0  0.11466128161E-01  0.24184832863E-02 -0.67250048354E-02  0.10304190102E+01  0.10303304274E+01 0.  0.
     999903    2    3    3    0    0  0.86009100660E-01  0.10117408817E+00 -0.20130825948E-01  0.14166199034E+00  0.45045619545E-01 0.  0.
         14    1    1    2    0    0 -0.11466128161E-01 -0.24184832863E-02  0.67250048354E-02  0.13510989840E-01  0.00000000000E+00 0. -1.
     999901    1    3    3    0    0 -0.74542972498E-01 -0.98755604882E-01  0.13405821113E-01  0.88875701982E+00  0.88000000000E+00 0. -1.
        -11    1    4    4    0    0  0.49775796895E-01  0.30031227498E-01 -0.21014114359E-01  0.61817139248E-01  0.51100000000E-03 0. -1.
         11    1    4    4    0    0  0.36233303765E-01  0.71142860670E-01  0.88328841136E-03  0.79844851089E-01  0.51100000000E-03 0.  1.
</event>
<event>
 8    1  0.2929965E+004  0.1043930E+01  0.7957747E-01            NaN
         13   -1    0    0    0    0  0.00000000000E+00  0.00000000000E+00  0.74505805969E-08  0.10566000000E+00  0.10566000000E+00 0.  1.
     999900   -1    0    0    0    0 -0.00000000000E+00 -0.00000000000E+00 -0.74505805969E-08  0.93827000000E+00  0.93827000000E+00 0. -1.
     999902    2    1    2    0    0 -0.90218051711E-02 -0.56229131864E-02  0.87033489427E-02  0.10301910625E+01  0.10300994451E+01 0.  0.
     999903    2    3    3    0    0 -0.10428562058E+00  0.80623904890E-01 -0.16192384139E-01  0.14050937464E+00  0.45880130325E-01 0.  0.
         14    1    1    2    0    0  0.90218051711E-02  0.56229131864E-02 -0.87033489427E-02  0.13738937516E-01  0.00000000000E+00 0. -1.
     999901    1    3    3    0    0  0.95263815410E-01 -0.86246818076E-01  0.24895733082E-01  0.88968168784E+00  0.88000000000E+00 0.  1.
        -11    1    4    4    0    0 -0.82791321173E-01  0.73429757127E-01 -0.29092135875E-01  0.11442440991E+00  0.51100000000E-03 0.  1.
         11    1    4    4    0    0 -0.21494299408E-01  0.71941477630E-02  0.12899751735E-01  0.26084964729E-01  0.51100000000E-03 0. -1.
</event>
<event>
 8    1  0.2929965E+004  0.1043930E+01  0.7957747E-01            NaN
         13   -1    0    0    0    0  0.00000000000E+00  0.00000000000E+00  0.74505805969E-08  0.10566000000E+00  0.10566000000E+00 0.  1.
     999900   -1    0    0    0    0 -0.00000000000E+00 -0.00000000000E+00 -0.74505805969E-08  0.93827000000E+00  0.93827000000E+00 0. -1.
     999902    2    1    2    0    0  0.10928394315E-01 -0.83513393983E-02 -0.24318014901E-02  0.10299625976E+01  0.10298678867E+01 0.  0.
     999903    2    3    3    0    0  0.35720338066E-01 -0.12898863405E+00 -0.15893251853E-02  0.14138581018E+00  0.45534724109E-01 0.  0.
         14    1    1    2    0    0 -0.10928394315E-01  0.83513393983E-02  0.24318014901E-02  0.13967402426E-01  0.00000000000E+00 0.  1.
     999901    1    3    3    0    0 -0.24791943752E-01  0.12063729465E+00 -0.84247630472E-03  0.88857678740E+00  0.88000000000E+00 0.  1.
        -11    1    4    4    0    0  0.15438054349E-01 -0.63690878723E-01 -0.23439053150E-01  0.69602527886E-01  0.51100000000E-03 0.  1.
         11    1    4    4    0    0  0.20282283717E-01 -0.65297755324E-01  0.21849727965E-01  0.71783282290E-01  0.51100000000E-03 0. -1.
</event>
<event>
 8    1  0.2929965E+004  0.1043930E+01  0.7957747E-01            NaN
         13   -1    0    0    0    0  0.00000000000E+00  0.00000000000E+00  0.74505805969E-08  0.10566000000E+00  0.10566000000E+00 0.  1.
     999900   -1    0    0    0    0 -0.00000000000E+00 -0.00000000000E+00 -0.74505805969E-08  0.93827000000E+00  0.93827000000E+00 0.  1.
     999902    2    1    2    0    0  0.97779972919E-02 -0.81980183016E-02 -0.20871210807E-02  0.10310004675E+01  0.10309193913E+01 0.  0.
     999903    2    3    3    0    0  0.16915253198E-01 -0.13357885137E+00 -0.36014185680E-02  0.14208338096E+00  0.45224789741E-01 0.  0.
         14    1    1    2    0    0 -0.97779972919E-02  0.81980183016E-02  0.20871210807E-02  0.12929532456E-01  0.00000000000E+00 0. -1.
     999901    1    3    3    0    0 -0.71372559056E-02  0.12538083306E+00  0.15142974873E-02  0.88891708658E+00  0.88000000000E+00 0. -1.
        -11    1    4    4    0    0  0.19264125275E-01 -0.37133427283E-01  0.13795595925E-01  0.44051986701E-01  0.51100000000E-03 0.  1.
         11    1    4    4    0    0 -0.23488720777E-02 -0.96445424082E-01 -0.17397014493E-01  0.98031394261E-01  0.51100000000E-03 0. -1.
</event>
<event>
 8    1  0.2929965E+004  0.1043930E+01  0.7957747E-01            NaN
         13   -1    0    0    0    0  0.00000000000E+00  0.00000000000E+00  0.74505805969E-08  0.10566000000E+00  0.10566000000E+00 0. -1.
     999900   -1    0    0    0    0 -0.00000000000E+00 -0.00000000000E+00 -0.74505805969E-08  0.93827000000E+00  0.93827000000E+00 0. -1.
     999902    2    1    2    0    0 -0.27362948480E-02 -0.13494828125E-01  0.55993308242E-02  0.10290656063E+01  0.10289582459E+01 0.  0.
     999903    2    3    3    0    0 -0.74129481409E-01  0.10008849269E+00  0.40162113264E-01  0.13822738089E+00  0.44507607228E-01 0.  0.
         14    1    1    2    0    0  0.27362948480E-02  0.13494828125E-01 -0.55993308242E-02  0.14864393741E-01  0.00000000000E+00 0. -1.
     999901    1    3    3    0    0  0.71393186561E-01 -0.11358332082E+00 -0.34562782439E-01  0.89083822537E+00  0.88000000000E+00 0. -1.
        -11    1    4    4    0    0 -0.30931876572E-02  0.22501270489E-01  0.21712839026E-01  0.31425841008E-01  0.51100000000E-03 0.  1.
         11    1    4    4    0    0 -0.71036293751E-01  0.77587222205E-01  0.18449274238E-01  0.10680153988E+00  0.51100000000E-03 0. -1.
</event>
<event>
 8    1  0.2929965E+004  0.1043930E+01  0.7957747E-01            NaN
         13   -1    0    0    0    0  0.00000000000E+00  0.00000000000E+00  0.74505805969E-08  0.10566000000E+00  0.10566000000E+00 0.  1.
     999900   -1    0    0    0    0 -0.00000000000E+00 -0.00000000000E+00 -0.74505805969E-08  0.93827000000E+00  0.93827000000E+00 0. -1.
     999902    2    1    2    0    0 -0.55377494030E-02 -0.13119173359E-01  0.67195248160E-03  0.10296740925E+01  0.10295754008E+01 0.  0.
     999903    2    3    3    0    0  0.17151640657E-01 -0.11778609736E+00  0.64885837871E-01  0.14085836556E+00  0.38251322655E-01 0.  0.
         14    1    1    2    0    0  0.55377494030E-02  0.13119173359E-01 -0.67195248160E-03  0.14255907485E-01  0.00000000000E+00 0.  1.
     999901    1    3    3    0    0 -0.22689390060E-01  0.10466692400E+00 -0.64213885389E-01  0.88881572695E+00  0.88000000000E+00 0. -1.
        -11    1    4    4    0    0  0.58987665194E-02 -0.55528657154E-01  0.51970814046E-01  0.76285344893E-01  0.51100000000E-03 0. -1.
         11    1    4    4    0    0  0.11252874138E-01 -0.62257440204E-01  0.12915023825E-01  0.64573020671E-01  0.51100000000E-03 0.  1.
</event>
<event>
 8    1  0.2929965E+004  0.1043930E+01  0.7957747E-01            NaN
         13   -1    0    0    0    0  0.00000000000E+00  0.00000000000E+00  0.74505805969E-08  0.10566000000E+00  0.10566000000E+00 0. -1.
     999900   -1    0    0    0    0 -0.00000000000E+00 -0.00000000000E+00 -0.74505805969E-08  0.93827000000E+00  0.93827000000E+00 0. -1.
     999902    2    1    2    0    0 -0.10558710867E-01 -0.83335658048E-02 -0.26853443125E-02  0.10302133762E+01  0.10301220582E+01 0.  0.
     999903    2    3    3    0    0  0.10748351152E+00 -0.81186643671E-01 -0.16003886127E-01  0.13924821371E+00  0.31463698019E-01 0.  0.
         14    1    1    2    0    0  0.10558710867E-01  0.83335658048E-02  0.26853443125E-02  0.13716623793E-01  0.00000000000E+00 0. -1.
     999901    1    3    3    0    0 -0.11804222238E+00  0.72853077866E-01  0.13318541815E-01  0.89096516249E+00  0.88000000000E+00 0.  1.
        -11    1    4    4    0    0  0.60564275238E-01 -0.26948443641E-01 -0.29853713551E-02  0.66358297243E-01  0.51100000000E-03 0.  1.
         11    1    4    4    0    0  0.46919236278E-01 -0.54238200029E-01 -0.13018514772E-01  0.72889916471E-01  0.51100000000E-03 0. -1.
</event>
<event>
 8    1  0.2929965E+004  0.1043930E+01  0.7957747E-01            NaN
         13   -1    0    0    0    0  0.00000000000E+00  0.00000000000E+00  0.74505805969E-08  0.10566000000E+00  0.10566000000E+00 0. -1.
     999900   -1    0    0    0    0 -0.00000000000E+00 -0.00000000000E+00 -0.74505805969E-08  0.93827000000E+00  0.93827000000E+00 0.  1.
     999902    2    1    2    0    0 -0.45156513385E-02  0.13040604292E-01 -0.99947151264E-02  0.10268905517E+01  0.10267491721E+01 0.  0.
     999903    2    3    3    0    0 -0.30165072515E-01  0.12415919493E-01  0.12471090214E+00  0.13627060676E+00  0.44190298672E-01 0.  0.
         14    1    1    2    0    0  0.45156513385E-02 -0.13040604292E-01  0.99947151264E-02  0.17039448282E-01  0.00000000000E+00 0.  1.
     999901    1    3    3    0    0  0.25649421176E-01  0.62468479900E-03 -0.13470561727E+00  0.89061994496E+00  0.88000000000E+00 0.  1.
        -11    1    4    4    0    0 -0.17175079014E-01 -0.67831401805E-02  0.14056096329E-01  0.23212696846E-01  0.51100000000E-03 0. -1.
         11    1    4    4    0    0 -0.12989993501E-01  0.19199059673E-01  0.11065480581E+00  0.11305790991E+00  0.51100000000E-03 0.  1.
</event>
<event>
 8    1  0.2929965E+004  0.1043930E+01  0.7957747E-01            NaN
         13   -1    0    0    0    0  0.00000000000E+00  0.00000000000E+00  0.74505805969E-08  0.10566000000E+00  0.10566000000E+00 0.  1.
     999900   -1    0    0    0    0 -0.00000000000E+00 -0.00000000000E+00 -0.74505805969E-08  0.93827000000E+00  0.93827000000E+00 0.  1.
     999902    2    1    2    0    0  0.47022619713E-02 -0.14614874028E-01 -0.97401655834E-03  0.10285464205E+01  0.10284313709E+01 0.  0.
     999903    2    3    3    0    0 -0.47955927393E-01 -0.12291080704E+00  0.19930223517E-01  0.14009952772E+00  0.42706280546E-01 0.  0.
         14    1    1    2    0    0 -0.47022619713E-02  0.14614874028E-01  0.97401655834E-03  0.15383579517E-01  0.00000000000E+00 0. -1.
     999901    1    3    3    0    0  0.52658189364E-01  0.10829593301E+00 -0.20904240076E-01  0.88844689277E+00  0.88000000000E+00 0.  1.
        -11    1    4    4    0    0 -0.19760031607E-01 -0.60332798474E-01 -0.11643293849E-01  0.64547136524E-01  0.51100000000E-03 0.  1.
         11    1    4    4    0    0 -0.28195895786E-01 -0.62578008564E-01  0.31573517366E-01  0.75552391193E-01  0.51100000000E-03 0. -1.
</event>
<event>
 8    1  0.2929965E+004  0.1043930E+01  0.7957747E-01            NaN
         13   -1    0    0    0    0  0.00000000000E+00  0.00000000000E+00  0.74505805969E-08  0.10566000000E+00  0.10566000000E+00 0. -1.
     999900   -1    0    0    0    0 -0.00000000000E+00 -0.00000000000E+00 -0.74505805969E-08  0.93827000000E+00  0.93827000000E+00 0.  1.
     999902    2    1    2    0    0  0.42973742418E-02  0.62766693901E-02 -0.11928122740E-01  0.10297827700E+01  0.10296855876E+01 0.  0.
     999903    2    3    3    0    0 -0.89588264547E-01  0.33820054145E-01  0.89628467830E-01  0.13855502567E+00  0.44658478313E-01 0.  0.
         14    1    1    2    0    0 -0.42973742418E-02 -0.62766693901E-02  0.11928122740E-01  0.14147229980E-01  0.00000000000E+00 0. -1.
     999901    1    3    3    0    0  0.93885638789E-01 -0.27543384755E-01 -0.10155659057E+00  0.89122774435E+00  0.88000000000E+00 0. -1.
        -11    1    4    4    0    0 -0.71315423027E-01  0.10232688200E-01  0.78893706656E-01  0.10684135688E+00  0.51100000000E-03 0.  1.
         11    1    4    4    0    0 -0.18272841520E-01  0.23587365945E-01  0.10734761175E-01  0.31713668786E-01  0.51100000000E-03 0. -1.
</event>
<event>
 8    1  0.2929965E+004  0.1043930E+01  0.7957747E-01            NaN
         13   -1    0    0    0    0  0.00000000000E+00  0.00000000000E+00  0.74505805969E-08  0.10566000000E+00  0.10566000000E+00 0.  1.
     999900   -1    0    0    0    0 -0.00000000000E+00 -0.00000000000E+00 -0.74505805969E-08  0.93827000000E+00  0.93827000000E+00 0. -1.
     999902    2    1    2    0    0 -0.10498281520E-01 -0.60668056851E-02 -0.63387597719E-02  0.10302478978E+01  0.10301570419E+01 0.  0.
     999903    2    3    3    0    0 -0.14348452430E-01  0.49875690500E-02 -0.13241616850E+00  0.14118516882E+00  0.46566686378E-01 0.  0.
         14    1    1    2    0    0  0.10498281520E-01  0.60668056851E-02  0.63387597719E-02  0.13682102234E-01  0.00000000000E+00 0. -1.
     999901    1    3    3    0    0  0.38501709100E-02 -0.11054374735E-01  0.12607740873E+00  0.88906272895E+00  0.88000000000E+00 0.  1.
        -11    1    4    4    0    0  0.14395772321E-02 -0.11309841964E-01 -0.10488794740E+00  0.10550700232E+00  0.51100000000E-03 0.  1.
         11    1    4    4    0    0 -0.15788029662E-01  0.16297411014E-01 -0.27528221106E-01  0.35678166497E-01  0.51100000000E-03 0. -1.
</event>
<event>
 8    1  0.2929965E+004  0.1043930E+01  0.7957747E-01            NaN
         13   -1    0    0    0    0  0.00000000000E+00  0.00000000000E+00  0.74505805969E-08  0.10566000000E+00  0.10566000000E+00 0.  1.
     999900   -1    0    0    0    0 -0.00000000000E+00 -0.00000000000E+00 -0.74505805969E-08  0.93827000000E+00  0.93827000000E+00 0. -1.
     999902    2    1    2    0    0  0.20826701286E-02  0.13122292684E-01  0.19646946179E-02  0.10304989872E+01  0.10304114569E+01 0.  0.
     999903    2    3    3    0    0 -0.31646772124E-01  0.58826905149E-02  0.12960018162E+00  0.14062208297E+00  0.44070839679E-01 0.  0.
         14    1    1    2    0    0 -0.20826701286E-02 -0.13122292684E-01 -0.19646946179E-02  0.13431012809E-01  0.00000000000E+00 0. -1.
     999901    1    3    3    0    0  0.33729442252E-01  0.72396021687E-02 -0.12763548700E+00  0.88987690422E+00  0.88000000000E+00 0. -1.
        -11    1    4    4    0    0  0.17356587651E-02  0.41088525846E-02  0.83784060753E-01  0.83904261740E-01  0.51100000000E-03 0.  1.
         11    1    4    4    0    0 -0.33382430889E-01  0.17738379303E-02  0.45816120870E-01  0.56717821235E-01  0.51100000000E-03 0. -1.
</event>
<event>
 7    1  0.2929965E+004  0.1043930E+01  0.7957747E-01            NaN
         13   -1    0    0    0    0  0.00000000000E+00  0.00000000000E+00  0.74505805969E-08  0.10566000000E+00  0.10566000000E+00 0. -1.
     999900   -1    0    0    0    0 -0.00000000000E+00 -0.00000000000E+00 -0.74505805969E-08  0.93827000000E+00  0.93827000000E+00 0. -1.
     999903    2    1    2    0    0 -0.85465551622E-01 -0.48097404084E-01  0.35978499065E-01  0.11383753833E+00  0.45241705813E-01 0.  0.
         14    1    1    2    0    0 -0.38890402501E-01  0.65616986992E-02 -0.58295416242E-02  0.39868569727E-01  0.00000000000E+00 0.  1.
     999901    1    1    2    0    0  0.12435595412E+00  0.41535705384E-01 -0.30148957441E-01  0.89022389194E+00  0.88000000000E+00 0. -1.
        -11    1    3    3    0    0 -0.25164821868E-01 -0.17330104755E-01 -0.98253055297E-02  0.32099821498E-01  0.51100000000E-03 0.  1.
         11    1    3    3    0    0 -0.60300729754E-01 -0.30767299329E-01  0.45803804594E-01  0.81737716834E-01  0.51100000000E-03 0. -1.
</event>
<event>
 8    1  0.2929965E+004  0.1043930E+01  0.7957747E-01            NaN
         13   -1    0    0    0    0  0.00000000000E+00  0.00000000000E+00  0.74505805969E-08  0.10566000000E+00  0.10566000000E+00 0.  1.
     999900   -1    0    0    0    0 -0.00000000000E+00 -0.00000000000E+00 -0.74505805969E-08  0.93827000000E+00  0.93827000000E+00 0.  1.
     999902    2    1    2    0    0  0.12173169395E-01 -0.48442288861E-02 -0.45214032384E-02  0.10300701409E+01  0.10299768927E+01 0.  0.
     999903    2    3    3    0    0 -0.11944519561E+00 -0.12332672692E-02 -0.55142267153E-01  0.13883565723E+00  0.44339535273E-01 0.  0.
         14    1    1    2    0    0 -0.12173169395E-01  0.48442288861E-02  0.45214032384E-02  0.13859859085E-01  0.00000000000E+00 0. -1.
     999901    1    3    3    0    0  0.13161836501E+00 -0.36109616168E-02  0.50620863915E-01  0.89123448369E+00  0.88000000000E+00 0. -1.
        -11    1    4    4    0    0 -0.10578071997E+00  0.83331913421E-02 -0.59411540764E-01  0.12161001230E+00  0.51100000000E-03 0. -1.
         11    1    4    4    0    0 -0.13664475644E-01 -0.95664586113E-02  0.42692736110E-02  0.17225644927E-01  0.51100000000E-03 0.  1.
</event>
<event>
 8    1  0.2929965E+004  0.1043930E+01  0.7957747E-01            NaN
         13   -1    0    0    0    0  0.00000000000E+00  0.00000000000E+00  0.74505805969E-08  0.10566000000E+00  0.10566000000E+00 0.  1.
     999900   -1    0    0    0    0 -0.00000000000E+00 -0.00000000000E+00 -0.74505805969E-08  0.93827000000E+00  0.93827000000E+00 0.  1.
     999902    2    1    2    0    0  0.23005229889E-02 -0.64990736880E-02  0.88886006199E-02  0.10326811074E+01  0.10326198390E+01 0.  0.
     999903    2    3    3    0    0 -0.42434180946E-01 -0.40835140660E-01 -0.12299521009E+00  0.14106824363E+00  0.36114529351E-01 0.  0.
         14    1    1    2    0    0 -0.23005229889E-02  0.64990736880E-02 -0.88886006199E-02  0.11248892648E-01  0.00000000000E+00 0. -1.
     999901    1    3    3    0    0  0.44734703935E-01  0.34336066972E-01  0.13188381071E+00  0.89161286372E+00  0.88000000000E+00 0. -1.
        -11    1    4    4    0    0 -0.23510242664E-01 -0.43796234328E-01 -0.93556410375E-01  0.10594293131E+00  0.51100000000E-03 0. -1.
         11    1    4    4    0    0 -0.18923938282E-01  0.29610936682E-02 -0.29438799714E-01  0.35125312317E-01  0.51100000000E-03 0.  1.
</event>
<event>
 8    1  0.2929965E+004  0.1043930E+01  0.7957747E-01            NaN
         13   -1    0    0    0    0  0.00000000000E+00  0.00000000000E+00  0.74505805969E-08  0.10566000000E+00  0.10566000000E+00 0.  1.
     999900   -1    0    0    0    0 -0.00000000000E+00 -0.00000000000E+00 -0.74505805969E-08  0.93827000000E+00  0.93827000000E+00 0.  1.
     999902    2    1    2    0    0  0.74183759169E-02 -0.72252445213E-02 -0.11127560993E-01  0.10287293726E+01  0.10286170633E+01 0.  0.
     999903    2    3    3    0    0  0.97444870607E-01  0.66284971146E-01  0.57379317994E-01  0.13844755541E+00  0.44566122314E-01 0.  0.
         14    1    1    2    0    0 -0.74183759169E-02  0.72252445213E-02  0.11127560993E-01  0.15200627398E-01  0.00000000000E+00 0.  1.
     999901    1    3    3    0    0 -0.90026494691E-01 -0.73510215667E-01 -0.68506878987E-01  0.89028181719E+00  0.88000000000E+00 0. -1.
        -11    1    4    4    0    0  0.19021715568E-01  0.17633428142E-01 -0.58261889845E-02  0.26588889601E-01  0.51100000000E-03 0. -1.
         11    1    4    4    0    0  0.78423155040E-01  0.48651543004E-01  0.63205506979E-01  0.11185866581E+00  0.51100000000E-03 0.  1.
</event>
<event>
 8    1  0.2929965E+004  0.1043930E+01  0.7957747E-01            NaN
         13   -1    0    0    0    0  0.00000000000E+00  0.00000000000E+00  0.74505805969E-08  0.10566000000E+00  0.10566000000E+00 0. -1.
     999900   -1    0    0    0    0 -0.00000000000E+00 -0.00000000000E+00 -0.74505805969E-08  0.93827000000E+00  0.93827000000E+00 0. -1.
     999902    2    1    2    0    0  0.92670046048E-02 -0.98332812920E-02  0.44628840625E-02  0.10297001676E+01  0.10296018391E+01 0.  0.
     999903    2    3    3    0    0 -0.10019321208E+00  0.72627812469E-01 -0.40260490398E-01  0.13797063955E+00  0.45842244690E-01 0.  0.
         14    1    1    2    0    0 -0.92670046048E-02  0.98332812920E-02 -0.44628840625E-02  0.14229832377E-01  0.00000000000E+00 0. -1.
     999901    1    3    3    0    0  0.10946021669E+00 -0.82461093761E-01  0.44723374461E-01  0.89172952808E+00  0.88000000000E+00 0.  1.
        -11    1    4    4    0    0 -0.56318456567E-01  0.44064906493E-01  0.67166731831E-03  0.71513612637E-01  0.51100000000E-03 0.  1.
         11    1    4    4    0    0 -0.43874755515E-01  0.28562905977E-01 -0.40932157717E-01  0.66457026910E-01  0.51100000000E-03 0. -1.
</event>
<event>
 8    1  0.2929965E+004  0.1043930E+01  0.7957747E-01            NaN
         13   -1    0    0    0    0  0.00000000000E+00  0.00000000000E+00  0.74505805969E-08  0.10566000000E+00  0.10566000000E+00 0.  1.
     999900   -1    0    0    0    0 -0.00000000000E+00 -0.00000000000E+00 -0.74505805969E-08  0.93827000000E+00  0.93827000000E+00 0. -1.
     999902    2    1    2    0    0  0.11110561600E-01  0.52504258406E-02 -0.65665997157E-02  0.10299968818E+01  0.10299026385E+01 0.  0.
     999903    2    3    3    0    0 -0.84583116757E-01 -0.10065798956E+00 -0.91458243350E-02  0.13849224081E+00  0.42545506913E-01 0.  0.
         14    1    1    2    0    0 -0.11110561600E-01 -0.52504258406E-02  0.65665997157E-02  0.13933118187E-01  0.00000000000E+00 0.  1.
     999901    1    3    3    0    0  0.95693678357E-01  0.10590841540E+00  0.25792246193E-02  0.89150464100E+00  0.88000000000E+00 0.  1.
        -11    1    4    4    0    0 -0.18689297865E-01 -0.50850513415E-01 -0.13296218453E-01  0.55786334486E-01  0.51100000000E-03 0.  1.
         11    1    4    4    0    0 -0.65893818893E-01 -0.49807476149E-01  0.41503941182E-02  0.82705906324E-01  0.51100000000E-03 0. -1.
</event>
<event>
 8    1  0.2929965E+004  0.1043930E+01  0.7957747E-01            NaN
         13   -1    0    0    0    0  0.00000000000E+00  0.00000000000E+00  0.74505805969E-08  0.10566000000E+00  0.10566000000E+00 0. -1.
     999900   -1    0    0    0    0 -0.00000000000E+00 -0.00000000000E+00 -0.74505805969E-08  0.93827000000E+00  0.93827000000E+00 0. -1.
     999902    2    1    2    0    0  0.12386858896E-01  0.19428977474E-02 -0.18495727178E-02  0.10312560091E+01  0.10311781254E+01 0.  0.
     999903    2    3    3    0    0  0.40193352621E-02 -0.12110217837E+00  0.56403865637E-01  0.14074853063E+00  0.44123238246E-01 0.  0.
         14    1    1    2    0    0 -0.12386858896E-01 -0.19428977474E-02  0.18495727178E-02  0.12673990855E-01  0.00000000000E+00 0. -1.
     999901    1    3    3    0    0  0.83675236336E-02  0.12304507612E+00 -0.58253438355E-01  0.89050747851E+00  0.88000000000E+00 0. -1.
        -11    1    4    4    0    0  0.88029072812E-02 -0.10236349352E-01  0.19657151332E-01  0.23852436860E-01  0.51100000000E-03 0. -1.
         11    1    4    4    0    0 -0.47835720191E-02 -0.11086582902E+00  0.36746714305E-01  0.11689609377E+00  0.51100000000E-03 0.  1.
</event>
<event>
 8    1  0.2929965E+004  0.1043930E+01  0.7957747E-01            NaN
         13   -1    0    0    0    0  0.00000000000E+00  0.00000000000E+00  0.74505805969E-08  0.10566000000E+00  0.10566000000E+00 0.  1.
     999900   -1    0    0    0    0 -0.00000000000E+00 -0.00000000000E+00 -0.74505805969E-08  0.93827000000E+00  0.93827000000E+00 0. -1.
     999902    2    1    2    0    0 -0.49678124964E-02 -0.13113778016E-01  0.58648008892E-02  0.10287297953E+01  0.10286174923E+01 0.  0.
     999903    2    3    3    0    0 -0.66804731573E-01  0.82854701665E-01 -0.74983507528E-01  0.13767973907E+00  0.44781808809E-01 0.  0.
         14    1    1    2    0    0  0.49678124964E-02  0.13113778016E-01 -0.58648008892E-02  0.15200204746E-01  0.00000000000E+00 0.  1.
     999901    1    3    3    0    0  0.61836919076E-01 -0.95968479682E-01  0.80848308417E-01  0.89105005618E+00  0.88000000000E+00 0. -1.
        -11    1    4    4    0    0 -0.42773381778E-01  0.80280151665E-01 -0.63356279472E-01  0.11085460843E+00  0.51100000000E-03 0.  1.
         11    1    4    4    0    0 -0.24031349794E-01  0.25745500006E-02 -0.11627228056E-01  0.26825130641E-01  0.51100000000E-03 0. -1.
</event>
<event>
 8    1  0.2929965E+004  0.1043930E+01  0.7957747E-01            NaN
         13   -1    0    0    0    0  0.00000000000E+00  0.00000000000E+00  0.74505805969E-08  0.10566000000E+00  0.10566000000E+00 0. -1.
     999900   -1    0    0    0    0 -0.00000000000E+00 -0.00000000000E+00 -0.74505805969E-08  0.93827000000E+00  0.93827000000E+00 0. -1.
     999902    2    1    2    0    0  0.26455441162E-02  0.11490640392E-01 -0.66095596572E-02  0.10304126038E+01  0.10303239365E+01 0.  0.
     999903    2    3    3    0    0  0.11547947991E+00  0.27619962086E-01 -0.62222206227E-01  0.14132069714E+00  0.44738841131E-01 0.  0.
         14    1    1    2    0    0 -0.26455441162E-02 -0.11490640392E-01  0.66095596572E-02  0.13517396168E-01  0.00000000000E+00 0.  1.
     999901    1    3    3    0    0 -0.11283393580E+00 -0.16129321694E-01  0.55612646569E-01  0.88909190669E+00  0.88000000000E+00 0. -1.
        -11    1    4    4    0    0  0.63039519735E-01  0.15432470732E-01 -0.88396909456E-02  0.65502240101E-01  0.51100000000E-03 0. -1.
         11    1    4    4    0    0  0.52439960179E-01  0.12187491355E-01 -0.53382515281E-01  0.75818457040E-01  0.51100000000E-03 0.  1.
</event>
<event>
 8    1  0.2929965E+004  0.1043930E+01  0.7957747E-01            NaN
         13   -1    0    0    0    0  0.00000000000E+00  0.00000000000E+00  0.74505805969E-08  0.10566000000E+00  0.10566000000E+00 0. -1.
     999900   -1    0    0    0    0 -0.00000000000E+00 -0.00000000000E+00 -0.74505805969E-08  0.93827000000E+00  0.93827000000E+00 0.  1.
     999902    2    1    2    0    0  0.12400226668E-02  0.14758284219E-01  0.16127558101E-03  0.10291188346E+01  0.10290122474E+01 0.  0.
     999903    2    3    3    0    0 -0.12209235217E+00  0.49963714781E-01 -0.73639272102E-02  0.13978935369E+00  0.45649980581E-01 0.  0.
         14    1    1    2    0    0 -0.12400226668E-02 -0.14758284219E-01 -0.16127558101E-03  0.14811165353E-01  0.00000000000E+00 0. -1.
     999901    1    3    3    0    0  0.12333237484E+00 -0.35205430562E-01  0.75252027912E-02  0.88932948096E+00  0.88000000000E+00 0.  1.
        -11    1    4    4    0    0 -0.38022874590E-01  0.39526075694E-01 -0.43262758495E-02  0.55018428145E-01  0.51100000000E-03 0.  1.
         11    1    4    4    0    0 -0.84069477583E-01  0.10437639087E-01 -0.30376513608E-02  0.84770925544E-01  0.51100000000E-03 0. -1.
</event>
<event>
 8    1  0.2929965E+004  0.1043930E+01  0.7957747E-01            NaN
         13   -1    0    0    0    0  0.00000000000E+00  0.00000000000E+00  0.74505805969E-08  0.10566000000E+00  0.10566000000E+00 0. -1.
     999900   -1    0    0    0    0 -0.00000000000E+00 -0.00000000000E+00 -0.74505805969E-08  0.93827000000E+00  0.93827000000E+00 0. -1.
     999902    2    1    2    0    0  0.11078280080E-01  0.77185428037E-02  0.44163143265E-02  0.10297240849E+01  0.10296260889E+01 0.  0.
     999903    2    3    3    0    0  0.11774549706E-02  0.21755384085E-01  0.13121890980E+00  0.14046936463E+00  0.45150381764E-01 0.  0.
         14    1    1    2    0    0 -0.11078280080E-01 -0.77185428037E-02 -0.44163143265E-02  0.14205915133E-01  0.00000000000E+00 0.  1.
     999901    1    3    3    0    0  0.99008251091E-02 -0.14036841281E-01 -0.12680259547E+00  0.88925472024E+00  0.88000000000E+00 0. -1.
        -11    1    4    4    0    0 -0.14035745978E-01  0.17250429186E-01  0.11719529099E+00  0.11928778991E+00  0.51100000000E-03 0. -1.
         11    1    4    4    0    0  0.15213200949E-01  0.45049548987E-02  0.14023618812E-01  0.21181574713E-01  0.51100000000E-03 0.  1.
</event>
<event>
 8    1  0.2929965E+004  0.1043930E+01  0.7957747E-01            NaN
         13   -1    0    0    0    0  0.00000000000E+00  0.00000000000E+00  0.74505805969E-08  0.10566000000E+00  0.10566000000E+00 0.  1.
     999900   -1    0    0    0    0 -0.00000000000E+00 -0.00000000000E+00 -0.74505805969E-08  0.93827000000E+00  0.93827000000E+00 0. -1.
     999902    2    1    2    0    0  0.20260381522E-02 -0.51391814909E-02 -0.13255869738E-01  0.10295691470E+01  0.10294689866E+01 0.  0.
     999903    2    3    3    0    0  0.30092837927E-02 -0.12256577229E+00  0.49039388753E-01  0.13958562453E+00  0.45253293810E-01 0.  0.
         14    1    1    2    0    0 -0.20260381522E-02  0.51391814909E-02  0.13255869738E-01  0.14360853021E-01  0.00000000000E+00 0.  1.
     999901    1    3    3    0    0 -0.98324564047E-03  0.11742659080E+00 -0.62295258491E-01  0.88998352245E+00  0.88000000000E+00 0.  1.
        -11    1    4    4    0    0  0.21384396315E-01 -0.80734141502E-01  0.21526111445E-01  0.86249223792E-01  0.51100000000E-03 0.  1.
         11    1    4    4    0    0 -0.18375112523E-01 -0.41831630788E-01  0.27513277308E-01  0.53336400739E-01  0.51100000000E-03 0. -1.
</event>
<event>
 8    1  0.2929965E+004  0.1043930E+01  0.7957747E-01            NaN
         13   -1    0    0    0    0  0.00000000000E+00  0.00000000000E+00  0.74505805969E-08  0.10566000000E+00  0.10566000000E+00 0. -1.
     999900   -1    0    0    0    0 -0.00000000000E+00 -0.00000000000E+00 -0.74505805969E-08  0.93827000000E+00  0.93827000000E+00 0.  1.
     999902    2    1    2    0    0  0.12055526958E-01  0.59280490036E-02  0.54099868730E-03  0.10304849201E+01  0.10303972051E+01 0.  0.
     999903    2    3    3    0    0  0.95908960266E-01  0.75212363586E-01 -0.56861599915E-01  0.14193172927E+00  0.45342539994E-01 0.  0.
         14    1    1    2    0    0 -0.12055526958E-01 -0.59280490036E-02 -0.54099868730E-03  0.13445079947E-01  0.00000000000E+00 0.  1.
     999901    1    3    3    0    0 -0.83853433308E-01 -0.69284314582E-01  0.57402598602E-01  0.88855319078E+00  0.88000000000E+00 0. -1.
        -11    1    4    4    0    0  0.47997011674E-01  0.34680472278E-01 -0.31072762933E-02  0.59298942436E-01  0.51100000000E-03 0.  1.
         11    1    4    4    0    0  0.47911948592E-01  0.40531891308E-01 -0.53754323622E-01  0.82632786834E-01  0.51100000000E-03 0. -1.
</event>
<event>
 8    1  0.2929965E+004  0.1043930E+01  0.7957747E-01            NaN
         13   -1    0    0    0    0  0.00000000000E+00  0.00000000000E+00  0.74505805969E-08  0.10566000000E+00  0.10566000000E+00 0. -1.
     999900   -1    0    0    0    0 -0.00000000000E+00 -0.00000000000E+00 -0.74505805969E-08  0.93827000000E+00  0.93827000000E+00 0.  1.
     999902    2    1    2    0    0  0.93991839558E-02  0.91242488926E-02  0.15210447856E-02  0.10307425001E+01  0.10306581350E+01 0.  0.
     999903    2    3    3    0    0  0.47631876170E-01 -0.94296215082E-01 -0.79174907253E-01  0.14019807794E+00  0.47183294866E-01 0.  0.
         14    1    1    2    0    0 -0.93991839558E-02 -0.91242488926E-02 -0.15210447856E-02  0.13187499920E-01  0.00000000000E+00 0. -1.
     999901    1    3    3    0    0 -0.38232692214E-01  0.10342046397E+00  0.80695952038E-01  0.89054442214E+00  0.88000000000E+00 0. -1.
        -11    1    4    4    0    0  0.26936234701E-01 -0.13712492305E-01 -0.34106545995E-01  0.45575330891E-01  0.51100000000E-03 0.  1.
         11    1    4    4    0    0  0.20695641469E-01 -0.80583722778E-01 -0.45068361257E-01  0.94622747053E-01  0.51100000000E-03 0. -1.
</event>
<event>
 8    1  0.2929965E+004  0.1043930E+01  0.7957747E-01            NaN
         13   -1    0    0    0    0  0.00000000000E+00  0.00000000000E+00  0.74505805969E-08  0.10566000000E+00  0.10566000000E+00 0.  1.
     999900   -1    0    0    0    0 -0.00000000000E+00 -0.00000000000E+00 -0.74505805969E-08  0.93827000000E+00  0.93827000000E+00 0. -1.
     999902    2    1    2    0    0 -0.21822807338E-02  0.10558664128E-01  0.90573599380E-02  0.10298486824E+01  0.10297524096E+01 0.  0.
     999903    2    3    3    0    0 -0.12943662222E+00  0.28123077215E-01 -0.97318328823E-02  0.14032341021E+00  0.45290222315E-01 0.  0.
         14    1    1    2    0    0  0.21822807338E-02 -0.10558664128E-01 -0.90573599380E-02  0.14081317637E-01  0.00000000000E+00 0. -1.
     999901    1    3    3    0    0  0.12725434149E+00 -0.17564413087E-01  0.18789192820E-01  0.88952527215E+00  0.88000000000E+00 0.  1.
        -11    1    4    4    0    0 -0.12052073027E+00  0.38285496812E-01 -0.87540885825E-02  0.12675930293E+00  0.51100000000E-03 0.  1.
         11    1    4    4    0    0 -0.89158919469E-02 -0.10162419598E-01 -0.97774429983E-03  0.13564107276E-01  0.51100000000E-03 0. -1.
</event>
<event>
 8    1  0.2929965E+004  0.1043930E+01  0.7957747E-01            NaN
         13   -1    0    0    0    0  0.00000000000E+00  0.00000000000E+00  0.74505805969E-08  0.10566000000E+00  0.10566000000E+00 0. -1.
     999900   -1    0    0    0    0 -0.00000000000E+00 -0.00000000000E+00 -0.74505805969E-08  0.93827000000E+00  0.93827000000E+00 0. -1.
     999902    2    1    2    0    0 -0.84309546384E-02  0.16534668861E-01 -0.67545631907E-02  0.10241790407E+01  0.10239885776E+01 0.  0.
     999903    2    3    3    0    0 -0.50435859684E-01 -0.10735241028E+00 -0.41926892025E-01  0.13381422042E+00  0.45607733735E-01 0.  0.
         14    1    1    2    0    0  0.84309546384E-02 -0.16534668861E-01  0.67545631907E-02  0.19750959328E-01  0.00000000000E+00 0.  1.
     999901    1    3    3    0    0  0.42004905046E-01  0.12388707914E+00  0.35172328834E-01  0.89036482025E+00  0.88000000000E+00 0.  1.
        -11    1    4    4    0    0  0.87227688668E-02 -0.13180988755E-01 -0.64652632019E-02  0.17084668874E-01  0.51100000000E-03 0.  1.
         11    1    4    4    0    0 -0.59158628551E-01 -0.94171421526E-01 -0.35461628823E-01  0.11672955155E+00  0.51100000000E-03 0. -1.
</event>
<event>
 8    1  0.2929965E+004  0.1043930E+01  0.7957747E-01            NaN
         13   -1    0    0    0    0  0.00000000000E+00  0.00000000000E+00  0.74505805969E-08  0.10566000000E+00  0.10566000000E+00 0. -1.
     999900   -1    0    0    0    0 -0.00000000000E+00 -0.00000000000E+00 -0.74505805969E-08  0.93827000000E+00  0.93827000000E+00 0.  1.
     999902    2    1    2    0    0 -0.11949928136E-01  0.12781711715E-02  0.96369770977E-02  0.10285252659E+01  0.10284098973E+01 0.  0.
     999903    2    3    3    0    0 -0.11839002954E-01  0.12673076790E+00 -0.36274460223E-01  0.13844312006E+00  0.40617871717E-01 0.  0.
         14    1    1    2    0    0  0.11949928136E-01 -0.12781711715E-02 -0.96369770977E-02  0.15404734064E-01  0.00000000000E+00 0.  1.
     999901    1    3    3    0    0 -0.11092518153E-03 -0.12545259673E+00  0.45911437321E-01  0.89008214588E+00  0.88000000000E+00 0. -1.
        -11    1    4    4    0    0  0.10480596826E-01  0.21909814364E-01 -0.16748290594E-01  0.29506765904E-01  0.51100000000E-03 0.  1.
         11    1    4    4    0    0 -0.22319599780E-01  0.10482095354E+00 -0.19526169629E-01  0.10893635416E+00  0.51100000000E-03 0. -1.
</event>
<event>
 8    1  0.2929965E+004  0.1043930E+01  0.7957747E-01            NaN
         13   -1    0    0    0    0  0.00000000000E+00  0.00000000000E+00  0.74505805969E-08  0.10566000000E+00  0.10566000000E+00 0. -1.
     999900   -1    0    0    0    0 -0.00000000000E+00 -0.00000000000E+00 -0.74505805969E-08  0.93827000000E+00  0.93827000000E+00 0.  1.
     999902    2    1    2    0    0  0.11363666121E-01  0.10263792245E-01 -0.53424998813E-02  0.10277120888E+01  0.10275841167E+01 0.  0.
     999903    2    3    3    0    0  0.37480568006E-01  0.12287255423E+00  0.30396133348E-01  0.13943281078E+00  0.44890157476E-01 0.  0.
         14    1    1    2    0    0 -0.11363666121E-01 -0.10263792245E-01  0.53424998813E-02  0.16217911207E-01  0.00000000000E+00 0. -1.
     999901    1    3    3    0    0 -0.26116901885E-01 -0.11260876199E+00 -0.35738633229E-01  0.88827927801E+00  0.88000000000E+00 0.  1.
        -11    1    4    4    0    0  0.32786591656E-01  0.82833571450E-01  0.24352585867E-03  0.89088055189E-01  0.51100000000E-03 0.  1.
         11    1    4    4    0    0  0.46939763501E-02  0.40038982782E-01  0.30152607489E-01  0.50344755592E-01  0.51100000000E-03 0. -1.
</event>
<event>
 8    1  0.2929965E+004  0.1043930E+01  0.7957747E-01            NaN
         13   -1    0    0    0    0  0.00000000000E+00  0.00000000000E+00  0.74505805969E-08  0.10566000000E+00  0.10566000000E+00 0. -1.
     999900   -1    0    0    0    0 -0.00000000000E+00 -0.00000000000E+00 -0.74505805969E-08  0.93827000000E+00  0.93827000000E+00 0. -1.
     999902    2    1    2    0    0 -0.67199348316E-02 -0.11752118769E-01  0.57777252921E-02  0.10292108992E+01  0.10291056423E+01 0.  0.
     999903    2    3    3    0    0 -0.11368134948E+00  0.47729372730E-01  0.47724994644E-01  0.13975130736E+00  0.45290292062E-01 0.  0.
         14    1    1    2    0    0  0.67199348316E-02  0.11752118769E-01 -0.57777252921E-02  0.14719100830E-01  0.00000000000E+00 0.  1.
     999901    1    3    3    0    0  0.10696141465E+00 -0.59481491498E-01 -0.41947269352E-01  0.88945959181E+00  0.88000000000E+00 0. -1.
        -11    1    4    4    0    0 -0.82807128318E-01  0.50810998448E-01  0.22415568703E-01  0.99707055441E-01  0.51100000000E-03 0. -1.
         11    1    4    4    0    0 -0.30874221161E-01 -0.30816257185E-02  0.25309425941E-01  0.40044251920E-01  0.51100000000E-03 0.  1.
</event>
<event>
 8    1  0.2929965E+004  0.1043930E+01  0.7957747E-01            NaN
         13   -1    0    0    0    0  0.00000000000E+00  0.00000000000E+00  0.74505805969E-08  0.10566000000E+00  0.10566000000E+00 0. -1.
     999900   -1    0    0    0    0 -0.00000000000E+00 -0.00000000000E+00 -0.74505805969E-08  0.93827000000E+00  0.93827000000E+00 0.  1.
     999902    2    1    2    0    0 -0.12817826290E-01 -0.51731456483E-02 -0.27194424494E-02  0.10298426484E+01  0.10297462926E+01 0.  0.
     999903    2    3    3    0    0 -0.94906555474E-01  0.79472451586E-01  0.51349297306E-01  0.14033330886E+00  0.41636070993E-01 0.  0.
         14    1    1    2    0    0  0.12817826290E-01  0.51731456483E-02  0.27194424494E-02  0.14087351559E-01  0.00000000000E+00 0.  1.
     999901    1    3    3    0    0  0.82088729183E-01 -0.84645597235E-01 -0.54068739755E-01  0.88950933958E+00  0.88000000000E+00 0. -1.
        -11    1    4    4    0    0 -0.47693268764E-01  0.54489134119E-01  0.47858547256E-01  0.86801009723E-01  0.51100000000E-03 0. -1.
         11    1    4    4    0    0 -0.47213286710E-01  0.24983317467E-01  0.34907500493E-02  0.53532299133E-01  0.51100000000E-03 0.  1.
</event>
<event>
 8    1  0.2929965E+004  0.1043930E+01  0.7957747E-01            NaN
         13   -1    0    0    0    0  0.00000000000E+00  0.00000000000E+00  0.74505805969E-08  0.10566000000E+00  0.10566000000E+00 0.  1.
     999900   -1    0    0    0    0 -0.00000000000E+00 -0.00000000000E+00 -0.74505805969E-08  0.93827000000E+00  0.93827000000E+00 0.  1.
     999902    2    1    2    0    0 -0.14274758625E-02 -0.12389270839E-01  0.94921718550E-02  0.10282573153E+01  0.10281378669E+01 0.  0.
     999903    2    3    3    0    0 -0.52158540969E-01 -0.42829761663E-01  0.11341969247E+00  0.14016880958E+00  0.47205578672E-01 0.  0.
         14    1    1    2    0    0  0.14274758625E-02  0.12389270839E-01 -0.94921718550E-02  0.15672684702E-01  0.00000000000E+00 0. -1.
     999901    1    3    3    0    0  0.50731065106E-01  0.30440490824E-01 -0.10392752062E+00  0.88808850572E+00  0.88000000000E+00 0.  1.
        -11    1    4    4    0    0 -0.47852999699E-01 -0.29536829345E-01  0.50077415409E-01  0.75301676761E-01  0.51100000000E-03 0.  1.
         11    1    4    4    0    0 -0.43055412697E-02 -0.13292932318E-01  0.63342277065E-01  0.64867132818E-01  0.51100000000E-03 0. -1.
</event>
<event>
 8    1  0.2929965E+004  0.1043930E+01  0.7957747E-01            NaN
         13   -1    0    0    0    0  0.00000000000E+00  0.00000000000E+00  0.74505805969E-08  0.10566000000E+00  0.10566000000E+00 0. -1.
     999900   -1    0    0    0    0 -0.00000000000E+00 -0.00000000000E+00 -0.74505805969E-08  0.93827000000E+00  0.93827000000E+00 0.  1.
     999902    2    1    2    0    0  0.10653331518E-01 -0.66207194236E-02  0.99206036590E-02  0.10279379465E+01  0.10278135415E+01 0.  0.
     999903    2    3    3    0    0 -0.59341005187E-01 -0.61089958915E-01  0.99790287235E-01  0.13892576141E+00  0.45704789456E-01 0.  0.
         14    1    1    2    0    0 -0.10653331518E-01  0.66207194236E-02 -0.99206036590E-02  0.15992053498E-01  0.00000000000E+00 0.  1.
     999901    1    3    3    0    0  0.69994336705E-01  0.54469239492E-01 -0.89869683576E-01  0.88901218510E+00  0.88000000000E+00 0.  1.
        -11    1    4    4    0    0  0.29765913388E-02 -0.59954103862E-02  0.28792396012E-01  0.29564644946E-01  0.51100000000E-03 0. -1.
         11    1    4    4    0    0 -0.62317596526E-01 -0.55094548529E-01  0.70997891223E-01  0.10936111646E+00  0.51100000000E-03 0.  1.
</event>
<event>
 8    1  0.2929965E+004  0.1043930E+01  0.7957747E-01            NaN
         13   -1    0    0    0    0  0.00000000000E+00  0.00000000000E+00  0.74505805969E-08  0.10566000000E+00  0.10566000000E+00 0. -1.
     999900   -1    0    0    0    0 -0.00000000000E+00 -0.00000000000E+00 -0.74505805969E-08  0.93827000000E+00  0.93827000000E+00 0. -1.
     999902    2    1    2    0    0 -0.44927944067E-04  0.15088009402E-02 -0.13749724083E-01  0.10300976679E+01  0.10300047922E+01 0.  0.
     999903    2    3    3    0    0 -0.56392002199E-01 -0.11165528791E+00  0.42212455262E-01  0.13930427475E+00  0.44461537911E-01 0.  0.
         14    1    1    2    0    0  0.44927944067E-04 -0.15088009402E-02  0.13749724083E-01  0.13832332094E-01  0.00000000000E+00 0. -1.
     999901    1    3    3    0    0  0.56347074255E-01  0.11316408885E+00 -0.55962179345E-01  0.89079339316E+00  0.88000000000E+00 0. -1.
        -11    1    4    4    0    0 -0.55455827751E-01 -0.10203827587E+00  0.23865472050E-01  0.11856213751E+00  0.51100000000E-03 0.  1.
         11    1    4    4    0    0 -0.93617444776E-03 -0.96170120409E-02  0.18346983212E-01  0.20742137237E-01  0.51100000000E-03 0. -1.
</event>
<event>
 8    1  0.2929965E+004  0.1043930E+01  0.7957747E-01            NaN
         13   -1    0    0    0    0  0.00000000000E+00  0.00000000000E+00  0.74505805969E-08  0.10566000000E+00  0.10566000000E+00 0.  1.
     999900   -1    0    0    0    0 -0.00000000000E+00 -0.00000000000E+00 -0.74505805969E-08  0.93827000000E+00  0.93827000000E+00 0.  1.
     999902    2    1    2    0    0 -0.83173458073E-02  0.65305109494E-02 -0.34762118979E-02  0.10327985192E+01  0.10327385301E+01 0.  0.
     999903    2    3    3    0    0  0.69078038763E-01  0.39778044815E-01 -0.10977657666E+00  0.14240803659E+00  0.43302237971E-01 0.  0.
         14    1    1    2    0    0  0.83173458073E-02 -0.65305109494E-02  0.34762118979E-02  0.11131480750E-01  0.00000000000E+00 0.  1.
     999901    1    3    3    0    0 -0.77395384570E-01 -0.33247533866E-01  0.10630036476E+00  0.89039048266E+00  0.88000000000E+00 0. -1.
        -11    1    4    4    0    0  0.63872934750E-01  0.31281719504E-01 -0.64399723426E-01  0.95947294215E-01  0.51100000000E-03 0. -1.
         11    1    4    4    0    0  0.52051040132E-02  0.84963253111E-02 -0.45376853235E-01  0.46460742376E-01  0.51100000000E-03 0.  1.
</event>
<event>
 8    1  0.2929965E+004  0.1043930E+01  0.7957747E-01            NaN
         13   -1    0    0    0    0  0.00000000000E+00  0.00000000000E+00  0.74505805969E-08  0.10566000000E+00  0.10566000000E+00 0.  1.
     999900   -1    0    0    0    0 -0.00000000000E+00 -0.00000000000E+00 -0.74505805969E-08  0.93827000000E+00  0.93827000000E+00 0. -1.
     999902    2    1    2    0    0  0.31994551540E-02  0.12532679612E-01 -0.49652311938E-02  0.10300751058E+01  0.10299819249E+01 0.  0.
     999903    2    3    3    0    0  0.72781848395E-01  0.81120078881E-01 -0.78316566173E-01  0.14163469752E+00  0.45268513896E-01 0.  0.
         14    1    1    2    0    0 -0.31994551540E-02 -0.12532679612E-01  0.49652311938E-02  0.13854894166E-01  0.00000000000E+00 0. -1.
     999901    1    3    3    0    0 -0.69582393241E-01 -0.68587399269E-01  0.73351334979E-01  0.88844040832E+00  0.88000000000E+00 0.  1.
        -11    1    4    4    0    0  0.23561412075E-02  0.90265936209E-02  0.52451128972E-02  0.10714621976E-01  0.51100000000E-03 0. -1.
         11    1    4    4    0    0  0.70425707187E-01  0.72093485260E-01 -0.83561679070E-01  0.13092007554E+00  0.51100000000E-03 0.  1.
</event>
<event>
 8    1  0.2929965E+004  0.1043930E+01  0.7957747E-01            NaN
         13   -1    0    0    0    0  0.00000000000E+00  0.00000000000E+00  0.74505805969E-08  0.10566000000E+00  0.10566000000E+00 0.  1.
     999900   -1    0    0    0    0 -0.00000000000E+00 -0.00000000000E+00 -0.74505805969E-08  0.93827000000E+00  0.93827000000E+00 0.  1.
     999902    2    1    2    0    0  0.10301350531E-01 -0.66863649284E-02 -0.54084342603E-02  0.10305107429E+01  0.10304233668E+01 0.  0.
     999903    2    3    3    0    0 -0.11642189463E-01 -0.89597058818E-01 -0.98920201756E-01  0.14140998782E+00  0.45259306392E-01 0.  0.
         14    1    1    2    0    0 -0.10301350531E-01  0.66863649284E-02  0.54084342603E-02  0.13419257054E-01  0.00000000000E+00 0.  1.
     999901    1    3    3    0    0  0.21943539995E-01  0.82910693890E-01  0.93511767495E-01  0.88910075513E+00  0.88000000000E+00 0. -1.
        -11    1    4    4    0    0 -0.82638833020E-02 -0.80579455564E-01 -0.58665108313E-01  0.10001598113E+00  0.51100000000E-03 0.  1.
         11    1    4    4    0    0 -0.33783061613E-02 -0.90176032541E-02 -0.40255093443E-01  0.41394006693E-01  0.51100000000E-03 0. -1.
</event>
<event>
 8    1  0.2929965E+004  0.1043930E+01  0.7957747E-01            NaN
         13   -1    0    0    0    0  0.00000000000E+00  0.00000000000E+00  0.74505805969E-08  0.10566000000E+00  0.10566000000E+00 0. -1.
     999900   -1    0    0    0    0 -0.00000000000E+00 -0.00000000000E+00 -0.74505805969E-08  0.93827000000E+00  0.93827000000E+00 0.  1.
     999902    2    1    2    0    0  0.38820078635E-02 -0.12920198088E-01 -0.40932497279E-02  0.10298319080E+01  0.10297354042E+01 0.  0.
     999903    2    3    3    0    0 -0.11914026821E+00  0.40963751617E-01 -0.37737944204E-01  0.13900648972E+00  0.45013545713E-01 0.  0.
         14    1    1    2    0    0 -0.38820078635E-02  0.12920198088E-01  0.40932497279E-02  0.14098091964E-01  0.00000000000E+00 0. -1.
     999901    1    3    3    0    0  0.12302227607E+00 -0.53883949705E-01  0.33644694476E-01  0.89082541831E+00  0.88000000000E+00 0. -1.
        -11    1    4    4    0    0 -0.83300595556E-01  0.49511576463E-01 -0.28696449530E-01  0.10106499275E+00  0.51100000000E-03 0. -1.
         11    1    4    4    0    0 -0.35839672650E-01 -0.85478248463E-02 -0.90414946746E-02  0.37941496969E-01  0.51100000000E-03 0.  1.
</event>
<event>
 8    1  0.2929965E+004  0.1043930E+01  0.7957747E-01            NaN
         13   -1    0    0    0    0  0.00000000000E+00  0.00000000000E+00  0.74505805969E-08  0.10566000000E+00  0.10566000000E+00 0. -1.
     999900   -1    0    0    0    0 -0.00000000000E+00 -0.00000000000E+00 -0.74505805969E-08  0.93827000000E+00  0.93827000000E+00 0. -1.
     999902    2    1    2    0    0  0.66339946190E-02 -0.82069998067E-02  0.10106284552E-01  0.10293183020E+01  0.10292145865E+01 0.  0.
     999903    2    3    3    0    0 -0.28611229515E-01 -0.12506986897E+00 -0.32996253060E-01  0.13984824364E+00  0.44807409590E-01 0.  0.
         14    1    1    2    0    0 -0.66339946190E-02  0.82069998067E-02 -0.10106284552E-01  0.14611697980E-01  0.00000000000E+00 0.  1.
     999901    1    3    3    0    0  0.35245224134E-01  0.11686286916E+00  0.43102537612E-01  0.88947005838E+00  0.88000000000E+00 0.  1.
        -11    1    4    4    0    0  0.11772198547E-01 -0.32373489342E-01 -0.41413516239E-02  0.34699270671E-01  0.51100000000E-03 0.  1.
         11    1    4    4    0    0 -0.40383428062E-01 -0.92696379625E-01 -0.28854901436E-01  0.10514897296E+00  0.51100000000E-03 0. -1.
</event>
<event>
 8    1  0.2929965E+004  0.1043930E+01  0.7957747E-01            NaN
         13   -1    0    0    0    0  0.00000000000E+00  0.00000000000E+00  0.74505805969E-08  0.10566000000E+00  0.10566000000E+00 0.  1.
     999900   -1    0    0    0    0 -0.00000000000E+00 -0.00000000000E+00 -0.74505805969E-08  0.93827000000E+00  0.93827000000E+00 0.  1.
     999902    2    1    2    0    0  0.45611242769E-02 -0.35129043293E-02  0.13452486350E-01  0.10292973741E+01  0.10291933592E+01 0.  0.
     999903    2    3    3    0    0  0.15874958470E-01  0.11748306098E+00 -0.55277408658E-01  0.13829129953E+00  0.44884381411E-01 0.  0.
         14    1    1    2    0    0 -0.45611242769E-02  0.35129043293E-02 -0.13452486350E-01  0.14632625892E-01  0.00000000000E+00 0. -1.
     999901    1    3    3    0    0 -0.11313834193E-01 -0.12099596531E+00  0.68729895008E-01  0.89100607458E+00  0.88000000000E+00 0.  1.
        -11    1    4    4    0    0 -0.99619427374E-02  0.18943942726E-01 -0.23014596981E-01  0.31433200033E-01  0.51100000000E-03 0.  1.
         11    1    4    4    0    0  0.25836901208E-01  0.98539118253E-01 -0.32262811677E-01  0.10685809950E+00  0.51100000000E-03 0. -1.
</event>
<event>
 8    1  0.2929965E+004  0.1043930E+01  0.7957747E-01            NaN
         13   -1    0    0    0    0  0.00000000000E+00  0.00000000000E+00  0.74505805969E-08  0.10566000000E+00  0.10566000000E+00 0.  1.
     999900   -1    0    0    0    0 -0.00000000000E+00 -0.00000000000E+00 -0.74505805969E-08  0.93827000000E+00  0.93827000000E+00 0. -1.
     999902    2    1    2    0    0  0.32223652057E-02 -0.12779628521E-01 -0.43007151559E-02  0.10300664257E+01  0.10299731271E+01 0.  0.
     999903    2    3    3    0    0 -0.12975694799E-01  0.62193547655E-01  0.11483914725E+00  0.13873166189E+00  0.44967079566E-01 0.  0.
         14    1    1    2    0    0 -0.32223652057E-02  0.12779628521E-01  0.43007151559E-02  0.13863574341E-01  0.00000000000E+00 0. -1.
     999901    1    3    3    0    0  0.16198060005E-01 -0.74973176176E-01 -0.11913986240E+00  0.89133476377E+00  0.88000000000E+00 0. -1.
        -11    1    4    4    0    0 -0.16020835009E-01  0.19387405804E-01  0.78708435122E-01  0.82630608968E-01  0.51100000000E-03 0.  1.
         11    1    4    4    0    0  0.30451402098E-02  0.42806141851E-01  0.36130712124E-01  0.56101052919E-01  0.51100000000E-03 0. -1.
</event>
<event>
 8    1  0.2929965E+004  0.1043930E+01  0.7957747E-01            NaN
         13   -1    0    0    0    0  0.00000000000E+00  0.00000000000E+00  0.74505805969E-08  0.10566000000E+00  0.10566000000E+00 0. -1.
     999900   -1    0    0    0    0 -0.00000000000E+00 -0.00000000000E+00 -0.74505805969E-08  0.93827000000E+00  0.93827000000E+00 0. -1.
     999902    2    1    2    0    0  0.85381749634E-02  0.10353854266E-01  0.38453236879E-02  0.10299697262E+01  0.10298751127E+01 0.  0.
     999903    2    3    3    0    0  0.56416721163E-01 -0.17618818927E-01 -0.11845984775E+00  0.13978245345E+00  0.44867912342E-01 0.  0.
         14    1    1    2    0    0 -0.85381749634E-02 -0.10353854266E-01 -0.38453236879E-02  0.13960273785E-01  0.00000000000E+00 0. -1.
     999901    1    3    3    0    0 -0.47878546199E-01  0.27972673194E-01  0.12230517143E+00  0.89018727276E+00  0.88000000000E+00 0.  1.
        -11    1    4    4    0    0  0.19713182402E-01 -0.96309785789E-02 -0.84179924769E-02  0.23505085134E-01  0.51100000000E-03 0. -1.
         11    1    4    4    0    0  0.36703538761E-01 -0.79878403485E-02 -0.11004185527E+00  0.11627736832E+00  0.51100000000E-03 0.  1.
</event>
<event>
 8    1  0.2929965E+004  0.1043930E+01  0.7957747E-01            NaN
         13   -1    0    0    0    0  0.00000000000E+00  0.00000000000E+00  0.74505805969E-08  0.10566000000E+00  0.10566000000E+00 0.  1.
     999900   -1    0    0    0    0 -0.00000000000E+00 -0.00000000000E+00 -0.74505805969E-08  0.93827000000E+00  0.93827000000E+00 0. -1.
     999902    2    1    2    0    0  0.10348340212E-01  0.50915336139E-02  0.68875529063E-02  0.10304968230E+01  0.10304092643E+01 0.  0.
     999903    2    3    3    0    0 -0.43351552588E-01  0.39448167037E-01  0.11983796636E+00  0.14099030100E+00  0.45624684129E-01 0.  0.
         14    1    1    2    0    0 -0.10348340212E-01 -0.50915336139E-02 -0.68875529063E-02  0.13433177015E-01  0.00000000000E+00 0. -1.
     999901    1    3    3    0    0  0.53699892800E-01 -0.34356633423E-01 -0.11295041345E+00  0.88950652198E+00  0.88000000000E+00 0. -1.
        -11    1    4    4    0    0 -0.13590175252E-01 -0.31707257409E-02  0.60550701717E-01  0.62140123628E-01  0.51100000000E-03 0.  1.
         11    1    4    4    0    0 -0.29761377335E-01  0.42618892778E-01  0.59287264642E-01  0.78850177376E-01  0.51100000000E-03 0. -1.
</event>
<event>
 8    1  0.2929965E+004  0.1043930E+01  0.7957747E-01            NaN
         13   -1    0    0    0    0  0.00000000000E+00  0.00000000000E+00  0.74505805969E-08  0.10566000000E+00  0.10566000000E+00 0. -1.
     999900   -1    0    0    0    0 -0.00000000000E+00 -0.00000000000E+00 -0.74505805969E-08  0.93827000000E+00  0.93827000000E+00 0. -1.
     999902    2    1    2    0    0 -0.39022099882E-02  0.73913443714E-02  0.10592478417E-01  0.10304370458E+01  0.10303487009E+01 0.  0.
     999903    2    3    3    0    0  0.15335634561E-01  0.33438924031E-01 -0.12640276134E+00  0.13924892491E+00  0.45379088647E-01 0.  0.
         14    1    1    2    0    0  0.39022099882E-02 -0.73913443714E-02 -0.10592478417E-01  0.13492954214E-01  0.00000000000E+00 0.  1.
     999901    1    3    3    0    0 -0.19237844549E-01 -0.26047579660E-01  0.13699523976E+00  0.89118812087E+00  0.88000000000E+00 0.  1.
        -11    1    4    4    0    0 -0.14504554582E-01  0.13588409251E-02 -0.33331217550E-01  0.36379386150E-01  0.51100000000E-03 0.  1.
         11    1    4    4    0    0  0.29840189144E-01  0.32080083106E-01 -0.93071543794E-01  0.10286953876E+00  0.51100000000E-03 0. -1.
</event>
<event>
 8    1  0.2929965E+004  0.1043930E+01  0.7957747E-01            NaN
         13   -1    0    0    0    0  0.00000000000E+00  0.00000000000E+00  0.74505805969E-08  0.10566000000E+00  0.10566000000E+00 0.  1.
     999900   -1    0    0    0    0 -0.00000000000E+00 -0.00000000000E+00 -0.74505805969E-08  0.93827000000E+00  0.93827000000E+00 0. -1.
     999902    2    1    2    0    0  0.29170257336E-02 -0.65055348774E-02  0.13320243190E-01  0.10288217274E+01  0.10287107887E+01 0.  0.
     999903    2    3    3    0    0 -0.55255227211E-01 -0.31834135791E-02  0.12126209366E+00  0.14031371357E+00  0.43819728446E-01 0.  0.
         14    1    1    2    0    0 -0.29170257336E-02  0.65055348774E-02 -0.13320243190E-01  0.15108272628E-01  0.00000000000E+00 0. -1.
     999901    1    3    3    0    0  0.58172252944E-01 -0.33221212983E-02 -0.10794185047E+00  0.88850801380E+00  0.88000000000E+00 0.  1.
        -11    1    4    4    0    0 -0.16267840872E-01 -0.18821103115E-01  0.24943169232E-01  0.35232078869E-01  0.51100000000E-03 0. -1.
         11    1    4    4    0    0 -0.38987386339E-01  0.15637689536E-01  0.96318924430E-01  0.10508163470E+00  0.51100000000E-03 0.  1.
</event>
<event>
 8    1  0.2929965E+004  0.1043930E+01  0.7957747E-01            NaN
         13   -1    0    0    0    0  0.00000000000E+00  0.00000000000E+00  0.74505805969E-08  0.10566000000E+00  0.10566000000E+00 0. -1.
     999900   -1    0    0    0    0 -0.00000000000E+00 -0.00000000000E+00 -0.74505805969E-08  0.93827000000E+00  0.93827000000E+00 0.  1.
     999902    2    1    2    0    0 -0.14022660355E-02  0.12002723278E-01 -0.70792243435E-02  0.10299247462E+01  0.10298295178E+01 0.  0.
     999903    2    3    3    0    0  0.81801508319E-01 -0.10128059501E+00 -0.16302505025E-01  0.13872272245E+00  0.45044160158E-01 0.  0.
         14    1    1    2    0    0  0.14022660355E-02 -0.12002723278E-01  0.70792243435E-02  0.14005253780E-01  0.00000000000E+00 0. -1.
     999901    1    3    3    0    0 -0.83203774354E-01  0.11328331829E+00  0.92232806817E-02  0.89120202377E+00  0.88000000000E+00 0. -1.
        -11    1    4    4    0    0  0.48776641129E-01 -0.79376083370E-01 -0.28204300024E-01  0.97342010416E-01  0.51100000000E-03 0. -1.
         11    1    4    4    0    0  0.33024867189E-01 -0.21904511641E-01  0.11901794999E-01  0.41380712032E-01  0.51100000000E-03 0.  1.
</event>
<event>
 8    1  0.2929965E+004  0.1043930E+01  0.7957747E-01            NaN
         13   -1    0    0    0    0  0.00000000000E+00  0.00000000000E+00  0.74505805969E-08  0.10566000000E+00  0.10566000000E+00 0. -1.
     999900   -1    0    0    0    0 -0.00000000000E+00 -0.00000000000E+00 -0.74505805969E-08  0.93827000000E+00  0.93827000000E+00 0.  1.
     999902    2    1    2    0    0  0.60514881976E-02  0.56483098328E-02  0.18651088502E-04  0.10356520618E+01  0.10356189786E+01 0.  0.
     999903    2    3    3    0    0  0.60863585507E-01 -0.12318898563E+00 -0.52994365569E-02  0.14456749970E+00  0.44629314575E-01 0.  0.
         14    1    1    2    0    0 -0.60514881976E-02 -0.56483098328E-02 -0.18651088502E-04  0.82779382238E-02  0.00000000000E+00 0.  1.
     999901    1    3    3    0    0 -0.54812097309E-01  0.12883729547E+00  0.53180876454E-02  0.89108456208E+00  0.88000000000E+00 0.  1.
        -11    1    4    4    0    0  0.58596705521E-01 -0.71890120106E-01 -0.83719994643E-02  0.93124189998E-01  0.51100000000E-03 0.  1.
         11    1    4    4    0    0  0.22668799864E-02 -0.51298865527E-01  0.30725629074E-02  0.51443309702E-01  0.51100000000E-03 0. -1.
</event>
<event>
 8    1  0.2929965E+004  0.1043930E+01  0.7957747E-01            NaN
         13   -1    0    0    0    0  0.00000000000E+00  0.00000000000E+00  0.74505805969E-08  0.10566000000E+00  0.10566000000E+00 0. -1.
     999900   -1    0    0    0    0 -0.00000000000E+00 -0.00000000000E+00 -0.74505805969E-08  0.93827000000E+00  0.93827000000E+00 0. -1.
     999902    2    1    2    0    0  0.90928614998E-02  0.10224107592E-01  0.13159572851E-02  0.10301843007E+01  0.10300925925E+01 0.  0.
     999903    2    3    3    0    0 -0.41818823121E-01  0.67278203982E-01 -0.10667386253E+00  0.14029162696E+00  0.45025070234E-01 0.  0.
         14    1    1    2    0    0 -0.90928614998E-02 -0.10224107592E-01 -0.13159572851E-02  0.13745699324E-01  0.00000000000E+00 0.  1.
     999901    1    3    3    0    0  0.50911684621E-01 -0.57054096389E-01  0.10798981982E+00  0.88989267371E+00  0.88000000000E+00 0.  1.
        -11    1    4    4    0    0 -0.45613563261E-01  0.36110250244E-01 -0.56486561707E-01  0.81089704035E-01  0.51100000000E-03 0.  1.
         11    1    4    4    0    0  0.37947401407E-02  0.31167953738E-01 -0.50187300827E-01  0.59201922927E-01  0.51100000000E-03 0. -1.
</event>
<event>
 8    1  0.2929965E+004  0.1043930E+01  0.7957747E-01            NaN
         13   -1    0    0    0    0  0.00000000000E+00  0.00000000000E+00  0.74505805969E-08  0.10566000000E+00  0.10566000000E+00 0. -1.
     999900   -1    0    0    0    0 -0.00000000000E+00 -0.00000000000E+00 -0.74505805969E-08  0.93827000000E+00  0.93827000000E+00 0.  1.
     999902    2    1    2    0    0 -0.10923033000E-01  0.60477309173E-02  0.59337178717E-02  0.10301062267E+01  0.10300134667E+01 0.  0.
     999903    2    3    3    0    0 -0.69986186097E-02  0.10588034482E+00  0.81776409929E-01  0.14121137033E+00  0.44650216209E-01 0.  0.
         14    1    1    2    0    0  0.10923033000E-01 -0.60477309173E-02 -0.59337178717E-02  0.13823773253E-01  0.00000000000E+00 0. -1.
     999901    1    3    3    0    0 -0.39244143906E-02 -0.99832613904E-01 -0.75842692058E-01  0.88889485642E+00  0.88000000000E+00 0.  1.
        -11    1    4    4    0    0  0.11395795248E-01  0.30256610687E-01  0.65985169060E-02  0.33001942154E-01  0.51100000000E-03 0.  1.
         11    1    4    4    0    0 -0.18394413858E-01  0.75623734134E-01  0.75177893023E-01  0.10820942817E+00  0.51100000000E-03 0. -1.
</event>
<event>
 8    1  0.2929965E+004  0.1043930E+01  0.7957747E-01            NaN
         13   -1    0    0    0    0  0.00000000000E+00  0.00000000000E+00  0.74505805969E-08  0.10566000000E+00  0.10566000000E+00 0. -1.
     999900   -1    0    0    0    0 -0.00000000000E+00 -0.00000000000E+00 -0.74505805969E-08  0.93827000000E+00  0.93827000000E+00 0.  1.
     999902    2    1    2    0    0 -0.47998360196E-02  0.10140752230E-02 -0.13345994770E-01  0.10297109160E+01  0.10296127370E+01 0.  0.
     999903    2    3    3    0    0  0.72089898630E-01  0.11040168553E+00  0.49158733332E-02  0.13942378452E+00  0.45048198946E-01 0.  0.
         14    1    1    2    0    0  0.47998360196E-02 -0.10140752230E-02  0.13345994770E-01  0.14219084034E-01  0.00000000000E+00 0. -1.
     999901    1    3    3    0    0 -0.76889734649E-01 -0.10938761031E+00 -0.18261868103E-01  0.89028713144E+00  0.88000000000E+00 0.  1.
        -11    1    4    4    0    0  0.52509996302E-01  0.96164394090E-01  0.19306527730E-01  0.11125598202E+00  0.51100000000E-03 0. -1.
         11    1    4    4    0    0  0.19579902328E-01  0.14237291440E-01 -0.14390654397E-01  0.28167802500E-01  0.51100000000E-03 0.  1.
</event>
<event>
 8    1  0.2929965E+004  0.1043930E+01  0.7957747E-01            NaN
         13   -1    0    0    0    0  0.00000000000E+00  0.00000000000E+00  0.74505805969E-08  0.10566000000E+00  0.10566000000E+00 0. -1.
     999900   -1    0    0    0    0 -0.00000000000E+00 -0.00000000000E+00 -0.74505805969E-08  0.93827000000E+00  0.93827000000E+00 0. -1.
     999902    2    1    2    0    0  0.10734901505E-01 -0.65823726032E-02  0.54395320516E-02  0.10302130671E+01  0.10301217449E+01 0.  0.
     999903    2    3    3    0    0  0.48562811416E-01  0.84789069378E-01  0.90628503066E-01  0.14058570018E+00  0.44758022620E-01 0.  0.
         14    1    1    2    0    0 -0.10734901505E-01  0.65823726032E-02 -0.54395320516E-02  0.13716932906E-01  0.00000000000E+00 0.  1.
     999901    1    3    3    0    0 -0.37827909911E-01 -0.91371441981E-01 -0.85188971014E-01  0.88962736691E+00  0.88000000000E+00 0. -1.
        -11    1    4    4    0    0 -0.15758944557E-03  0.40834753263E-01  0.25577628002E-01  0.48186907804E-01  0.51100000000E-03 0.  1.
         11    1    4    4    0    0  0.48720400862E-01  0.43954316115E-01  0.65050875063E-01  0.92398792377E-01  0.51100000000E-03 0. -1.
</event>
<event>
 8    1  0.2929965E+004  0.1043930E+01  0.7957747E-01            NaN
         13   -1    0    0    0    0  0.00000000000E+00  0.00000000000E+00  0.74505805969E-08  0.10566000000E+00  0.10566000000E+00 0. -1.
     999900   -1    0    0    0    0 -0.00000000000E+00 -0.00000000000E+00 -0.74505805969E-08  0.93827000000E+00  0.93827000000E+00 0.  1.
     999902    2    1    2    0    0  0.55589669801E-02 -0.56962737957E-02 -0.11836007832E-01  0.10296667349E+01  0.10295679406E+01 0.  0.
     999903    2    3    3    0    0  0.36949827345E-01  0.11924319199E-01  0.12505789240E+00  0.13835544737E+00  0.44668492647E-01 0.  0.
         14    1    1    2    0    0 -0.55589669801E-02  0.56962737957E-02  0.11836007832E-01  0.14263265069E-01  0.00000000000E+00 0. -1.
     999901    1    3    3    0    0 -0.31390860365E-01 -0.17620592995E-01 -0.13689390024E+00  0.89131128756E+00  0.88000000000E+00 0.  1.
        -11    1    4    4    0    0  0.23333284111E-01  0.20490148706E-01  0.34672204002E-01  0.46547945097E-01  0.51100000000E-03 0.  1.
         11    1    4    4    0    0  0.13616543233E-01 -0.85658295065E-02  0.90385688401E-01  0.91807502273E-01  0.51100000000E-03 0. -1.
</event>
<event>
 7    1  0.2929965E+004  0.1043930E+01  0.7957747E-01            NaN
         13   -1    0    0    0    0  0.00000000000E+00  0.00000000000E+00  0.74505805969E-08  0.10566000000E+00  0.10566000000E+00 0. -1.
     999900   -1    0    0    0    0 -0.00000000000E+00 -0.00000000000E+00 -0.74505805969E-08  0.93827000000E+00  0.93827000000E+00 0.  1.
     999902    2    1    2    0    0  0.66450738616E-02 -0.11916021066E-01  0.11029694593E-02  0.10302418626E+01  0.10301509260E+01 0.  0.
         14    1    1    2    0    0 -0.66450738616E-02  0.11916021066E-01 -0.11029694593E-02  0.13688137430E-01  0.00000000000E+00 0. -1.
     999901    1    3    3    0    0 -0.83993304728E-02  0.67633648414E-01  0.11411309077E+00  0.88998126758E+00  0.88000000000E+00 0. -1.
        -11    1    3    3    0    0  0.19207819331E-01 -0.65542025591E-01 -0.89688975211E-01  0.11273451485E+00  0.51100000000E-03 0.  1.
         11    1    3    3    0    0 -0.41634149962E-02 -0.14007643889E-01 -0.23321146104E-01  0.27526080148E-01  0.51100000000E-03 0. -1.
</event>
<event>
 8    1  0.2929965E+004  0.1043930E+01  0.7957747E-01            NaN
         13   -1    0    0    0    0  0.00000000000E+00  0.00000000000E+00  0.74505805969E-08  0.10566000000E+00  0.10566000000E+00 0.  1.
     999900   -1    0    0    0    0 -0.00000000000E+00 -0.00000000000E+00 -0.74505805969E-08  0.93827000000E+00  0.93827000000E+00 0.  1.
     999902    2    1    2    0    0 -0.13958602432E-01  0.15491198934E-01  0.71880486455E-02  0.10218735300E+01  0.10216354650E+01 0.  0.
     999903    2    3    3    0    0  0.10954330585E+00  0.20660761981E-01  0.55036644687E-01  0.13194716568E+00  0.44208815072E-01 0.  0.
         14    1    1    2    0    0  0.13958602432E-01 -0.15491198934E-01 -0.71880486455E-02  0.22056470017E-01  0.00000000000E+00 0. -1.
     999901    1    3    3    0    0 -0.12350190829E+00 -0.51695630469E-02 -0.47848596042E-01  0.88992636430E+00  0.88000000000E+00 0.  1.
        -11    1    4    4    0    0  0.21534689110E-01 -0.11347695557E-01  0.22646827427E-02  0.24452053870E-01  0.51100000000E-03 0. -1.
         11    1    4    4    0    0  0.88008616745E-01  0.32008457538E-01  0.52771961945E-01  0.10749511181E+00  0.51100000000E-03 0.  1.
</event>
<event>
 8    1  0.2929965E+004  0.1043930E+01  0.7957747E-01            NaN
         13   -1    0    0    0    0  0.00000000000E+00  0.00000000000E+00  0.74505805969E-08  0.10566000000E+00  0.10566000000E+00 0. -1.
     999900   -1    0    0    0    0 -0.00000000000E+00 -0.00000000000E+00 -0.74505805969E-08  0.93827000000E+00  0.93827000000E+00 0. -1.
     999902    2    1    2    0    0 -0.11378621869E-01 -0.27770755718E-02  0.82318877318E-02  0.10296139545E+01  0.10295144225E+01 0.  0.
     999903    2    3    3    0    0  0.35498035588E-01 -0.49915192856E-01  0.11809627240E+00  0.14029421098E+00  0.44543226998E-01 0.  0.
         14    1    1    2    0    0  0.11378621869E-01  0.27770755718E-02 -0.82318877318E-02  0.14316045543E-01  0.00000000000E+00 0.  1.
     999901    1    3    3    0    0 -0.46876657457E-01  0.47138117284E-01 -0.10986438467E+00  0.88931974347E+00  0.88000000000E+00 0. -1.
        -11    1    4    4    0    0  0.27155283724E-01 -0.55857954340E-01  0.82603878103E-01  0.10334980549E+00  0.51100000000E-03 0.  1.
         11    1    4    4    0    0  0.83427518640E-02  0.59427614841E-02  0.35492394299E-01  0.36944405487E-01  0.51100000000E-03 0. -1.
</event>
<event>
 8    1  0.2929965E+004  0.1043930E+01  0.7957747E-01            NaN
         13   -1    0    0    0    0  0.00000000000E+00  0.00000000000E+00  0.74505805969E-08  0.10566000000E+00  0.10566000000E+00 0. -1.
     999900   -1    0    0    0    0 -0.00000000000E+00 -0.00000000000E+00 -0.74505805969E-08  0.93827000000E+00  0.93827000000E+00 0. -1.
     999902    2    1    2    0    0 -0.12398253974E-01  0.69054855556E-02 -0.13212544944E-01  0.10245399568E+01  0.10243564561E+01 0.  0.
     999903    2    3    3    0    0 -0.37262759955E-01 -0.18046043482E-01 -0.12287281847E+00  0.13703435226E+00  0.44345362957E-01 0.  0.
         14    1    1    2    0    0  0.12398253974E-01 -0.69054855556E-02  0.13212544944E-01  0.19390043225E-01  0.00000000000E+00 0. -1.
     999901    1    3    3    0    0  0.24864505981E-01  0.24951529038E-01  0.10966027352E+00  0.88750560452E+00  0.88000000000E+00 0.  1.
        -11    1    4    4    0    0  0.90918707077E-02  0.55761933207E-03 -0.32720559305E-01  0.33968649878E-01  0.51100000000E-03 0.  1.
         11    1    4    4    0    0 -0.46354630663E-01 -0.18603662814E-01 -0.90152259163E-01  0.10306570238E+00  0.51100000000E-03 0. -1.
</event>
<event>
 8    1  0.2929965E+004  0.1043930E+01  0.7957747E-01            NaN
         13   -1    0    0    0    0  0.00000000000E+00  0.00000000000E+00  0.74505805969E-08  0.10566000000E+00  0.10566000000E+00 0.  1.
     999900   -1    0    0    0    0 -0.00000000000E+00 -0.00000000000E+00 -0.74505805969E-08  0.93827000000E+00  0.93827000000E+00 0. -1.
     999902    2    1    2    0    0  0.57915013424E-02 -0.10605465556E-01  0.35509367270E-02  0.10313352972E+01  0.10312583908E+01 0.  0.
     999903    2    3    3    0    0  0.87845802329E-01 -0.93482178195E-01 -0.49229727513E-01  0.14207309944E+00  0.36130276602E-01 0.  0.
         14    1    1    2    0    0 -0.57915013424E-02  0.10605465556E-01 -0.35509367270E-02  0.12594702819E-01  0.00000000000E+00 0. -1.
     999901    1    3    3    0    0 -0.82054300987E-01  0.82876712639E-01  0.52780664240E-01  0.88926219774E+00  0.88000000000E+00 0.  1.
        -11    1    4    4    0    0  0.44392204818E-01 -0.26662496542E-01 -0.82215072164E-02  0.52434824997E-01  0.51100000000E-03 0. -1.
         11    1    4    4    0    0  0.43453597511E-01 -0.66819681653E-01 -0.41008220296E-01  0.89638274446E-01  0.51100000000E-03 0.  1.
</event>
<event>
 7    1  0.2929965E+004  0.1043930E+01  0.7957747E-01            NaN
         13   -1    0    0    0    0  0.00000000000E+00  0.00000000000E+00  0.74505805969E-08  0.10566000000E+00  0.10566000000E+00 0. -1.
     999900   -1    0    0    0    0 -0.00000000000E+00 -0.00000000000E+00 -0.74505805969E-08  0.93827000000E+00  0.93827000000E+00 0. -1.
     999902    2    1    2    0    0  0.45638263345E-02  0.14052434176E-01  0.15837720647E-03  0.10291541921E+01  0.10290481167E+01 0.  0.
         14    1    1    2    0    0 -0.45638263345E-02 -0.14052434176E-01 -0.15837720647E-03  0.14775807945E-01  0.00000000000E+00 0.  1.
     999901    1    3    3    0    0  0.14208158881E-01  0.23828225837E-01 -0.13536220006E+00  0.89078200550E+00  0.88000000000E+00 0. -1.
        -11    1    3    3    0    0 -0.11663270864E-02 -0.22610893251E-02  0.11414581532E+00  0.11417530871E+00  0.51100000000E-03 0. -1.
         11    1    3    3    0    0 -0.84780054601E-02 -0.75147023358E-02  0.21374761952E-01  0.24196877841E-01  0.51100000000E-03 0.  1.
</event>
<event>
 8    1  0.2929965E+004  0.1043930E+01  0.7957747E-01            NaN
         13   -1    0    0    0    0  0.00000000000E+00  0.00000000000E+00  0.74505805969E-08  0.10566000000E+00  0.10566000000E+00 0. -1.
     999900   -1    0    0    0    0 -0.00000000000E+00 -0.00000000000E+00 -0.74505805969E-08  0.93827000000E+00  0.93827000000E+00 0.  1.
     999902    2    1    2    0    0 -0.80411398309E-02  0.44778517862E-02  0.14751326884E-01  0.10265428573E+01  0.10263955988E+01 0.  0.
     999903    2    3    3    0    0  0.10848608530E+00 -0.20324909995E-03  0.69354036470E-01  0.13717118989E+00  0.47293561369E-01 0.  0.
         14    1    1    2    0    0  0.80411398309E-02 -0.44778517862E-02 -0.14751326884E-01  0.17387142699E-01  0.00000000000E+00 0.  1.
     999901    1    3    3    0    0 -0.11652722513E+00  0.46811008862E-02 -0.54602709587E-01  0.88937166741E+00  0.88000000000E+00 0. -1.
        -11    1    4    4    0    0  0.66895250632E-02  0.12586110466E-01  0.16329089923E-01  0.21680872236E-01  0.51100000000E-03 0. -1.
         11    1    4    4    0    0  0.10179656024E+00 -0.12789359566E-01  0.53024946548E-01  0.11549031765E+00  0.51100000000E-03 0.  1.
</event>
<event>
 8    1  0.2929965E+004  0.1043930E+01  0.7957747E-01            NaN
         13   -1    0    0    0    0  0.00000000000E+00  0.00000000000E+00  0.74505805969E-08  0.10566000000E+00  0.10566000000E+00 0.  1.
     999900   -1    0    0    0    0 -0.00000000000E+00 -0.00000000000E+00 -0.74505805969E-08  0.93827000000E+00  0.93827000000E+00 0. -1.
     999902    2    1    2    0    0  0.62233406919E-02 -0.10017002003E-01  0.74930303410E-02  0.10299580351E+01  0.10298632620E+01 0.  0.
     999903    2    3    3    0    0 -0.12192483665E+00 -0.45304358516E-01 -0.22953543352E-01  0.13945584719E+00  0.44753965965E-01 0.  0.
         14    1    1    2    0    0 -0.62233406919E-02  0.10017002003E-01 -0.74930303410E-02  0.13971964865E-01  0.00000000000E+00 0.  1.
     999901    1    3    3    0    0  0.12814817734E+00  0.35287356513E-01  0.30446573693E-01  0.89050218795E+00  0.88000000000E+00 0.  1.
        -11    1    4    4    0    0 -0.72313056538E-01 -0.19688866667E-01 -0.34388777178E-01  0.82460164524E-01  0.51100000000E-03 0. -1.
         11    1    4    4    0    0 -0.49611780114E-01 -0.25615491849E-01  0.11435233827E-01  0.56995682665E-01  0.51100000000E-03 0.  1.
</event>
<event>
 8    1  0.2929965E+004  0.1043930E+01  0.7957747E-01            NaN
         13   -1    0    0    0    0  0.00000000000E+00  0.00000000000E+00  0.74505805969E-08  0.10566000000E+00  0.10566000000E+00 0. -1.
     999900   -1    0    0    0    0 -0.00000000000E+00 -0.00000000000E+00 -0.74505805969E-08  0.93827000000E+00  0.93827000000E+00 0. -1.
     999902    2    1    2    0    0 -0.49695535562E-02  0.63253583925E-02  0.81008217627E-02  0.10325137863E+01  0.10324506715E+01 0.  0.
     999903    2    3    3    0    0 -0.46916551630E-01 -0.39592618177E-01  0.12101746939E+00  0.14312175773E+00  0.45495839448E-01 0.  0.
         14    1    1    2    0    0  0.49695535562E-02 -0.63253583925E-02 -0.81008217627E-02  0.11416213671E-01  0.00000000000E+00 0.  1.
     999901    1    3    3    0    0  0.41946998074E-01  0.45917976569E-01 -0.11291664763E+00  0.88939202860E+00  0.88000000000E+00 0. -1.
        -11    1    4    4    0    0 -0.20926246238E-01 -0.44841701630E-01  0.85608632455E-01  0.98882683310E-01  0.51100000000E-03 0. -1.
         11    1    4    4    0    0 -0.25990305392E-01  0.52490834529E-02  0.35408836938E-01  0.44239074423E-01  0.51100000000E-03 0.  1.
</event>
<event>
 8    1  0.2929965E+004  0.1043930E+01  0.7957747E-01            NaN
         13   -1    0    0    0    0  0.00000000000E+00  0.00000000000E+00  0.74505805969E-08  0.10566000000E+00  0.10566000000E+00 0.  1.
     999900   -1    0    0    0    0 -0.00000000000E+00 -0.00000000000E+00 -0.74505805969E-08  0.93827000000E+00  0.93827000000E+00 0. -1.
     999902    2    1    2    0    0  0.35245264250E-02  0.10984277842E-01  0.64706718776E-02  0.10307032755E+01  0.10306184046E+01 0.  0.
     999903    2    3    3    0    0  0.84972645768E-01  0.35785086667E-01  0.98179037000E-01  0.14185047527E+00  0.44514167079E-01 0.  0.
         14    1    1    2    0    0 -0.35245264250E-02 -0.10984277842E-01 -0.64706718776E-02  0.13226724491E-01  0.00000000000E+00 0. -1.
     999901    1    3    3    0    0 -0.81448119343E-01 -0.24800808825E-01 -0.91708365122E-01  0.88885280024E+00  0.88000000000E+00 0. -1.
        -11    1    4    4    0    0  0.17521060721E-01 -0.59967380287E-02  0.44621538596E-02  0.19055717615E-01  0.51100000000E-03 0. -1.
         11    1    4    4    0    0  0.67451585047E-01  0.41781824696E-01  0.93716883140E-01  0.12279475765E+00  0.51100000000E-03 0.  1.
</event>
<event>
 8    1  0.2929965E+004  0.1043930E+01  0.7957747E-01            NaN
         13   -1    0    0    0    0  0.00000000000E+00  0.00000000000E+00  0.74505805969E-08  0.10566000000E+00  0.10566000000E+00 0.  1.
     999900   -1    0    0    0    0 -0.00000000000E+00 -0.00000000000E+00 -0.74505805969E-08  0.93827000000E+00  0.93827000000E+00 0. -1.
     999902    2    1    2    0    0  0.37068068060E-02  0.13519079713E-01  0.34323942166E-02  0.10294978393E+01  0.10293966747E+01 0.  0.
     999903    2    3    3    0    0 -0.93207936092E-03  0.17923892761E-01  0.13182693093E+00  0.14015759016E+00  0.44087137090E-01 0.  0.
         14    1    1    2    0    0 -0.37068068060E-02 -0.13519079713E-01 -0.34323942166E-02  0.14432160720E-01  0.00000000000E+00 0.  1.
     999901    1    3    3    0    0  0.46388861670E-02 -0.44048130479E-02 -0.12839453672E+00  0.88934024912E+00  0.88000000000E+00 0. -1.
        -11    1    4    4    0    0 -0.20986150111E-01  0.95397367939E-02  0.91300565945E-01  0.94167295477E-01  0.51100000000E-03 0.  1.
         11    1    4    4    0    0  0.20054070750E-01  0.83841559673E-02  0.40526364989E-01  0.45990294684E-01  0.51100000000E-03 0. -1.
</event>
<event>
 8    1  0.2929965E+004  0.1043930E+01  0.7957747E-01            NaN
         13   -1    0    0    0    0  0.00000000000E+00  0.00000000000E+00  0.74505805969E-08  0.10566000000E+00  0.10566000000E+00 0.  1.
     999900   -1    0    0    0    0 -0.00000000000E+00 -0.00000000000E+00 -0.74505805969E-08  0.93827000000E+00  0.93827000000E+00 0. -1.
     999902    2    1    2    0    0  0.16775575192E-02  0.51697841352E-02  0.16604664717E-01  0.10264584300E+01  0.10263097256E+01 0.  0.
     999903    2    3    3    0    0 -0.47259139755E-01  0.61671427176E-01 -0.10139617741E+00  0.13544135120E+00  0.45015370718E-01 0.  0.
         14    1    1    2    0    0 -0.16775575192E-02 -0.51697841352E-02 -0.16604664717E-01  0.17471569981E-01  0.00000000000E+00 0. -1.
     999901    1    3    3    0    0  0.48936697274E-01 -0.56501643040E-01  0.11800084213E+00  0.89101707882E+00  0.88000000000E+00 0.  1.
        -11    1    4    4    0    0 -0.89754202821E-02  0.12798958008E-01 -0.57025604821E-01  0.59131651605E-01  0.51100000000E-03 0. -1.
         11    1    4    4    0    0 -0.38283719473E-01  0.48872469167E-01 -0.44370572589E-01  0.76309699594E-01  0.51100000000E-03 0.  1.
</event>
<event>
 8    1  0.2929965E+004  0.1043930E+01  0.7957747E-01            NaN
         13   -1    0    0    0    0  0.00000000000E+00  0.00000000000E+00  0.74505805969E-08  0.10566000000E+00  0.10566000000E+00 0. -1.
     999900   -1    0    0    0    0 -0.00000000000E+00 -0.00000000000E+00 -0.74505805969E-08  0.93827000000E+00  0.93827000000E+00 0.  1.
     999902    2    1    2    0    0 -0.49653514620E-02 -0.15873663303E-01  0.12402558318E-02  0.10272516866E+01  0.10271162844E+01 0.  0.
     999903    2    3    3    0    0 -0.44458976888E-01 -0.97867568014E-01  0.76284168766E-01  0.13938101153E+00  0.45311482833E-01 0.  0.
         14    1    1    2    0    0  0.49653514620E-02  0.15873663303E-01 -0.12402558318E-02  0.16678313354E-01  0.00000000000E+00 0.  1.
     999901    1    3    3    0    0  0.39493625426E-01  0.81993904711E-01 -0.75043912934E-01  0.88787067511E+00  0.88000000000E+00 0.  1.
        -11    1    4    4    0    0 -0.14326540891E-01 -0.79943698827E-01  0.48095533928E-01  0.94391134440E-01  0.51100000000E-03 0. -1.
         11    1    4    4    0    0 -0.30132435997E-01 -0.17923869187E-01  0.28188634838E-01  0.44989877093E-01  0.51100000000E-03 0.  1.
</event>
<event>
 8    1  0.2929965E+004  0.1043930E+01  0.7957747E-01            NaN
         13   -1    0    0    0    0  0.00000000000E+00  0.00000000000E+00  0.74505805969E-08  0.10566000000E+00  0.10566000000E+00 0. -1.
     999900   -1    0    0    0    0 -0.00000000000E+00 -0.00000000000E+00 -0.74505805969E-08  0.93827000000E+00  0.93827000000E+00 0. -1.
     999902    2    1    2    0    0  0.75840742178E-03  0.49425316308E-02 -0.12546970103E-01  0.10304233254E+01  0.10303347996E+01 0.  0.
     999903    2    3    3    0    0  0.22715527446E-01 -0.47361229223E-01 -0.12354458114E+00  0.14163861118E+00  0.45156964335E-01 0.  0.
         14    1    1    2    0    0 -0.75840742178E-03 -0.49425316308E-02  0.12546970103E-01  0.13506674628E-01  0.00000000000E+00 0.  1.
     999901    1    3    3    0    0 -0.21957120024E-01  0.52303760854E-01  0.11099761104E+00  0.88878471419E+00  0.88000000000E+00 0.  1.
        -11    1    4    4    0    0  0.11541718930E-01 -0.61323853731E-02 -0.78408746620E-01  0.79492201465E-01  0.51100000000E-03 0.  1.
         11    1    4    4    0    0  0.11173808516E-01 -0.41228843850E-01 -0.45135834521E-01  0.62146409718E-01  0.51100000000E-03 0. -1.
</event>
<event>
 8    1  0.2929965E+004  0.1043930E+01  0.7957747E-01            NaN
         13   -1    0    0    0    0  0.00000000000E+00  0.00000000000E+00  0.74505805969E-08  0.10566000000E+00  0.10566000000E+00 0. -1.
     999900   -1    0    0    0    0 -0.00000000000E+00 -0.00000000000E+00 -0.74505805969E-08  0.93827000000E+00  0.93827000000E+00 0.  1.
     999902    2    1    2    0    0 -0.18665078707E-02  0.13978635116E-01 -0.50877127569E-03  0.10298181277E+01  0.10297214338E+01 0.  0.
     999903    2    3    3    0    0 -0.24937271010E-01  0.12817086639E+00 -0.31133313300E-01  0.14161207708E+00  0.45111624904E-01 0.  0.
         14    1    1    2    0    0  0.18665078707E-02 -0.13978635116E-01  0.50877127569E-03  0.14111872291E-01  0.00000000000E+00 0. -1.
     999901    1    3    3    0    0  0.23070763140E-01 -0.11419223128E+00  0.30624542024E-01  0.88820605063E+00  0.88000000000E+00 0. -1.
        -11    1    4    4    0    0 -0.17688497026E-01  0.80050024716E-01  0.32140837178E-02  0.82045602193E-01  0.51100000000E-03 0.  1.
         11    1    4    4    0    0 -0.72487739846E-02  0.48120841676E-01 -0.34347397018E-01  0.59566474890E-01  0.51100000000E-03 0. -1.
</event>
<event>
 8    1  0.2929965E+004  0.1043930E+01  0.7957747E-01            NaN
         13   -1    0    0    0    0  0.00000000000E+00  0.00000000000E+00  0.74505805969E-08  0.10566000000E+00  0.10566000000E+00 0. -1.
     999900   -1    0    0    0    0 -0.00000000000E+00 -0.00000000000E+00 -0.74505805969E-08  0.93827000000E+00  0.93827000000E+00 0.  1.
     999902    2    1    2    0    0 -0.11714251046E-01  0.47742297553E-04  0.63448474167E-02  0.10306077237E+01  0.10305216141E+01 0.  0.
     999903    2    3    3    0    0 -0.67775283800E-01 -0.10624895231E+00 -0.45300402593E-01  0.14093977524E+00  0.43926811962E-01 0.  0.
         14    1    1    2    0    0  0.11714251046E-01 -0.47742297553E-04 -0.63448474167E-02  0.13322276294E-01  0.00000000000E+00 0.  1.
     999901    1    3    3    0    0  0.56061032754E-01  0.10629669461E+00  0.51645250010E-01  0.88966794847E+00  0.88000000000E+00 0.  1.
        -11    1    4    4    0    0 -0.18098036310E-01 -0.12394633250E-01 -0.24210673610E-01  0.32673899206E-01  0.51100000000E-03 0.  1.
         11    1    4    4    0    0 -0.49677247490E-01 -0.93854319058E-01 -0.21089728983E-01  0.10826587603E+00  0.51100000000E-03 0. -1.
</event>
<event>
 8    1  0.2929965E+004  0.1043930E+01  0.7957747E-01            NaN
         13   -1    0    0    0    0  0.00000000000E+00  0.00000000000E+00  0.74505805969E-08  0.10566000000E+00  0.10566000000E+00 0. -1.
     999900   -1    0    0    0    0 -0.00000000000E+00 -0.00000000000E+00 -0.74505805969E-08  0.93827000000E+00  0.93827000000E+00 0. -1.
     999902    2    1    2    0    0 -0.64139302504E-02  0.74995099139E-02  0.94439468055E-02  0.10302709634E+01  0.10301804156E+01 0.  0.
     999903    2    3    3    0    0 -0.12647177452E+00 -0.18387760533E-01  0.42520332463E-01  0.14112638344E+00  0.42136183303E-01 0.  0.
         14    1    1    2    0    0  0.64139302504E-02 -0.74995099139E-02 -0.94439468055E-02  0.13659036623E-01  0.00000000000E+00 0.  1.
     999901    1    3    3    0    0  0.12005784427E+00  0.25887270447E-01 -0.33076385658E-01  0.88914457994E+00  0.88000000000E+00 0.  1.
        -11    1    4    4    0    0 -0.49635911115E-01 -0.25393135025E-01  0.28815327761E-01  0.62762402867E-01  0.51100000000E-03 0.  1.
         11    1    4    4    0    0 -0.76835863403E-01  0.70053744919E-02  0.13705004702E-01  0.78363980574E-01  0.51100000000E-03 0. -1.
</event>
<event>
 8    1  0.2929965E+004  0.1043930E+01  0.7957747E-01            NaN
         13   -1    0    0    0    0  0.00000000000E+00  0.00000000000E+00  0.74505805969E-08  0.10566000000E+00  0.10566000000E+00 0. -1.
     999900   -1    0    0    0    0 -0.00000000000E+00 -0.00000000000E+00 -0.74505805969E-08  0.93827000000E+00  0.93827000000E+00 0.  1.
     999902    2    1    2    0    0 -0.52212435723E-02 -0.70724238102E-02 -0.12052412732E-01  0.10290121846E+01  0.10289040455E+01 0.  0.
     999903    2    3    3    0    0  0.81504833546E-01  0.22305213860E-01  0.95075916350E-01  0.13779900197E+00  0.52995986794E-01 0.  0.
         14    1    1    2    0    0  0.52212435723E-02  0.70724238102E-02  0.12052412732E-01  0.14917815378E-01  0.00000000000E+00 0. -1.
     999901    1    3    3    0    0 -0.86726077119E-01 -0.29377637670E-01 -0.10712832908E+00  0.89121318266E+00  0.88000000000E+00 0. -1.
        -11    1    4    4    0    0  0.36583929525E-01 -0.48219944474E-02  0.10681440549E-01  0.38418612978E-01  0.51100000000E-03 0. -1.
         11    1    4    4    0    0  0.44920904021E-01  0.27127208307E-01  0.84394475801E-01  0.99380388988E-01  0.51100000000E-03 0.  1.
</event>
<event>
 8    1  0.2929965E+004  0.1043930E+01  0.7957747E-01            NaN
         13   -1    0    0    0    0  0.00000000000E+00  0.00000000000E+00  0.74505805969E-08  0.10566000000E+00  0.10566000000E+00 0.  1.
     999900   -1    0    0    0    0 -0.00000000000E+00 -0.00000000000E+00 -0.74505805969E-08  0.93827000000E+00  0.93827000000E+00 0. -1.
     999902    2    1    2    0    0  0.15962791688E-02 -0.13051551373E-01 -0.44674061467E-02  0.10300429982E+01  0.10299493820E+01 0.  0.
     999903    2    3    3    0    0 -0.44649579641E-01  0.11962205911E+00  0.28333963769E-01  0.13829365215E+00  0.44936607937E-01 0.  0.
         14    1    1    2    0    0 -0.15962791688E-02  0.13051551373E-01  0.44674061467E-02  0.13887001768E-01  0.00000000000E+00 0.  1.
     999901    1    3    3    0    0  0.46245858810E-01 -0.13267361048E+00 -0.32801369916E-01  0.89174934609E+00  0.88000000000E+00 0. -1.
        -11    1    4    4    0    0 -0.37776903845E-01  0.11458180069E+00  0.13798657718E-01  0.12143618732E+00  0.51100000000E-03 0. -1.
         11    1    4    4    0    0 -0.68726757963E-02  0.50402584204E-02  0.14535306051E-01  0.16857464832E-01  0.51100000000E-03 0.  1.
</event>
<event>
 8    1  0.2929965E+004  0.1043930E+01  0.7957747E-01            NaN
         13   -1    0    0    0    0  0.00000000000E+00  0.00000000000E+00  0.74505805969E-08  0.10566000000E+00  0.10566000000E+00 0.  1.
     999900   -1    0    0    0    0 -0.00000000000E+00 -0.00000000000E+00 -0.74505805969E-08  0.93827000000E+00  0.93827000000E+00 0. -1.
     999902    2    1    2    0    0 -0.42718966461E-02  0.99925922769E-03 -0.13031406869E-01  0.10301799024E+01  0.10300881351E+01 0.  0.
     999903    2    3    3    0    0  0.62407526053E-01 -0.95437170833E-01 -0.68493465325E-01  0.14067320178E+00  0.45767259290E-01 0.  0.
         14    1    1    2    0    0  0.42718966461E-02 -0.99925922769E-03  0.13031406869E-01  0.13750097634E-01  0.00000000000E+00 0.  1.
     999901    1    3    3    0    0 -0.66679422699E-01  0.96436430060E-01  0.55462058456E-01  0.88950670058E+00  0.88000000000E+00 0. -1.
        -11    1    4    4    0    0  0.40383692095E-01 -0.70750140242E-01 -0.23431835027E-01  0.84768726221E-01  0.51100000000E-03 0. -1.
         11    1    4    4    0    0  0.22023833957E-01 -0.24687030591E-01 -0.45061630299E-01  0.55904475561E-01  0.51100000000E-03 0.  1.
</event>
<event>
 8    1  0.2929965E+004  0.1043930E+01  0.7957747E-01            NaN
         13   -1    0    0    0    0  0.00000000000E+00  0.00000000000E+00  0.74505805969E-08  0.10566000000E+00  0.10566000000E+00 0.  1.
     999900   -1    0    0    0    0 -0.00000000000E+00 -0.00000000000E+00 -0.74505805969E-08  0.93827000000E+00  0.93827000000E+00 0.  1.
     999902    2    1    2    0    0 -0.12994915347E-01  0.16537644508E-03  0.78051073075E-02  0.10287703538E+01  0.10286586537E+01 0.  0.
     999903    2    3    3    0    0  0.12308895575E+00 -0.71024002421E-02  0.40866397959E-01  0.13766727919E+00  0.45616687301E-01 0.  0.
         14    1    1    2    0    0  0.12994915347E-01 -0.16537644508E-03 -0.78051073075E-02  0.15159646247E-01  0.00000000000E+00 0.  1.
     999901    1    3    3    0    0 -0.13608387110E+00  0.72677766872E-02 -0.33061290652E-01  0.89110307456E+00  0.88000000000E+00 0. -1.
        -11    1    4    4    0    0  0.72023123607E-01  0.15478092715E-01  0.11446679697E-01  0.74553264752E-01  0.51100000000E-03 0.  1.
         11    1    4    4    0    0  0.51065832147E-01 -0.22580492957E-01  0.29419718263E-01  0.63114014440E-01  0.51100000000E-03 0. -1.
</event>
<event>
 8    1  0.2929965E+004  0.1043930E+01  0.7957747E-01            NaN
         13   -1    0    0    0    0  0.00000000000E+00  0.00000000000E+00  0.74505805969E-08  0.10566000000E+00  0.10566000000E+00 0. -1.
     999900   -1    0    0    0    0 -0.00000000000E+00 -0.00000000000E+00 -0.74505805969E-08  0.93827000000E+00  0.93827000000E+00 0.  1.
     999902    2    1    2    0    0  0.51170550873E-02 -0.56688224733E-03 -0.12416250189E-01  0.10304886877E+01  0.10304010222E+01 0.  0.
     999903    2    3    3    0    0 -0.12781056389E+00  0.25036701524E-01 -0.24056469887E-01  0.14006138008E+00  0.45564237970E-01 0.  0.
         14    1    1    2    0    0 -0.51170550873E-02  0.56688224733E-03  0.12416250189E-01  0.13441312324E-01  0.00000000000E+00 0. -1.
     999901    1    3    3    0    0  0.13292761898E+00 -0.25603583771E-01  0.11640219698E-01  0.89042730759E+00  0.88000000000E+00 0.  1.
        -11    1    4    4    0    0 -0.85115704241E-01  0.66574595495E-02  0.45164105450E-02  0.85496572805E-01  0.51100000000E-03 0. -1.
         11    1    4    4    0    0 -0.42694859652E-01  0.18379241974E-01 -0.28572880432E-01  0.54564807279E-01  0.51100000000E-03 0.  1.
</event>
<event>
 8    1  0.2929965E+004  0.1043930E+01  0.7957747E-01            NaN
         13   -1    0    0    0    0  0.00000000000E+00  0.00000000000E+00  0.74505805969E-08  0.10566000000E+00  0.10566000000E+00 0. -1.
     999900   -1    0    0    0    0 -0.00000000000E+00 -0.00000000000E+00 -0.74505805969E-08  0.93827000000E+00  0.93827000000E+00 0.  1.
     999902    2    1    2    0    0 -0.11696136090E-01 -0.80633464191E-02 -0.15023721315E-02  0.10296445432E+01  0.10295454390E+01 0.  0.
     999903    2    3    3    0    0 -0.93459328392E-01 -0.93240614777E-01  0.86470046905E-02  0.14170119108E+00  0.50754295942E-01 0.  0.
         14    1    1    2    0    0  0.11696136090E-01  0.80633464191E-02  0.15023721315E-02  0.14285456833E-01  0.00000000000E+00 0. -1.
     999901    1    3    3    0    0  0.81763192303E-01  0.85177268358E-01 -0.10149376822E-01  0.88794335208E+00  0.88000000000E+00 0. -1.
        -11    1    4    4    0    0 -0.78478372518E-01 -0.72571453001E-01 -0.13706228318E-01  0.10776637954E+00  0.51100000000E-03 0.  1.
         11    1    4    4    0    0 -0.14980955875E-01 -0.20669161777E-01  0.22353233008E-01  0.33934811542E-01  0.51100000000E-03 0. -1.
</event>
<event>
 7    1  0.2929965E+004  0.1043930E+01  0.7957747E-01            NaN
         13   -1    0    0    0    0  0.00000000000E+00  0.00000000000E+00  0.74505805969E-08  0.10566000000E+00  0.10566000000E+00 0. -1.
     999900   -1    0    0    0    0 -0.00000000000E+00 -0.00000000000E+00 -0.74505805969E-08  0.93827000000E+00  0.93827000000E+00 0. -1.
     999903    2    1    2    0    0  0.93488239193E-01 -0.31619293134E-01  0.63479248938E-01  0.12531957227E+00  0.43994881330E-01 0.  0.
         14    1    1    2    0    0  0.17817047732E-02 -0.22630888971E-01 -0.20787129824E-01  0.30780454412E-01  0.00000000000E+00 0.  1.
     999901    1    1    2    0    0 -0.95269943966E-01  0.54250182104E-01 -0.42692119114E-01  0.88782997331E+00  0.88000000000E+00 0.  1.
        -11    1    3    3    0    0  0.80510291092E-01 -0.78320164092E-02  0.45741329912E-01  0.92928885907E-01  0.51100000000E-03 0.  1.
         11    1    3    3    0    0  0.12977948101E-01 -0.23787276725E-01  0.17737919026E-01  0.32390686366E-01  0.51100000000E-03 0. -1.
</event>
<event>
 8    1  0.2929965E+004  0.1043930E+01  0.7957747E-01            NaN
         13   -1    0    0    0    0  0.00000000000E+00  0.00000000000E+00  0.74505805969E-08  0.10566000000E+00  0.10566000000E+00 0.  1.
     999900   -1    0    0    0    0 -0.00000000000E+00 -0.00000000000E+00 -0.74505805969E-08  0.93827000000E+00  0.93827000000E+00 0.  1.
     999902    2    1    2    0    0 -0.12297067655E-01 -0.29521476059E-02  0.57196840624E-02  0.10300502365E+01  0.10299567185E+01 0.  0.
     999903    2    3    3    0    0  0.43338809739E-01 -0.12502818645E+00 -0.15219852579E-02  0.13985343138E+00  0.45236776999E-01 0.  0.
         14    1    1    2    0    0  0.12297067655E-01  0.29521476059E-02 -0.57196840624E-02  0.13879763476E-01  0.00000000000E+00 0. -1.
     999901    1    3    3    0    0 -0.55635877394E-01  0.12207603884E+00  0.72416693203E-02  0.89019680514E+00  0.88000000000E+00 0.  1.
        -11    1    4    4    0    0  0.40405012991E-01 -0.55516346656E-01  0.98058493642E-02  0.69361701418E-01  0.51100000000E-03 0.  1.
         11    1    4    4    0    0  0.29337967482E-02 -0.69511839794E-01 -0.11327834622E-01  0.70491729962E-01  0.51100000000E-03 0. -1.
</event>
<event>
 8    1  0.2929965E+004  0.1043930E+01  0.7957747E-01            NaN
         13   -1    0    0    0    0  0.00000000000E+00  0.00000000000E+00  0.74505805969E-08  0.10566000000E+00  0.10566000000E+00 0. -1.
     999900   -1    0    0    0    0 -0.00000000000E+00 -0.00000000000E+00 -0.74505805969E-08  0.93827000000E+00  0.93827000000E+00 0. -1.
     999902    2    1    2    0    0  0.84053680591E-02  0.14656963965E-03 -0.96877659201E-02  0.10311032895E+01  0.10310235056E+01 0.  0.
     999903    2    3    3    0    0  0.12044249921E+00 -0.51562876763E-01  0.26168068946E-01  0.14177105317E+00  0.47425075734E-01 0.  0.
         14    1    1    2    0    0 -0.84053680591E-02 -0.14656963965E-03  0.96877659201E-02  0.12826710544E-01  0.00000000000E+00 0. -1.
     999901    1    3    3    0    0 -0.11203713115E+00  0.51709446402E-01 -0.35855834866E-01  0.88933223629E+00  0.88000000000E+00 0. -1.
        -11    1    4    4    0    0  0.12783295930E-01 -0.23876421433E-01  0.12286819648E-01  0.29744297157E-01  0.51100000000E-03 0.  1.
         11    1    4    4    0    0  0.10765920328E+00 -0.27686455329E-01  0.13881249298E-01  0.11202675601E+00  0.51100000000E-03 0. -1.
</event>
<event>
 8    1  0.2929965E+004  0.1043930E+01  0.7957747E-01            NaN
         13   -1    0    0    0    0  0.00000000000E+00  0.00000000000E+00  0.74505805969E-08  0.10566000000E+00  0.10566000000E+00 0. -1.
     999900   -1    0    0    0    0 -0.00000000000E+00 -0.00000000000E+00 -0.74505805969E-08  0.93827000000E+00  0.93827000000E+00 0.  1.
     999902    2    1    2    0    0 -0.75528082414E-02 -0.10334722492E-01 -0.10706843778E-01  0.10272420431E+01  0.10271064829E+01 0.  0.
     999903    2    3    3    0    0  0.12168896774E+00  0.41329385734E-01  0.30571997173E-03  0.13623480785E+00  0.45205159091E-01 0.  0.
         14    1    1    2    0    0  0.75528082414E-02  0.10334722492E-01  0.10706843778E-01  0.16687956885E-01  0.00000000000E+00 0. -1.
     999901    1    3    3    0    0 -0.12924177599E+00 -0.51664108225E-01 -0.11012563750E-01  0.89100723527E+00  0.88000000000E+00 0.  1.
        -11    1    4    4    0    0  0.23128501331E-01  0.93125210023E-02  0.18457333924E-01  0.31025552659E-01  0.51100000000E-03 0. -1.
         11    1    4    4    0    0  0.98560466414E-01  0.32016864731E-01 -0.18151613953E-01  0.10520925519E+00  0.51100000000E-03 0.  1.
</event>
<event>
 8    1  0.2929965E+004  0.1043930E+01  0.7957747E-01            NaN
         13   -1    0    0    0    0  0.00000000000E+00  0.00000000000E+00  0.74505805969E-08  0.10566000000E+00  0.10566000000E+00 0. -1.
     999900   -1    0    0    0    0 -0.00000000000E+00 -0.00000000000E+00 -0.74505805969E-08  0.93827000000E+00  0.93827000000E+00 0. -1.
     999902    2    1    2    0    0 -0.13540289926E-01  0.22733012029E-02 -0.56042741394E-02  0.10291004606E+01  0.10289936068E+01 0.  0.
     999903    2    3    3    0    0 -0.28660652651E-01 -0.11608153217E+00 -0.55813383567E-01  0.13963014261E+00  0.45662761827E-01 0.  0.
         14    1    1    2    0    0  0.13540289926E-01 -0.22733012029E-02  0.56042741394E-02  0.14829539382E-01  0.00000000000E+00 0. -1.
     999901    1    3    3    0    0  0.15120362725E-01  0.11835483337E+00  0.50209109428E-01  0.88947031801E+00  0.88000000000E+00 0.  1.
        -11    1    4    4    0    0 -0.37510504916E-01 -0.59408327188E-01 -0.35963317405E-01  0.78930403762E-01  0.51100000000E-03 0. -1.
         11    1    4    4    0    0  0.88498522650E-02 -0.56673204984E-01 -0.19850066162E-01  0.60699738845E-01  0.51100000000E-03 0.  1.
</event>
<event>
 8    1  0.2929965E+004  0.1043930E+01  0.7957747E-01            NaN
         13   -1    0    0    0    0  0.00000000000E+00  0.00000000000E+00  0.74505805969E-08  0.10566000000E+00  0.10566000000E+00 0. -1.
     999900   -1    0    0    0    0 -0.00000000000E+00 -0.00000000000E+00 -0.74505805969E-08  0.93827000000E+00  0.93827000000E+00 0. -1.
     999902    2    1    2    0    0  0.10975110063E-01  0.77742845921E-02  0.27820496870E-03  0.10304774932E+01  0.10303896807E+01 0.  0.
     999903    2    3    3    0    0 -0.75157912371E-02  0.10692401468E+00 -0.80031734221E-01  0.14108316627E+00  0.44834688454E-01 0.  0.
         14    1    1    2    0    0 -0.10975110063E-01 -0.77742845921E-02 -0.27820496870E-03  0.13452506823E-01  0.00000000000E+00 0.  1.
     999901    1    3    3    0    0  0.18490901301E-01 -0.99149730085E-01  0.80309939190E-01  0.88939432691E+00  0.88000000000E+00 0.  1.
        -11    1    4    4    0    0 -0.14982786226E-01  0.51151538670E-01 -0.15602932788E-01  0.55539863377E-01  0.51100000000E-03 0.  1.
         11    1    4    4    0    0  0.74669949887E-02  0.55772476008E-01 -0.64428801433E-01  0.85543302890E-01  0.51100000000E-03 0. -1.
</event>
<event>
 8    1  0.2929965E+004  0.1043930E+01  0.7957747E-01            NaN
         13   -1    0    0    0    0  0.00000000000E+00  0.00000000000E+00  0.74505805969E-08  0.10566000000E+00  0.10566000000E+00 0.  1.
     999900   -1    0    0    0    0 -0.00000000000E+00 -0.00000000000E+00 -0.74505805969E-08  0.93827000000E+00  0.93827000000E+00 0. -1.
     999902    2    1    2    0    0 -0.35432595446E-02 -0.10669773565E-01  0.85616126629E-02  0.10297984761E+01  0.10297015108E+01 0.  0.
     999903    2    3    3    0    0  0.11880500181E+00 -0.23190462985E-01 -0.52441663960E-01  0.13915417871E+00  0.44286920260E-01 0.  0.
         14    1    1    2    0    0  0.35432595446E-02  0.10669773565E-01 -0.85616126629E-02  0.14131523892E-01  0.00000000000E+00 0.  1.
     999901    1    3    3    0    0 -0.12234826136E+00  0.12520689420E-01  0.61003276623E-01  0.89064429739E+00  0.88000000000E+00 0.  1.
        -11    1    4    4    0    0  0.44462336684E-01 -0.30595740351E-01 -0.25903193944E-01  0.59868483266E-01  0.51100000000E-03 0.  1.
         11    1    4    4    0    0  0.74342665126E-01  0.74052773663E-02 -0.26538470016E-01  0.79285695449E-01  0.51100000000E-03 0. -1.
</event>
<event>
 8    1  0.2929965E+004  0.1043930E+01  0.7957747E-01            NaN
         13   -1    0    0    0    0  0.00000000000E+00  0.00000000000E+00  0.74505805969E-08  0.10566000000E+00  0.10566000000E+00 0.  1.
     999900   -1    0    0    0    0 -0.00000000000E+00 -0.00000000000E+00 -0.74505805969E-08  0.93827000000E+00  0.93827000000E+00 0. -1.
     999902    2    1    2    0    0 -0.10210036221E-01 -0.67358027434E-02 -0.81699544462E-02  0.10292206821E+01  0.10291155661E+01 0.  0.
     999903    2    3    3    0    0  0.58095797122E-01  0.78282022937E-01 -0.87959537405E-01  0.13890607751E+00  0.45330137766E-01 0.  0.
         14    1    1    2    0    0  0.10210036221E-01  0.67358027434E-02  0.81699544462E-02  0.14709317927E-01  0.00000000000E+00 0. -1.
     999901    1    3    3    0    0 -0.68305833342E-01 -0.85017825680E-01  0.79789582959E-01  0.89031460456E+00  0.88000000000E+00 0.  1.
        -11    1    4    4    0    0  0.37864379508E-01  0.52916936157E-01 -0.28228014683E-01  0.70929509385E-01  0.51100000000E-03 0.  1.
         11    1    4    4    0    0  0.20231417614E-01  0.25365086780E-01 -0.59731522722E-01  0.67976568123E-01  0.51100000000E-03 0. -1.
</event>
<event>
 8    1  0.2929965E+004  0.1043930E+01  0.7957747E-01            NaN
         13   -1    0    0    0    0  0.00000000000E+00  0.00000000000E+00  0.74505805969E-08  0.10566000000E+00  0.10566000000E+00 0.  1.
     999900   -1    0    0    0    0 -0.00000000000E+00 -0.00000000000E+00 -0.74505805969E-08  0.93827000000E+00  0.93827000000E+00 0. -1.
     999902    2    1    2    0    0 -0.10136534147E-01 -0.39939413428E-03  0.11154601375E-01  0.10288524016E+01  0.10287419163E+01 0.  0.
     999903    2    3    3    0    0 -0.95639964798E-02  0.74559894735E-01  0.10949121476E+00  0.14020775258E+00  0.44935952669E-01 0.  0.
         14    1    1    2    0    0  0.10136534147E-01  0.39939413428E-03 -0.11154601375E-01  0.15077598351E-01  0.00000000000E+00 0. -1.
     999901    1    3    3    0    0 -0.57253766759E-03 -0.74959288869E-01 -0.98336613385E-01  0.88864464907E+00  0.88000000000E+00 0.  1.
        -11    1    4    4    0    0 -0.17132056229E-01  0.25232624348E-01  0.70694583520E-01  0.76994661777E-01  0.51100000000E-03 0.  1.
         11    1    4    4    0    0  0.75680597494E-02  0.49327270387E-01  0.38796631240E-01  0.63213090802E-01  0.51100000000E-03 0. -1.
</event>
<event>
 8    1  0.2929965E+004  0.1043930E+01  0.7957747E-01            NaN
         13   -1    0    0    0    0  0.00000000000E+00  0.00000000000E+00  0.74505805969E-08  0.10566000000E+00  0.10566000000E+00 0.  1.
     999900   -1    0    0    0    0 -0.00000000000E+00 -0.00000000000E+00 -0.74505805969E-08  0.93827000000E+00  0.93827000000E+00 0. -1.
     999902    2    1    2    0    0  0.13608951041E-01 -0.12069312101E-02 -0.72913238577E-03  0.10302481922E+01  0.10301573402E+01 0.  0.
     999903    2    3    3    0    0 -0.38425719198E-02  0.12183783358E+00 -0.52395106316E-01  0.14001567049E+00  0.44720440140E-01 0.  0.
         14    1    1    2    0    0 -0.13608951041E-01  0.12069312101E-02  0.72913238577E-03  0.13681807827E-01  0.00000000000E+00 0.  1.
     999901    1    3    3    0    0  0.17451522961E-01 -0.12304476479E+00  0.51665973930E-01  0.89023252168E+00  0.88000000000E+00 0.  1.
        -11    1    4    4    0    0  0.14303498073E-01  0.86833290339E-01 -0.23375373034E-01  0.91056463547E-01  0.51100000000E-03 0.  1.
         11    1    4    4    0    0 -0.18146069993E-01  0.35004543244E-01 -0.29019733282E-01  0.48959206945E-01  0.51100000000E-03 0. -1.
</event>
<event>
 8    1  0.2929965E+004  0.1043930E+01  0.7957747E-01            NaN
         13   -1    0    0    0    0  0.00000000000E+00  0.00000000000E+00  0.74505805969E-08  0.10566000000E+00  0.10566000000E+00 0. -1.
     999900   -1    0    0    0    0 -0.00000000000E+00 -0.00000000000E+00 -0.74505805969E-08  0.93827000000E+00  0.93827000000E+00 0.  1.
     999902    2    1    2    0    0 -0.15674363615E-01  0.10007174944E-02 -0.19729508364E-03  0.10282224847E+01  0.10281025008E+01 0.  0.
     999903    2    3    3    0    0  0.54282333424E-01  0.92830695077E-01  0.72899403823E-01  0.13767781341E+00  0.45571345797E-01 0.  0.
         14    1    1    2    0    0  0.15674363615E-01 -0.10007174944E-02  0.19729508364E-03  0.15707515258E-01  0.00000000000E+00 0. -1.
     999901    1    3    3    0    0 -0.69956697039E-01 -0.91829977582E-01 -0.73096698907E-01  0.89054467133E+00  0.88000000000E+00 0. -1.
        -11    1    4    4    0    0  0.25881461889E-01  0.16203762751E-01  0.40266839870E-02  0.30804014377E-01  0.51100000000E-03 0.  1.
         11    1    4    4    0    0  0.28400871536E-01  0.76626932325E-01  0.68872719836E-01  0.10687379904E+00  0.51100000000E-03 0. -1.
</event>
<event>
 8    1  0.2929965E+004  0.1043930E+01  0.7957747E-01            NaN
         13   -1    0    0    0    0  0.00000000000E+00  0.00000000000E+00  0.74505805969E-08  0.10566000000E+00  0.10566000000E+00 0.  1.
     999900   -1    0    0    0    0 -0.00000000000E+00 -0.00000000000E+00 -0.74505805969E-08  0.93827000000E+00  0.93827000000E+00 0.  1.
     999902    2    1    2    0    0  0.10895850360E-01  0.89026002250E-02  0.23521891493E-02  0.10296643546E+01  0.10295655270E+01 0.  0.
     999903    2    3    3    0    0  0.36386174150E-01  0.12856125767E+00  0.60089306237E-02  0.14119301419E+00  0.45248307876E-01 0.  0.
         14    1    1    2    0    0 -0.10895850360E-01 -0.89026002250E-02 -0.23521891493E-02  0.14265645434E-01  0.00000000000E+00 0. -1.
     999901    1    3    3    0    0 -0.25490323789E-01 -0.11965865745E+00 -0.36567414744E-02  0.88847134037E+00  0.88000000000E+00 0. -1.
        -11    1    4    4    0    0  0.11409626002E-01  0.41047801556E-01  0.23290753525E-01  0.48557408279E-01  0.51100000000E-03 0.  1.
         11    1    4    4    0    0  0.24976548148E-01  0.87513456117E-01 -0.17281822902E-01  0.92635605912E-01  0.51100000000E-03 0. -1.
</event>
<event>
 8    1  0.2929965E+004  0.1043930E+01  0.7957747E-01            NaN
         13   -1    0    0    0    0  0.00000000000E+00  0.00000000000E+00  0.74505805969E-08  0.10566000000E+00  0.10566000000E+00 0.  1.
     999900   -1    0    0    0    0 -0.00000000000E+00 -0.00000000000E+00 -0.74505805969E-08  0.93827000000E+00  0.93827000000E+00 0.  1.
     999902    2    1    2    0    0  0.99690068539E-02  0.99886482665E-02 -0.31183511038E-02  0.10294773772E+01  0.10293759235E+01 0.  0.
     999903    2    3    3    0    0  0.69776474785E-01  0.84612826664E-01  0.75681785587E-01  0.14079567786E+00  0.45470906794E-01 0.  0.
         14    1    1    2    0    0 -0.99690068539E-02 -0.99886482665E-02  0.31183511038E-02  0.14452622788E-01  0.00000000000E+00 0. -1.
     999901    1    3    3    0    0 -0.59807467931E-01 -0.74624178397E-01 -0.78800136691E-01  0.88868169935E+00  0.88000000000E+00 0.  1.
        -11    1    4    4    0    0  0.60856432477E-01  0.39633792817E-01  0.50722873025E-01  0.88585630188E-01  0.51100000000E-03 0. -1.
         11    1    4    4    0    0  0.89200423085E-02  0.44979033847E-01  0.24958912562E-01  0.52210047671E-01  0.51100000000E-03 0.  1.
</event>
<event>
 8    1  0.2929965E+004  0.1043930E+01  0.7957747E-01            NaN
         13   -1    0    0    0    0  0.00000000000E+00  0.00000000000E+00  0.74505805969E-08  0.10566000000E+00  0.10566000000E+00 0.  1.
     999900   -1    0    0    0    0 -0.00000000000E+00 -0.00000000000E+00 -0.74505805969E-08  0.93827000000E+00  0.93827000000E+00 0.  1.
     999902    2    1    2    0    0 -0.61518145344E-02  0.11945153589E-01  0.44928246452E-02  0.10297625376E+01  0.10296650751E+01 0.  0.
     999903    2    3    3    0    0  0.99704907289E-01  0.79269253792E-01 -0.36673801638E-01  0.13991262269E+00  0.44787175922E-01 0.  0.
         14    1    1    2    0    0  0.61518145344E-02 -0.11945153589E-01 -0.44928246452E-02  0.14167462357E-01  0.00000000000E+00 0. -1.
     999901    1    3    3    0    0 -0.10585672182E+00 -0.67324100203E-01  0.41166626283E-01  0.88984991495E+00  0.88000000000E+00 0. -1.
        -11    1    4    4    0    0  0.76548533758E-01  0.53165356109E-01 -0.59066736877E-02  0.93388345235E-01  0.51100000000E-03 0.  1.
         11    1    4    4    0    0  0.23156373531E-01  0.26103897683E-01 -0.30767127950E-01  0.46524277455E-01  0.51100000000E-03 0. -1.
</event>
<event>
 8    1  0.2929965E+004  0.1043930E+01  0.7957747E-01            NaN
         13   -1    0    0    0    0  0.00000000000E+00  0.00000000000E+00  0.74505805969E-08  0.10566000000E+00  0.10566000000E+00 0. -1.
     999900   -1    0    0    0    0 -0.00000000000E+00 -0.00000000000E+00 -0.74505805969E-08  0.93827000000E+00  0.93827000000E+00 0.  1.
     999902    2    1    2    0    0  0.99174281240E-02 -0.49903878526E-02 -0.82201138896E-02  0.10301158904E+01  0.10300232609E+01 0.  0.
     999903    2    3    3    0    0  0.10840115307E+00  0.91559271295E-02  0.77027703712E-01  0.14041574276E+00  0.44143772918E-01 0.  0.
         14    1    1    2    0    0 -0.99174281240E-02  0.49903878526E-02  0.82201138896E-02  0.13814109594E-01  0.00000000000E+00 0.  1.
     999901    1    3    3    0    0 -0.98483724950E-01 -0.14146314982E-01 -0.85247817602E-01  0.88970014764E+00  0.88000000000E+00 0.  1.
        -11    1    4    4    0    0  0.62349478585E-01  0.17520849586E-01  0.65700960812E-01  0.92256788491E-01  0.51100000000E-03 0.  1.
         11    1    4    4    0    0  0.46051674489E-01 -0.83649224567E-02  0.11326742900E-01  0.48158954273E-01  0.51100000000E-03 0. -1.
</event>
<event>
 8    1  0.2929965E+004  0.1043930E+01  0.7957747E-01            NaN
         13   -1    0    0    0    0  0.00000000000E+00  0.00000000000E+00  0.74505805969E-08  0.10566000000E+00  0.10566000000E+00 0.  1.
     999900   -1    0    0    0    0 -0.00000000000E+00 -0.00000000000E+00 -0.74505805969E-08  0.93827000000E+00  0.93827000000E+00 0. -1.
     999902    2    1    2    0    0  0.20525441134E-02  0.63131041442E-02  0.30860830517E-02  0.10366093354E+01  0.10365834854E+01 0.  0.
     999903    2    3    3    0    0 -0.78696145646E-01 -0.10759047017E+00  0.36027086975E-01  0.14499311480E+00  0.44229625049E-01 0.  0.
         14    1    1    2    0    0 -0.20525441134E-02 -0.63131041442E-02 -0.30860830517E-02  0.73206645788E-02  0.00000000000E+00 0. -1.
     999901    1    3    3    0    0  0.80748689759E-01  0.11390357431E+00 -0.32941003923E-01  0.89161622062E+00  0.88000000000E+00 0. -1.
        -11    1    4    4    0    0 -0.16595716127E-01 -0.44016733891E-01 -0.46119061338E-02  0.47269667392E-01  0.51100000000E-03 0.  1.
         11    1    4    4    0    0 -0.62100429519E-01 -0.63573736279E-01  0.40638993109E-01  0.97723447406E-01  0.51100000000E-03 0. -1.
</event>
<event>
 8    1  0.2929965E+004  0.1043930E+01  0.7957747E-01            NaN
         13   -1    0    0    0    0  0.00000000000E+00  0.00000000000E+00  0.74505805969E-08  0.10566000000E+00  0.10566000000E+00 0.  1.
     999900   -1    0    0    0    0 -0.00000000000E+00 -0.00000000000E+00 -0.74505805969E-08  0.93827000000E+00  0.93827000000E+00 0.  1.
     999902    2    1    2    0    0 -0.26815316657E-02  0.22593865690E-01 -0.14501929866E-01  0.10169489076E+01  0.10165909213E+01 0.  0.
     999903    2    3    3    0    0  0.99869100123E-01 -0.11689562800E-02  0.67434068023E-01  0.12689564425E+00  0.39748551952E-01 0.  0.
         14    1    1    2    0    0  0.26815316657E-02 -0.22593865690E-01  0.14501929866E-01  0.26981092430E-01  0.00000000000E+00 0. -1.
     999901    1    3    3    0    0 -0.10255063179E+00  0.23762821970E-01 -0.81935997889E-01  0.89005326332E+00  0.88000000000E+00 0. -1.
        -11    1    4    4    0    0  0.76947051895E-01 -0.46601862882E-02  0.29717945333E-01  0.82619510573E-01  0.51100000000E-03 0. -1.
         11    1    4    4    0    0  0.22922048229E-01  0.34912300082E-02  0.37716122690E-01  0.44276133681E-01  0.51100000000E-03 0.  1.
</event>
<event>
 8    1  0.2929965E+004  0.1043930E+01  0.7957747E-01            NaN
         13   -1    0    0    0    0  0.00000000000E+00  0.00000000000E+00  0.74505805969E-08  0.10566000000E+00  0.10566000000E+00 0.  1.
     999900   -1    0    0    0    0 -0.00000000000E+00 -0.00000000000E+00 -0.74505805969E-08  0.93827000000E+00  0.93827000000E+00 0. -1.
     999902    2    1    2    0    0 -0.86428908409E-03 -0.13920658122E-01  0.35721980859E-02  0.10295323503E+01  0.10294316723E+01 0.  0.
     999903    2    3    3    0    0 -0.12150717280E+00  0.50245765959E-01 -0.13439784604E-02  0.13897286088E+00  0.44977991798E-01 0.  0.
         14    1    1    2    0    0  0.86428908409E-03  0.13920658122E-01 -0.35721980859E-02  0.14397649716E-01  0.00000000000E+00 0. -1.
     999901    1    3    3    0    0  0.12064288371E+00 -0.64166424081E-01  0.49161765464E-02  0.89055948940E+00  0.88000000000E+00 0. -1.
        -11    1    4    4    0    0 -0.29970597829E-01 -0.49668734578E-02 -0.93053130278E-02  0.31776666561E-01  0.51100000000E-03 0. -1.
         11    1    4    4    0    0 -0.91536574968E-01  0.55212639416E-01  0.79613345674E-02  0.10719619432E+00  0.51100000000E-03 0.  1.
</event>
<event>
 8    1  0.2929965E+004  0.1043930E+01  0.7957747E-01            NaN
         13   -1    0    0    0    0  0.00000000000E+00  0.00000000000E+00  0.74505805969E-08  0.10566000000E+00  0.10566000000E+00 0.  1.
     999900   -1    0    0    0    0 -0.00000000000E+00 -0.00000000000E+00 -0.74505805969E-08  0.93827000000E+00  0.93827000000E+00 0.  1.
     999902    2    1    2    0    0 -0.16895394453E-01  0.87999771398E-02  0.11066918575E-01  0.10218988712E+01  0.10216613589E+01 0.  0.
     999903    2    3    3    0    0  0.22355566559E-01  0.94764307830E-01 -0.77861726222E-01  0.13238281849E+00  0.44527708515E-01 0.  0.
         14    1    1    2    0    0  0.16895394453E-01 -0.87999771398E-02 -0.11066918575E-01  0.22031128844E-01  0.00000000000E+00 0. -1.
     999901    1    3    3    0    0 -0.39250961012E-01 -0.85964330690E-01  0.88928644797E-01  0.88951605267E+00  0.88000000000E+00 0.  1.
        -11    1    4    4    0    0  0.31477523677E-01  0.41469621414E-01 -0.29519600110E-01  0.59851749421E-01  0.51100000000E-03 0. -1.
         11    1    4    4    0    0 -0.91219571182E-02  0.53294686415E-01 -0.48342126112E-01  0.72531069065E-01  0.51100000000E-03 0.  1.
</event>
<event>
 8    1  0.2929965E+004  0.1043930E+01  0.7957747E-01            NaN
         13   -1    0    0    0    0  0.00000000000E+00  0.00000000000E+00  0.74505805969E-08  0.10566000000E+00  0.10566000000E+00 0. -1.
     999900   -1    0    0    0    0 -0.00000000000E+00 -0.00000000000E+00 -0.74505805969E-08  0.93827000000E+00  0.93827000000E+00 0. -1.
     999902    2    1    2    0    0  0.59298502487E-02  0.39116918407E-02 -0.11813516681E-01  0.10301450940E+01  0.10300528584E+01 0.  0.
     999903    2    3    3    0    0  0.12468706033E+00  0.44537034871E-02  0.47005853790E-01  0.14022190234E+00  0.43427331438E-01 0.  0.
         14    1    1    2    0    0 -0.59298502487E-02 -0.39116918407E-02  0.11813516681E-01  0.13784905999E-01  0.00000000000E+00 0. -1.
     999901    1    3    3    0    0 -0.11875721008E+00 -0.54201164644E-03 -0.58819370471E-01  0.88992319167E+00  0.88000000000E+00 0. -1.
        -11    1    4    4    0    0  0.25225787995E-01 -0.12052655918E-01  0.23902383604E-01  0.36785757538E-01  0.51100000000E-03 0.  1.
         11    1    4    4    0    0  0.99461272333E-01  0.16506359405E-01  0.23103470186E-01  0.10343614480E+00  0.51100000000E-03 0. -1.
</event>
<event>
 8    1  0.2929965E+004  0.1043930E+01  0.7957747E-01            NaN
         13   -1    0    0    0    0  0.00000000000E+00  0.00000000000E+00  0.74505805969E-08  0.10566000000E+00  0.10566000000E+00 0.  1.
     999900   -1    0    0    0    0 -0.00000000000E+00 -0.00000000000E+00 -0.74505805969E-08  0.93827000000E+00  0.93827000000E+00 0.  1.
     999902    2    1    2    0    0  0.68100619636E-02  0.10506204522E-02 -0.10523307582E-01  0.10313514170E+01  0.10312747086E+01 0.  0.
     999903    2    3    3    0    0 -0.98936117027E-01 -0.25608644436E-01  0.83886059111E-01  0.13960812476E+00  0.44826327791E-01 0.  0.
         14    1    1    2    0    0 -0.68100619636E-02 -0.10506204522E-02  0.10523307582E-01  0.12578582979E-01  0.00000000000E+00 0.  1.
     999901    1    3    3    0    0  0.10574617899E+00  0.26659264889E-01 -0.94409366693E-01  0.89174329226E+00  0.88000000000E+00 0.  1.
        -11    1    4    4    0    0 -0.44531130311E-01  0.36804909612E-02  0.56462473471E-01  0.72005830403E-01  0.51100000000E-03 0.  1.
         11    1    4    4    0    0 -0.54404986716E-01 -0.29289135398E-01  0.27423585640E-01  0.67602294356E-01  0.51100000000E-03 0. -1.
</event>
<event>
 8    1  0.2929965E+004  0.1043930E+01  0.7957747E-01            NaN
         13   -1    0    0    0    0  0.00000000000E+00  0.00000000000E+00  0.74505805969E-08  0.10566000000E+00  0.10566000000E+00 0. -1.
     999900   -1    0    0    0    0 -0.00000000000E+00 -0.00000000000E+00 -0.74505805969E-08  0.93827000000E+00  0.93827000000E+00 0. -1.
     999902    2    1    2    0    0  0.75272942403E-02 -0.78453112432E-02  0.99245092836E-02  0.10292090981E+01  0.10291038153E+01 0.  0.
     999903    2    3    3    0    0  0.37773893503E-01  0.11611944838E+00  0.48857294339E-01  0.13915411099E+00  0.45455891513E-01 0.  0.
         14    1    1    2    0    0 -0.75272942403E-02  0.78453112432E-02 -0.99245092836E-02  0.14720901861E-01  0.00000000000E+00 0.  1.
     999901    1    3    3    0    0 -0.30246599263E-01 -0.12396475962E+00 -0.38932785055E-01  0.89005498715E+00  0.88000000000E+00 0. -1.
        -11    1    4    4    0    0 -0.93772856488E-02  0.26945385419E-01  0.17696995078E-01  0.33577254761E-01  0.51100000000E-03 0. -1.
         11    1    4    4    0    0  0.47151179152E-01  0.89174062960E-01  0.31160299261E-01  0.10557685623E+00  0.51100000000E-03 0.  1.
</event>
<event>
 8    1  0.2929965E+004  0.1043930E+01  0.7957747E-01            NaN
         13   -1    0    0    0    0  0.00000000000E+00  0.00000000000E+00  0.74505805969E-08  0.10566000000E+00  0.10566000000E+00 0.  1.
     999900   -1    0    0    0    0 -0.00000000000E+00 -0.00000000000E+00 -0.74505805969E-08  0.93827000000E+00  0.93827000000E+00 0.  1.
     999902    2    1    2    0    0  0.13750910066E-01 -0.14743252986E-02 -0.29032248905E-03  0.10300972327E+01  0.10300043512E+01 0.  0.
     999903    2    3    3    0    0  0.92373303003E-01 -0.44999033472E-01 -0.86226471985E-01  0.14135604281E+00  0.44595809758E-01 0.  0.
         14    1    1    2    0    0 -0.13750910066E-01  0.14743252986E-02  0.29032248905E-03  0.13832767253E-01  0.00000000000E+00 0. -1.
     999901    1    3    3    0    0 -0.78622392936E-01  0.43524708173E-01  0.85936149496E-01  0.88874118993E+00  0.88000000000E+00 0. -1.
        -11    1    4    4    0    0  0.46048257811E-01 -0.40630134560E-01 -0.29931229640E-01  0.68318295577E-01  0.51100000000E-03 0. -1.
         11    1    4    4    0    0  0.46325045191E-01 -0.43688989119E-02 -0.56295242345E-01  0.73037747237E-01  0.51100000000E-03 0.  1.
</event>
<event>
 8    1  0.2929965E+004  0.1043930E+01  0.7957747E-01            NaN
         13   -1    0    0    0    0  0.00000000000E+00  0.00000000000E+00  0.74505805969E-08  0.10566000000E+00  0.10566000000E+00 0. -1.
     999900   -1    0    0    0    0 -0.00000000000E+00 -0.00000000000E+00 -0.74505805969E-08  0.93827000000E+00  0.93827000000E+00 0.  1.
     999902    2    1    2    0    0 -0.62945779238E-02 -0.73859292853E-02  0.10520709970E-01  0.10296171037E+01  0.10295176158E+01 0.  0.
     999903    2    3    3    0    0 -0.13098112612E+00 -0.17956531063E-01 -0.13013575496E-01  0.14045326304E+00  0.45599051989E-01 0.  0.
         14    1    1    2    0    0  0.62945779238E-02  0.73859292853E-02 -0.10520709970E-01  0.14312896315E-01  0.00000000000E+00 0. -1.
     999901    1    3    3    0    0  0.12468654820E+00  0.10570601778E-01  0.23534285466E-01  0.88916384065E+00  0.88000000000E+00 0. -1.
        -11    1    4    4    0    0 -0.91366015605E-01 -0.27801920106E-01  0.54277519826E-02  0.95657812967E-01  0.51100000000E-03 0. -1.
         11    1    4    4    0    0 -0.39615110518E-01  0.98453890429E-02 -0.18441327479E-01  0.44795450070E-01  0.51100000000E-03 0.  1.
</event>
<event>
 8    1  0.2929965E+004  0.1043930E+01  0.7957747E-01            NaN
         13   -1    0    0    0    0  0.00000000000E+00  0.00000000000E+00  0.74505805969E-08  0.10566000000E+00  0.10566000000E+00 0.  1.
     999900   -1    0    0    0    0 -0.00000000000E+00 -0.00000000000E+00 -0.74505805969E-08  0.93827000000E+00  0.93827000000E+00 0.  1.
     999902    2    1    2    0    0 -0.20664598640E-02 -0.69131771275E-02  0.10595763975E-01  0.10311107766E+01  0.10310310864E+01 0.  0.
     999903    2    3    3    0    0 -0.71482930173E-01  0.54022840007E-01 -0.97359876288E-01  0.13971509297E+00  0.44867417393E-01 0.  0.
         14    1    1    2    0    0  0.20664598640E-02  0.69131771275E-02 -0.10595763975E-01  0.12819223400E-01  0.00000000000E+00 0. -1.
     999901    1    3    3    0    0  0.69416470309E-01 -0.60936017135E-01  0.10795564026E+00  0.89139568363E+00  0.88000000000E+00 0. -1.
        -11    1    4    4    0    0 -0.23517795189E-01  0.44068797589E-01 -0.38087696506E-01  0.62817826750E-01  0.51100000000E-03 0.  1.
         11    1    4    4    0    0 -0.47965134984E-01  0.99540424178E-02 -0.59272179783E-01  0.76897266217E-01  0.51100000000E-03 0. -1.
</event>
<event>
 8    1  0.2929965E+004  0.1043930E+01  0.7957747E-01            NaN
         13   -1    0    0    0    0  0.00000000000E+00  0.00000000000E+00  0.74505805969E-08  0.10566000000E+00  0.10566000000E+00 0. -1.
     999900   -1    0    0    0    0 -0.00000000000E+00 -0.00000000000E+00 -0.74505805969E-08  0.93827000000E+00  0.93827000000E+00 0. -1.
     999902    2    1    2    0    0  0.71849260467E-02  0.26937824449E-02 -0.13592456588E-01  0.10283212043E+01  0.10282027352E+01 0.  0.
     999903    2    3    3    0    0 -0.11457397939E+00  0.40954844521E-01 -0.48940638621E-01  0.13841186406E+00  0.44251123839E-01 0.  0.
         14    1    1    2    0    0 -0.71849260467E-02 -0.26937824449E-02  0.13592456588E-01  0.15608795670E-01  0.00000000000E+00 0. -1.
     999901    1    3    3    0    0  0.12175890544E+00 -0.38261062076E-01  0.35348182032E-01  0.88990934027E+00  0.88000000000E+00 0.  1.
        -11    1    4    4    0    0 -0.24758319480E-01  0.22766699598E-01 -0.29479469100E-01  0.44728036102E-01  0.51100000000E-03 0. -1.
         11    1    4    4    0    0 -0.89815659912E-01  0.18188144922E-01 -0.19461169520E-01  0.93683827960E-01  0.51100000000E-03 0.  1.
</event>
<event>
 8    1  0.2929965E+004  0.1043930E+01  0.7957747E-01            NaN
         13   -1    0    0    0    0  0.00000000000E+00  0.00000000000E+00  0.74505805969E-08  0.10566000000E+00  0.10566000000E+00 0. -1.
     999900   -1    0    0    0    0 -0.00000000000E+00 -0.00000000000E+00 -0.74505805969E-08  0.93827000000E+00  0.93827000000E+00 0. -1.
     999902    2    1    2    0    0 -0.10733485256E-01  0.18471978133E-02 -0.12578056602E-01  0.10272918705E+01  0.10271571252E+01 0.  0.
     999903    2    3    3    0    0 -0.87286203446E-01  0.96845145860E-01  0.17718915714E-01  0.13835833230E+00  0.42792575928E-01 0.  0.
         14    1    1    2    0    0  0.10733485256E-01 -0.18471978133E-02  0.12578056602E-01  0.16638129504E-01  0.00000000000E+00 0. -1.
     999901    1    3    3    0    0  0.76552718191E-01 -0.94997948046E-01 -0.30296972316E-01  0.88893353819E+00  0.88000000000E+00 0. -1.
        -11    1    4    4    0    0 -0.79531218020E-01  0.94000757742E-01  0.26859326651E-01  0.12602793994E+00  0.51100000000E-03 0.  1.
         11    1    4    4    0    0 -0.77549854269E-02  0.28443881173E-02 -0.91404109378E-02  0.12330392364E-01  0.51100000000E-03 0. -1.
</event>
<event>
 8    1  0.2929965E+004  0.1043930E+01  0.7957747E-01            NaN
         13   -1    0    0    0    0  0.00000000000E+00  0.00000000000E+00  0.74505805969E-08  0.10566000000E+00  0.10566000000E+00 0.  1.
     999900   -1    0    0    0    0 -0.00000000000E+00 -0.00000000000E+00 -0.74505805969E-08  0.93827000000E+00  0.93827000000E+00 0.  1.
     999902    2    1    2    0    0 -0.24197497719E-02 -0.13374006415E-01  0.50914888796E-02  0.10294164720E+01  0.10293141553E+01 0.  0.
     999903    2    3    3    0    0 -0.72053765160E-01  0.85178280899E-01 -0.67588472404E-01  0.13821288906E+00  0.45689347671E-01 0.  0.
         14    1    1    2    0    0  0.24197497719E-02  0.13374006415E-01 -0.50914888796E-02  0.14513528019E-01  0.00000000000E+00 0. -1.
     999901    1    3    3    0    0  0.69634015388E-01 -0.98552287313E-01  0.72679961284E-01  0.89120358292E+00  0.88000000000E+00 0. -1.
        -11    1    4    4    0    0 -0.18714011972E-01  0.55615985082E-01 -0.41537913967E-01  0.71895837560E-01  0.51100000000E-03 0.  1.
         11    1    4    4    0    0 -0.53339753189E-01  0.29562295816E-01 -0.26050558437E-01  0.66317051503E-01  0.51100000000E-03 0. -1.
</event>
<event>
 8    1  0.2929965E+004  0.1043930E+01  0.7957747E-01            NaN
         13   -1    0    0    0    0  0.00000000000E+00  0.00000000000E+00  0.74505805969E-08  0.10566000000E+00  0.10566000000E+00 0. -1.
     999900   -1    0    0    0    0 -0.00000000000E+00 -0.00000000000E+00 -0.74505805969E-08  0.93827000000E+00  0.93827000000E+00 0. -1.
     999902    2    1    2    0    0  0.30529815207E-02 -0.27472062194E-02 -0.13493187688E-01  0.10298256052E+01  0.10297290145E+01 0.  0.
     999903    2    3    3    0    0 -0.52708823212E-01  0.10577618683E+00 -0.60956888787E-01  0.14014054373E+00  0.44235822158E-01 0.  0.
         14    1    1    2    0    0 -0.30529815207E-02  0.27472062194E-02  0.13493187688E-01  0.14104394782E-01  0.00000000000E+00 0. -1.
     999901    1    3    3    0    0  0.55761804733E-01 -0.10852339305E+00  0.47463701099E-01  0.88968506148E+00  0.88000000000E+00 0.  1.
        -11    1    4    4    0    0 -0.37930659947E-01  0.33091761012E-01 -0.35976003928E-01  0.61873528997E-01  0.51100000000E-03 0. -1.
         11    1    4    4    0    0 -0.14778163266E-01  0.72684425822E-01 -0.24980884858E-01  0.78267014737E-01  0.51100000000E-03 0.  1.
</event>
<event>
 8    1  0.2929965E+004  0.1043930E+01  0.7957747E-01            NaN
         13   -1    0    0    0    0  0.00000000000E+00  0.00000000000E+00  0.74505805969E-08  0.10566000000E+00  0.10566000000E+00 0. -1.
     999900   -1    0    0    0    0 -0.00000000000E+00 -0.00000000000E+00 -0.74505805969E-08  0.93827000000E+00  0.93827000000E+00 0.  1.
     999902    2    1    2    0    0  0.35149740099E-03  0.35177445678E-02 -0.12642432060E-01  0.10308025796E+01  0.10307189864E+01 0.  0.
     999903    2    3    3    0    0  0.54618342387E-01 -0.45978362402E-01 -0.11538557675E+00  0.14178575816E+00  0.41136319259E-01 0.  0.
         14    1    1    2    0    0 -0.35149740099E-03 -0.35177445678E-02  0.12642432060E-01  0.13127420373E-01  0.00000000000E+00 0. -1.
     999901    1    3    3    0    0 -0.54266844986E-01  0.49496106970E-01  0.10274314469E+00  0.88901682147E+00  0.88000000000E+00 0. -1.
        -11    1    4    4    0    0  0.25877470149E-01 -0.46733702327E-01 -0.79857310023E-01  0.96078787875E-01  0.51100000000E-03 0.  1.
         11    1    4    4    0    0  0.28740872237E-01  0.75533992545E-03 -0.35528266723E-01  0.45706970286E-01  0.51100000000E-03 0. -1.
</event>
<event>
 7    1  0.2929965E+004  0.1043930E+01  0.7957747E-01            NaN
         13   -1    0    0    0    0  0.00000000000E+00  0.00000000000E+00  0.74505805969E-08  0.10566000000E+00  0.10566000000E+00 0. -1.
     999900   -1    0    0    0    0 -0.00000000000E+00 -0.00000000000E+00 -0.74505805969E-08  0.93827000000E+00  0.93827000000E+00 0. -1.
     999903    2    1    2    0    0 -0.57812276812E-01 -0.35303303280E-01  0.61044497225E-01  0.10152928267E+00  0.44645067212E-01 0.  0.
         14    1    1    2    0    0 -0.93222017718E-02 -0.20804484022E-01 -0.53362744953E-01  0.58028549441E-01  0.00000000000E+00 0.  1.
     999901    1    1    2    0    0  0.67134478584E-01  0.56107787302E-01 -0.76817522717E-02  0.88437216788E+00  0.88000000000E+00 0. -1.
        -11    1    3    3    0    0 -0.49684071238E-01 -0.36729389383E-01  0.28670573282E-01  0.68116208589E-01  0.51100000000E-03 0. -1.
         11    1    3    3    0    0 -0.81282055738E-02  0.14260861025E-02  0.32373923943E-01  0.33413074086E-01  0.51100000000E-03 0.  1.
</event>
<event>
 8    1  0.2929965E+004  0.1043930E+01  0.7957747E-01            NaN
         13   -1    0    0    0    0  0.00000000000E+00  0.00000000000E+00  0.74505805969E-08  0.10566000000E+00  0.10566000000E+00 0. -1.
     999900   -1    0    0    0    0 -0.00000000000E+00 -0.00000000000E+00 -0.74505805969E-08  0.93827000000E+00  0.93827000000E+00 0.  1.
     999902    2    1    2    0    0 -0.89558218234E-02  0.65858742355E-02 -0.83575650361E-02  0.10300221110E+01  0.10299282109E+01 0.  0.
     999903    2    3    3    0    0 -0.10895734171E+00  0.47573737100E-01 -0.61830496571E-01  0.14179935552E+00  0.46358215524E-01 0.  0.
         14    1    1    2    0    0  0.89558218234E-02 -0.65858742355E-02  0.83575650361E-02  0.13907889031E-01  0.00000000000E+00 0. -1.
     999901    1    3    3    0    0  0.10000151989E+00 -0.40987862865E-01  0.53472931535E-01  0.88822275544E+00  0.88000000000E+00 0. -1.
        -11    1    4    4    0    0 -0.61914396134E-01  0.17959884111E-01 -0.56906127283E-01  0.85991385204E-01  0.51100000000E-03 0. -1.
         11    1    4    4    0    0 -0.47042945576E-01  0.29613852990E-01 -0.49243692877E-02  0.55807970320E-01  0.51100000000E-03 0.  1.
</event>
<event>
 8    1  0.2929965E+004  0.1043930E+01  0.7957747E-01            NaN
         13   -1    0    0    0    0  0.00000000000E+00  0.00000000000E+00  0.74505805969E-08  0.10566000000E+00  0.10566000000E+00 0. -1.
     999900   -1    0    0    0    0 -0.00000000000E+00 -0.00000000000E+00 -0.74505805969E-08  0.93827000000E+00  0.93827000000E+00 0.  1.
     999902    2    1    2    0    0 -0.12161321772E-01 -0.79478071347E-02  0.18654413358E-02  0.10292826365E+01  0.10291784105E+01 0.  0.
     999903    2    3    3    0    0 -0.50462606929E-01  0.83817889783E-01 -0.88037700888E-01  0.13913067952E+00  0.45108711574E-01 0.  0.
         14    1    1    2    0    0  0.12161321772E-01  0.79478071347E-02 -0.18654413358E-02  0.14647363478E-01  0.00000000000E+00 0.  1.
     999901    1    3    3    0    0  0.38301285158E-01 -0.91765696918E-01  0.89903142224E-01  0.89015195700E+00  0.88000000000E+00 0. -1.
        -11    1    4    4    0    0 -0.35183738475E-01  0.37400496916E-01 -0.70478346467E-01  0.87201783608E-01  0.51100000000E-03 0.  1.
         11    1    4    4    0    0 -0.15278868454E-01  0.46417392867E-01 -0.17559354421E-01  0.51928895911E-01  0.51100000000E-03 0. -1.
</event>
<event>
 8    1  0.2929965E+004  0.1043930E+01  0.7957747E-01            NaN
         13   -1    0    0    0    0  0.00000000000E+00  0.00000000000E+00  0.74505805969E-08  0.10566000000E+00  0.10566000000E+00 0. -1.
     999900   -1    0    0    0    0 -0.00000000000E+00 -0.00000000000E+00 -0.74505805969E-08  0.93827000000E+00  0.93827000000E+00 0. -1.
     999902    2    1    2    0    0 -0.71775033174E-02  0.72067484266E-02 -0.63501611976E-02  0.10319392401E+01  0.10318695736E+01 0.  0.
     999903    2    3    3    0    0 -0.29004179668E-01 -0.12731871510E+00 -0.29348076013E-01  0.14115171869E+00  0.44846409786E-01 0.  0.
         14    1    1    2    0    0  0.71775033174E-02 -0.72067484266E-02  0.63501611976E-02  0.11990759942E-01  0.00000000000E+00 0.  1.
     999901    1    3    3    0    0  0.21826676350E-01  0.13452546353E+00  0.22997914815E-01  0.89078752137E+00  0.88000000000E+00 0.  1.
        -11    1    4    4    0    0 -0.14445836273E-01 -0.12025858095E-01  0.59117924334E-02  0.19710754915E-01  0.51100000000E-03 0. -1.
         11    1    4    4    0    0 -0.14558343394E-01 -0.11529285701E+00 -0.35259868446E-01  0.12144096378E+00  0.51100000000E-03 0.  1.
</event>
<event>
 8    1  0.2929965E+004  0.1043930E+01  0.7957747E-01            NaN
         13   -1    0    0    0    0  0.00000000000E+00  0.00000000000E+00  0.74505805969E-08  0.10566000000E+00  0.10566000000E+00 0.  1.
     999900   -1    0    0    0    0 -0.00000000000E+00 -0.00000000000E+00 -0.74505805969E-08  0.93827000000E+00  0.93827000000E+00 0. -1.
     999902    2    1    2    0    0 -0.44212000665E-02  0.11303987567E-02  0.13846855019E-01  0.10293505554E+01  0.10292473005E+01 0.  0.
     999903    2    3    3    0    0  0.98084364496E-01 -0.87143360626E-01 -0.71417660251E-02  0.13876638217E+00  0.44616097313E-01 0.  0.
         14    1    1    2    0    0  0.44212000665E-02 -0.11303987567E-02 -0.13846855019E-01  0.14579444615E-01  0.00000000000E+00 0. -1.
     999901    1    3    3    0    0 -0.10250556456E+00  0.88273759383E-01  0.20988621044E-01  0.89058417321E+00  0.88000000000E+00 0.  1.
        -11    1    4    4    0    0  0.43829000519E-01 -0.45994718039E-01  0.18226616894E-01  0.66098154727E-01  0.51100000000E-03 0. -1.
         11    1    4    4    0    0  0.54255363978E-01 -0.41148642587E-01 -0.25368382919E-01  0.72668227445E-01  0.51100000000E-03 0.  1.
</event>
<event>
 8    1  0.2929965E+004  0.1043930E+01  0.7957747E-01            NaN
         13   -1    0    0    0    0  0.00000000000E+00  0.00000000000E+00  0.74505805969E-08  0.10566000000E+00  0.10566000000E+00 0.  1.
     999900   -1    0    0    0    0 -0.00000000000E+00 -0.00000000000E+00 -0.74505805969E-08  0.93827000000E+00  0.93827000000E+00 0.  1.
     999902    2    1    2    0    0 -0.60925199064E-02  0.11753477865E-01 -0.32941699474E-02  0.10302876176E+01  0.10301972920E+01 0.  0.
     999903    2    3    3    0    0 -0.23200082978E-01  0.11380820995E+00 -0.68236783631E-01  0.14184776029E+00  0.44429449209E-01 0.  0.
         14    1    1    2    0    0  0.60925199064E-02 -0.11753477865E-01  0.32941699474E-02  0.13642382357E-01  0.00000000000E+00 0. -1.
     999901    1    3    3    0    0  0.17107563071E-01 -0.10205473209E+00  0.64942613684E-01  0.88843985735E+00  0.88000000000E+00 0. -1.
        -11    1    4    4    0    0 -0.60722686073E-03  0.56463878311E-01 -0.10588741542E-01  0.57453640849E-01  0.51100000000E-03 0. -1.
         11    1    4    4    0    0 -0.22592856117E-01  0.57344331641E-01 -0.57648042090E-01  0.84394119444E-01  0.51100000000E-03 0.  1.
</event>
<event>
 8    1  0.2929965E+004  0.1043930E+01  0.7957747E-01            NaN
         13   -1    0    0    0    0  0.00000000000E+00  0.00000000000E+00  0.74505805969E-08  0.10566000000E+00  0.10566000000E+00 0. -1.
     999900   -1    0    0    0    0 -0.00000000000E+00 -0.00000000000E+00 -0.74505805969E-08  0.93827000000E+00  0.93827000000E+00 0. -1.
     999902    2    1    2    0    0 -0.99290676412E-02  0.88045572446E-02 -0.39852195782E-02  0.10300740054E+01  0.10299808095E+01 0.  0.
     999903    2    3    3    0    0  0.29439351759E-01 -0.15451263111E-01 -0.12809711851E+00  0.14016278466E+00  0.46166194013E-01 0.  0.
         14    1    1    2    0    0  0.99290676412E-02 -0.88045572446E-02  0.39852195782E-02  0.13855994644E-01  0.00000000000E+00 0. -1.
     999901    1    3    3    0    0 -0.39368419400E-01  0.24255820356E-01  0.12411189893E+00  0.88991122070E+00  0.88000000000E+00 0.  1.
        -11    1    4    4    0    0  0.34905654302E-01  0.54047782422E-02 -0.79807542864E-01  0.87276121300E-01  0.51100000000E-03 0.  1.
         11    1    4    4    0    0 -0.54663025431E-02 -0.20856041354E-01 -0.48289575643E-01  0.52886663359E-01  0.51100000000E-03 0. -1.
</event>
<event>
 8    1  0.2929965E+004  0.1043930E+01  0.7957747E-01            NaN
         13   -1    0    0    0    0  0.00000000000E+00  0.00000000000E+00  0.74505805969E-08  0.10566000000E+00  0.10566000000E+00 0. -1.
     999900   -1    0    0    0    0 -0.00000000000E+00 -0.00000000000E+00 -0.74505805969E-08  0.93827000000E+00  0.93827000000E+00 0.  1.
     999902    2    1    2    0    0 -0.26429167942E-02  0.19603641265E-01 -0.18217744637E-01  0.10170381057E+01  0.10166825141E+01 0.  0.
     999903    2    3    3    0    0  0.64401384988E-01 -0.44471326294E-01 -0.90948109828E-01  0.12918099675E+00  0.47863702214E-01 0.  0.
         14    1    1    2    0    0  0.26429167942E-02 -0.19603641265E-01  0.18217744637E-01  0.26891894312E-01  0.00000000000E+00 0. -1.
     999901    1    3    3    0    0 -0.67044301782E-01  0.64074967559E-01  0.72730365191E-01  0.88785710894E+00  0.88000000000E+00 0.  1.
        -11    1    4    4    0    0  0.43153275875E-01 -0.19663414140E-01 -0.82947469373E-01  0.95547887840E-01  0.51100000000E-03 0.  1.
         11    1    4    4    0    0  0.21248109113E-01 -0.24807912154E-01 -0.80006404549E-02  0.33633108910E-01  0.51100000000E-03 0. -1.
</event>
<event>
 8    1  0.2929965E+004  0.1043930E+01  0.7957747E-01            NaN
         13   -1    0    0    0    0  0.00000000000E+00  0.00000000000E+00  0.74505805969E-08  0.10566000000E+00  0.10566000000E+00 0.  1.
     999900   -1    0    0    0    0 -0.00000000000E+00 -0.00000000000E+00 -0.74505805969E-08  0.93827000000E+00  0.93827000000E+00 0.  1.
     999902    2    1    2    0    0  0.24762115517E-02 -0.14223069698E-01 -0.23012619050E-02  0.10293107270E+01  0.10292069032E+01 0.  0.
     999903    2    3    3    0    0  0.98201622862E-01 -0.43197349792E-01 -0.78708613249E-01  0.14035575259E+00  0.44666785461E-01 0.  0.
         14    1    1    2    0    0 -0.24762115517E-02  0.14223069698E-01  0.23012619050E-02  0.14619272952E-01  0.00000000000E+00 0. -1.
     999901    1    3    3    0    0 -0.95725411310E-01  0.28974280095E-01  0.76407351344E-01  0.88895497446E+00  0.88000000000E+00 0. -1.
        -11    1    4    4    0    0  0.33761155549E-01  0.67853814622E-02 -0.27331818717E-01  0.43967561463E-01  0.51100000000E-03 0.  1.
         11    1    4    4    0    0  0.64440467312E-01 -0.49982731255E-01 -0.51376794532E-01  0.96388191126E-01  0.51100000000E-03 0. -1.
</event>
<event>
 8    1  0.2929965E+004  0.1043930E+01  0.7957747E-01            NaN
         13   -1    0    0    0    0  0.00000000000E+00  0.00000000000E+00  0.74505805969E-08  0.10566000000E+00  0.10566000000E+00 0. -1.
     999900   -1    0    0    0    0 -0.00000000000E+00 -0.00000000000E+00 -0.74505805969E-08  0.93827000000E+00  0.93827000000E+00 0. -1.
     999902    2    1    2    0    0 -0.12667841093E-01  0.33026344901E-02  0.25257695064E-02  0.10305972919E+01  0.10305110465E+01 0.  0.
     999903    2    3    3    0    0 -0.58675332427E-01 -0.10124455209E+00  0.64784864191E-01  0.14103391683E+00  0.44723965654E-01 0.  0.
         14    1    1    2    0    0  0.12667841093E-01 -0.33026344901E-02 -0.25257695064E-02  0.13332708057E-01  0.00000000000E+00 0. -1.
     999901    1    3    3    0    0  0.46007491334E-01  0.10454718658E+00 -0.62259094684E-01  0.88956337512E+00  0.88000000000E+00 0.  1.
        -11    1    4    4    0    0 -0.14736575049E-01 -0.58866492750E-01  0.48949268689E-01  0.77966163423E-01  0.51100000000E-03 0. -1.
         11    1    4    4    0    0 -0.43938757378E-01 -0.42378059339E-01  0.15835595502E-01  0.63067753402E-01  0.51100000000E-03 0.  1.
</event>
<event>
 8    1  0.2929965E+004  0.1043930E+01  0.7957747E-01            NaN
         13   -1    0    0    0    0  0.00000000000E+00  0.00000000000E+00  0.74505805969E-08  0.10566000000E+00  0.10566000000E+00 0.  1.
     999900   -1    0    0    0    0 -0.00000000000E+00 -0.00000000000E+00 -0.74505805969E-08  0.93827000000E+00  0.93827000000E+00 0.  1.
     999902    2    1    2    0    0 -0.20811447109E-01 -0.66400174822E-02 -0.16763865128E-01  0.10163939629E+01  0.10160208928E+01 0.  0.
     999903    2    3    3    0    0 -0.53030257391E-01 -0.69230665427E-02 -0.11039623329E+00  0.13084037776E+00  0.45516360568E-01 0.  0.
         14    1    1    2    0    0  0.20811447109E-01  0.66400174822E-02  0.16763865128E-01  0.27536037060E-01  0.00000000000E+00 0. -1.
     999901    1    3    3    0    0  0.32218810282E-01  0.28304906058E-03  0.93632368161E-01  0.88555358518E+00  0.88000000000E+00 0. -1.
        -11    1    4    4    0    0 -0.44865572468E-01 -0.22225479743E-01 -0.96082249237E-01  0.10834644102E+00  0.51100000000E-03 0. -1.
         11    1    4    4    0    0 -0.81646849227E-02  0.15302413201E-01 -0.14313984052E-01  0.22493936741E-01  0.51100000000E-03 0.  1.
</event>
<event>
 8    1  0.2929965E+004  0.1043930E+01  0.7957747E-01            NaN
         13   -1    0    0    0    0  0.00000000000E+00  0.00000000000E+00  0.74505805969E-08  0.10566000000E+00  0.10566000000E+00 0. -1.
     999900   -1    0    0    0    0 -0.00000000000E+00 -0.00000000000E+00 -0.74505805969E-08  0.93827000000E+00  0.93827000000E+00 0. -1.
     999902    2    1    2    0    0  0.43503032344E-02 -0.31322122762E-02 -0.12182542130E-01  0.10306202207E+01  0.10305342736E+01 0.  0.
     999903    2    3    3    0    0 -0.45755000073E-01  0.93326650239E-01  0.80702258035E-01  0.13908085552E+00  0.45024951357E-01 0.  0.
         14    1    1    2    0    0 -0.43503032344E-02  0.31322122762E-02  0.12182542130E-01  0.13309779289E-01  0.00000000000E+00 0. -1.
     999901    1    3    3    0    0  0.50105303308E-01 -0.96458862515E-01 -0.92884800165E-01  0.89153936519E+00  0.88000000000E+00 0. -1.
        -11    1    4    4    0    0 -0.32706039642E-01  0.76510353535E-01  0.38231424373E-01  0.91571950714E-01  0.51100000000E-03 0.  1.
         11    1    4    4    0    0 -0.13048960431E-01  0.16816296704E-01  0.42470833663E-01  0.47508904809E-01  0.51100000000E-03 0. -1.
</event>
<event>
 8    1  0.2929965E+004  0.1043930E+01  0.7957747E-01            NaN
         13   -1    0    0    0    0  0.00000000000E+00  0.00000000000E+00  0.74505805969E-08  0.10566000000E+00  0.10566000000E+00 0. -1.
     999900   -1    0    0    0    0 -0.00000000000E+00 -0.00000000000E+00 -0.74505805969E-08  0.93827000000E+00  0.93827000000E+00 0. -1.
     999902    2    1    2    0    0 -0.96185228057E-02 -0.52761926150E-02  0.70100322305E-02  0.10309109854E+01  0.10308287758E+01 0.  0.
     999903    2    3    3    0    0  0.67421471186E-01  0.10800324082E+00 -0.34556012655E-01  0.13934207230E+00  0.44852427984E-01 0.  0.
         14    1    1    2    0    0  0.96185228057E-02  0.52761926150E-02 -0.70100322305E-02  0.13019014607E-01  0.00000000000E+00 0.  1.
     999901    1    3    3    0    0 -0.77039993991E-01 -0.11327943344E+00  0.41566044885E-01  0.89156891310E+00  0.88000000000E+00 0.  1.
        -11    1    4    4    0    0  0.10149923083E-01  0.46824684535E-01  0.18988058285E-02  0.47952461929E-01  0.51100000000E-03 0. -1.
         11    1    4    4    0    0  0.57271548103E-01  0.61178556287E-01 -0.36454818483E-01  0.91389610367E-01  0.51100000000E-03 0.  1.
</event>
<event>
 8    1  0.2929965E+004  0.1043930E+01  0.7957747E-01            NaN
         13   -1    0    0    0    0  0.00000000000E+00  0.00000000000E+00  0.74505805969E-08  0.10566000000E+00  0.10566000000E+00 0. -1.
     999900   -1    0    0    0    0 -0.00000000000E+00 -0.00000000000E+00 -0.74505805969E-08  0.93827000000E+00  0.93827000000E+00 0.  1.
     999902    2    1    2    0    0  0.99807588093E-03 -0.10077188828E-01 -0.11445931586E-01  0.10286474858E+01  0.10285339541E+01 0.  0.
     999903    2    3    3    0    0  0.12233251367E+00 -0.47094576760E-01 -0.21484590216E-02  0.13950251686E+00  0.47678016669E-01 0.  0.
         14    1    1    2    0    0 -0.99807588093E-03  0.10077188828E-01  0.11445931586E-01  0.15282514191E-01  0.00000000000E+00 0.  1.
     999901    1    3    3    0    0 -0.12133443779E+00  0.37017387933E-01 -0.92974725643E-02  0.88914496894E+00  0.88000000000E+00 0.  1.
        -11    1    4    4    0    0  0.10449640212E+00 -0.23461387659E-01 -0.13168906787E-01  0.10790558834E+00  0.51100000000E-03 0.  1.
         11    1    4    4    0    0  0.17836111548E-01 -0.23633189101E-01  0.11020447765E-01  0.31596928525E-01  0.51100000000E-03 0. -1.
</event>
<event>
 8    1  0.2929965E+004  0.1043930E+01  0.7957747E-01            NaN
         13   -1    0    0    0    0  0.00000000000E+00  0.00000000000E+00  0.74505805969E-08  0.10566000000E+00  0.10566000000E+00 0.  1.
     999900   -1    0    0    0    0 -0.00000000000E+00 -0.00000000000E+00 -0.74505805969E-08  0.93827000000E+00  0.93827000000E+00 0.  1.
     999902    2    1    2    0    0 -0.40206492328E-02  0.29606831090E-02 -0.14440411606E-01  0.10286507084E+01  0.10285372250E+01 0.  0.
     999903    2    3    3    0    0 -0.90917579984E-04  0.96719820847E-01 -0.91267392611E-01  0.14033285778E+00  0.44820107191E-01 0.  0.
         14    1    1    2    0    0  0.40206492328E-02 -0.29606831090E-02  0.14440411606E-01  0.15279291609E-01  0.00000000000E+00 0.  1.
     999901    1    3    3    0    0 -0.39297316528E-02 -0.93759137738E-01  0.76826981005E-01  0.88831785061E+00  0.88000000000E+00 0. -1.
        -11    1    4    4    0    0  0.19873368853E-01  0.67765764374E-01 -0.68810957186E-01  0.98602021078E-01  0.51100000000E-03 0. -1.
         11    1    4    4    0    0 -0.19964286433E-01  0.28954056473E-01 -0.22456435425E-01  0.41730836704E-01  0.51100000000E-03 0.  1.
</event>
<event>
 8    1  0.2929965E+004  0.1043930E+01  0.7957747E-01            NaN
         13   -1    0    0    0    0  0.00000000000E+00  0.00000000000E+00  0.74505805969E-08  0.10566000000E+00  0.10566000000E+00 0. -1.
     999900   -1    0    0    0    0 -0.00000000000E+00 -0.00000000000E+00 -0.74505805969E-08  0.93827000000E+00  0.93827000000E+00 0.  1.
     999902    2    1    2    0    0 -0.38468906601E-02  0.13094341494E-01  0.29456080454E-02  0.10299680176E+01  0.10298733807E+01 0.  0.
     999903    2    3    3    0    0  0.83565259761E-01 -0.10085381903E+00  0.60881353699E-02  0.13832069782E+00  0.44055698828E-01 0.  0.
         14    1    1    2    0    0  0.38468906601E-02 -0.13094341494E-01 -0.29456080454E-02  0.13961982440E-01  0.00000000000E+00 0.  1.
     999901    1    3    3    0    0 -0.87412150421E-01  0.11394816053E+00 -0.31425273245E-02  0.89164731974E+00  0.88000000000E+00 0.  1.
        -11    1    4    4    0    0  0.42355389352E-02 -0.25506762960E-01 -0.10012999927E-01  0.27731859571E-01  0.51100000000E-03 0.  1.
         11    1    4    4    0    0  0.79329720826E-01 -0.75347056074E-01  0.16101135297E-01  0.11058883824E+00  0.51100000000E-03 0. -1.
</event>
<event>
 8    1  0.2929965E+004  0.1043930E+01  0.7957747E-01            NaN
         13   -1    0    0    0    0  0.00000000000E+00  0.00000000000E+00  0.74505805969E-08  0.10566000000E+00  0.10566000000E+00 0. -1.
     999900   -1    0    0    0    0 -0.00000000000E+00 -0.00000000000E+00 -0.74505805969E-08  0.93827000000E+00  0.93827000000E+00 0. -1.
     999902    2    1    2    0    0 -0.29459825413E-03  0.68942044596E-02  0.11069996589E-01  0.10308853970E+01  0.10308028619E+01 0.  0.
     999903    2    3    3    0    0 -0.13037352311E+00  0.43529773754E-03  0.30324466656E-01  0.14109161257E+00  0.44607452845E-01 0.  0.
         14    1    1    2    0    0  0.29459825413E-03 -0.68942044596E-02 -0.11069996589E-01  0.13044603012E-01  0.00000000000E+00 0.  1.
     999901    1    3    3    0    0  0.13007892485E+00  0.64589067221E-02 -0.19254470067E-01  0.88979378442E+00  0.88000000000E+00 0.  1.
        -11    1    4    4    0    0 -0.48828229583E-01 -0.42972827616E-02  0.33454574403E-01  0.59347555239E-01  0.51100000000E-03 0. -1.
         11    1    4    4    0    0 -0.81545293522E-01  0.47325804991E-02 -0.31301077471E-02  0.81744057333E-01  0.51100000000E-03 0.  1.
</event>
<event>
 8    1  0.2929965E+004  0.1043930E+01  0.7957747E-01            NaN
         13   -1    0    0    0    0  0.00000000000E+00  0.00000000000E+00  0.74505805969E-08  0.10566000000E+00  0.10566000000E+00 0. -1.
     999900   -1    0    0    0    0 -0.00000000000E+00 -0.00000000000E+00 -0.74505805969E-08  0.93827000000E+00  0.93827000000E+00 0.  1.
     999902    2    1    2    0    0 -0.64058508124E-02  0.10624754164E-01 -0.29085786883E-02  0.10311871528E+01  0.10311084152E+01 0.  0.
     999903    2    3    3    0    0 -0.99249105344E-01 -0.77761492035E-01  0.47544694987E-01  0.14046972773E+00  0.39673817978E-01 0.  0.
         14    1    1    2    0    0  0.64058508124E-02 -0.10624754164E-01  0.29085786883E-02  0.12742847236E-01  0.00000000000E+00 0. -1.
     999901    1    3    3    0    0  0.92843254532E-01  0.88386246199E-01 -0.50453273676E-01  0.89071742503E+00  0.88000000000E+00 0. -1.
        -11    1    4    4    0    0 -0.35310793945E-01 -0.19414769855E-01  0.34263278332E-01  0.52896302523E-01  0.51100000000E-03 0.  1.
         11    1    4    4    0    0 -0.63938311400E-01 -0.58346722179E-01  0.13281416655E-01  0.87573425210E-01  0.51100000000E-03 0. -1.
</event>
<event>
 8    1  0.2929965E+004  0.1043930E+01  0.7957747E-01            NaN
         13   -1    0    0    0    0  0.00000000000E+00  0.00000000000E+00  0.74505805969E-08  0.10566000000E+00  0.10566000000E+00 0.  1.
     999900   -1    0    0    0    0 -0.00000000000E+00 -0.00000000000E+00 -0.74505805969E-08  0.93827000000E+00  0.93827000000E+00 0. -1.
     999902    2    1    2    0    0  0.85985033459E-02  0.37144743000E-02  0.11815567297E-01  0.10288522280E+01  0.10287417401E+01 0.  0.
     999903    2    3    3    0    0 -0.85264215982E-01 -0.79328854024E-01  0.59775964506E-01  0.13867999510E+00  0.45781235242E-01 0.  0.
         14    1    1    2    0    0 -0.85985033459E-02 -0.37144743000E-02 -0.11815567297E-01  0.15077772039E-01  0.00000000000E+00 0. -1.
     999901    1    3    3    0    0  0.93862719328E-01  0.83043328324E-01 -0.47960397209E-01  0.89017223286E+00  0.88000000000E+00 0. -1.
        -11    1    4    4    0    0 -0.54965704430E-01 -0.37678339807E-01  0.10623924746E-01  0.67483441317E-01  0.51100000000E-03 0.  1.
         11    1    4    4    0    0 -0.30298511552E-01 -0.41650514217E-01  0.49152039759E-01  0.71196553781E-01  0.51100000000E-03 0. -1.
</event>
<event>
 8    1  0.2929965E+004  0.1043930E+01  0.7957747E-01            NaN
         13   -1    0    0    0    0  0.00000000000E+00  0.00000000000E+00  0.74505805969E-08  0.10566000000E+00  0.10566000000E+00 0. -1.
     999900   -1    0    0    0    0 -0.00000000000E+00 -0.00000000000E+00 -0.74505805969E-08  0.93827000000E+00  0.93827000000E+00 0. -1.
     999902    2    1    2    0    0 -0.15615506400E-01 -0.65868432017E-02 -0.18077282148E-02  0.10268859857E+01  0.10267445296E+01 0.  0.
     999903    2    3    3    0    0  0.12394729319E-01  0.80055277459E-01  0.10083738768E+00  0.13625281191E+00  0.42827248739E-01 0.  0.
         14    1    1    2    0    0  0.15615506400E-01  0.65868432017E-02  0.18077282148E-02  0.17044014339E-01  0.00000000000E+00 0.  1.
     999901    1    3    3    0    0 -0.28010235719E-01 -0.86642120661E-01 -0.10264511589E+00  0.89063317376E+00  0.88000000000E+00 0. -1.
        -11    1    4    4    0    0 -0.21643189848E-03  0.61650908407E-01  0.45620215888E-01  0.76696457342E-01  0.51100000000E-03 0.  1.
         11    1    4    4    0    0  0.12611161218E-01  0.18404369053E-01  0.55217171789E-01  0.59556354564E-01  0.51100000000E-03 0. -1.
</event>
<event>
 8    1  0.2929965E+004  0.1043930E+01  0.7957747E-01            NaN
         13   -1    0    0    0    0  0.00000000000E+00  0.00000000000E+00  0.74505805969E-08  0.10566000000E+00  0.10566000000E+00 0.  1.
     999900   -1    0    0    0    0 -0.00000000000E+00 -0.00000000000E+00 -0.74505805969E-08  0.93827000000E+00  0.93827000000E+00 0.  1.
     999902    2    1    2    0    0  0.11151161929E-01 -0.17769403256E-02 -0.75755098360E-02  0.10303324164E+01  0.10302426870E+01 0.  0.
     999903    2    3    3    0    0  0.66039371958E-01  0.72104841265E-02  0.11507167489E+00  0.14008760668E+00  0.44383076195E-01 0.  0.
         14    1    1    2    0    0 -0.11151161929E-01  0.17769403256E-02  0.75755098360E-02  0.13597583556E-01  0.00000000000E+00 0.  1.
     999901    1    3    3    0    0 -0.54888210029E-01 -0.89874244521E-02 -0.12264718472E+00  0.89024480977E+00  0.88000000000E+00 0.  1.
        -11    1    4    4    0    0  0.24037360539E-01  0.17813495498E-01  0.21110872099E-01  0.36620286253E-01  0.51100000000E-03 0.  1.
         11    1    4    4    0    0  0.42002011419E-01 -0.10603011372E-01  0.93960802790E-01  0.10346732042E+00  0.51100000000E-03 0. -1.
</event>
<event>
 8    1  0.2929965E+004  0.1043930E+01  0.7957747E-01            NaN
         13   -1    0    0    0    0  0.00000000000E+00  0.00000000000E+00  0.74505805969E-08  0.10566000000E+00  0.10566000000E+00 0.  1.
     999900   -1    0    0    0    0 -0.00000000000E+00 -0.00000000000E+00 -0.74505805969E-08  0.93827000000E+00  0.93827000000E+00 0.  1.
     999902    2    1    2    0    0 -0.75865755472E-02 -0.46374272074E-02 -0.12660790951E-01  0.10284588175E+01  0.10283424439E+01 0.  0.
     999903    2    3    3    0    0  0.11395800168E+00 -0.40206047772E-01 -0.57286220567E-01  0.13827364578E+00  0.35141679326E-01 0.  0.
         14    1    1    2    0    0  0.75865755472E-02  0.46374272074E-02  0.12660790951E-01  0.15471182474E-01  0.00000000000E+00 0.  1.
     999901    1    3    3    0    0 -0.12154457723E+00  0.35568620565E-01  0.44625429616E-01  0.89018517174E+00  0.88000000000E+00 0. -1.
        -11    1    4    4    0    0  0.10483667727E+00 -0.24743389162E-01 -0.51567113809E-01  0.11942525929E+00  0.51100000000E-03 0.  1.
         11    1    4    4    0    0  0.91213244146E-02 -0.15462658611E-01 -0.57191067585E-02  0.18848386496E-01  0.51100000000E-03 0. -1.
</event>
<event>
 8    1  0.2929965E+004  0.1043930E+01  0.7957747E-01            NaN
         13   -1    0    0    0    0  0.00000000000E+00  0.00000000000E+00  0.74505805969E-08  0.10566000000E+00  0.10566000000E+00 0. -1.
     999900   -1    0    0    0    0 -0.00000000000E+00 -0.00000000000E+00 -0.74505805969E-08  0.93827000000E+00  0.93827000000E+00 0. -1.
     999902    2    1    2    0    0 -0.43576703950E-02  0.98469671501E-02 -0.60979029427E-02  0.10315551677E+01  0.10314809390E+01 0.  0.
     999903    2    3    3    0    0  0.49582839510E-01  0.48459734779E-01 -0.11658308498E+00  0.14216914362E+00  0.42586920852E-01 0.  0.
         14    1    1    2    0    0  0.43576703950E-02 -0.98469671501E-02  0.60979029427E-02  0.12374832267E-01  0.00000000000E+00 0. -1.
     999901    1    3    3    0    0 -0.53940509905E-01 -0.38612767629E-01  0.11048518203E+00  0.88938602411E+00  0.88000000000E+00 0.  1.
        -11    1    4    4    0    0 -0.43520153073E-03  0.19631981048E-01 -0.51769930141E-01  0.55371390339E-01  0.51100000000E-03 0. -1.
         11    1    4    4    0    0  0.50018041041E-01  0.28827753730E-01 -0.64813154834E-01  0.86797753285E-01  0.51100000000E-03 0.  1.
</event>
<event>
 8    1  0.2929965E+004  0.1043930E+01  0.7957747E-01            NaN
         13   -1    0    0    0    0  0.00000000000E+00  0.00000000000E+00  0.74505805969E-08  0.10566000000E+00  0.10566000000E+00 0. -1.
     999900   -1    0    0    0    0 -0.00000000000E+00 -0.00000000000E+00 -0.74505805969E-08  0.93827000000E+00  0.93827000000E+00 0.  1.
     999902    2    1    2    0    0 -0.82730936361E-02  0.66102610754E-02  0.93275540823E-02  0.10298182002E+01  0.10297215072E+01 0.  0.
     999903    2    3    3    0    0 -0.15022457735E-01 -0.78770533053E-01  0.10619816777E+00  0.14036929790E+00  0.44665622602E-01 0.  0.
         14    1    1    2    0    0  0.82730936361E-02 -0.66102610754E-02 -0.93275540823E-02  0.14111799848E-01  0.00000000000E+00 0.  1.
     999901    1    3    3    0    0  0.67493640987E-02  0.85380794128E-01 -0.96870613683E-01  0.88944890225E+00  0.88000000000E+00 0.  1.
        -11    1    4    4    0    0 -0.19090250442E-01 -0.29127823559E-01  0.18316628488E-01  0.39352608139E-01  0.51100000000E-03 0.  1.
         11    1    4    4    0    0  0.40677927074E-02 -0.49642709494E-01  0.87881539278E-01  0.10101668976E+00  0.51100000000E-03 0. -1.
</event>
<event>
 8    1  0.2929965E+004  0.1043930E+01  0.7957747E-01            NaN
         13   -1    0    0    0    0  0.00000000000E+00  0.00000000000E+00  0.74505805969E-08  0.10566000000E+00  0.10566000000E+00 0.  1.
     999900   -1    0    0    0    0 -0.00000000000E+00 -0.00000000000E+00 -0.74505805969E-08  0.93827000000E+00  0.93827000000E+00 0.  1.
     999902    2    1    2    0    0  0.10520592058E-01  0.91959473422E-02 -0.32725400364E-02  0.10295787693E+01  0.10294787440E+01 0.  0.
     999903    2    3    3    0    0  0.12154384427E+00  0.13022089354E-01 -0.54103980504E-01  0.14113933002E+00  0.45283428346E-01 0.  0.
         14    1    1    2    0    0 -0.10520592058E-01 -0.91959473422E-02  0.32725400364E-02  0.14351230716E-01  0.00000000000E+00 0. -1.
     999901    1    3    3    0    0 -0.11102325221E+00 -0.38261420118E-02  0.50831440467E-01  0.88843943926E+00  0.88000000000E+00 0.  1.
        -11    1    4    4    0    0  0.35508761979E-01  0.94528999012E-02 -0.39229382634E-01  0.53753465717E-01  0.51100000000E-03 0.  1.
         11    1    4    4    0    0  0.86035082288E-01  0.35691894528E-02 -0.14874597870E-01  0.87385864306E-01  0.51100000000E-03 0. -1.
</event>
<event>
 7    1  0.2929965E+004  0.1043930E+01  0.7957747E-01            NaN
         13   -1    0    0    0    0  0.00000000000E+00  0.00000000000E+00  0.74505805969E-08  0.10566000000E+00  0.10566000000E+00 0. -1.
     999900   -1    0    0    0    0 -0.00000000000E+00 -0.00000000000E+00 -0.74505805969E-08  0.93827000000E+00  0.93827000000E+00 0.  1.
     999903    2    1    2    0    0 -0.90983234209E-01 -0.24532821199E-01 -0.11010188710E-01  0.10508828296E+00  0.45194189205E-01 0.  0.
         14    1    1    2    0    0 -0.27437939491E-01  0.63756371302E-02  0.41550513938E-01  0.50198949001E-01  0.00000000000E+00 0. -1.
     999901    1    1    2    0    0  0.11842117370E+00  0.18157184068E-01 -0.30540325228E-01  0.88864276803E+00  0.88000000000E+00 0. -1.
        -11    1    3    3    0    0 -0.27420371121E-01 -0.61800791625E-02 -0.24819474271E-01  0.37501167381E-01  0.51100000000E-03 0.  1.
         11    1    3    3    0    0 -0.63562863088E-01 -0.18352742036E-01  0.13809285561E-01  0.67587115584E-01  0.51100000000E-03 0. -1.
</event>
<event>
 8    1  0.2929965E+004  0.1043930E+01  0.7957747E-01            NaN
         13   -1    0    0    0    0  0.00000000000E+00  0.00000000000E+00  0.74505805969E-08  0.10566000000E+00  0.10566000000E+00 0.  1.
     999900   -1    0    0    0    0 -0.00000000000E+00 -0.00000000000E+00 -0.74505805969E-08  0.93827000000E+00  0.93827000000E+00 0. -1.
     999902    2    1    2    0    0  0.25582563758E-02  0.12928006170E-01  0.46559403078E-02  0.10299530261E+01  0.10298581845E+01 0.  0.
     999903    2    3    3    0    0 -0.11695325512E+00  0.63583003457E-01  0.26937355461E-03  0.14042046790E+00  0.44687504200E-01 0.  0.
         14    1    1    2    0    0 -0.25582563758E-02 -0.12928006170E-01 -0.46559403078E-02  0.13976973898E-01  0.00000000000E+00 0. -1.
     999901    1    3    3    0    0  0.11951151150E+00 -0.50654997287E-01  0.43865667532E-02  0.88953255820E+00  0.88000000000E+00 0.  1.
        -11    1    4    4    0    0 -0.75418412690E-01  0.22529736343E-01 -0.14830269632E-01  0.80098214778E-01  0.51100000000E-03 0.  1.
         11    1    4    4    0    0 -0.41534842431E-01  0.41053267114E-01  0.15099643186E-01  0.60322253123E-01  0.51100000000E-03 0. -1.
</event>
<event>
 8    1  0.2929965E+004  0.1043930E+01  0.7957747E-01            NaN
         13   -1    0    0    0    0  0.00000000000E+00  0.00000000000E+00  0.74505805969E-08  0.10566000000E+00  0.10566000000E+00 0.  1.
     999900   -1    0    0    0    0 -0.00000000000E+00 -0.00000000000E+00 -0.74505805969E-08  0.93827000000E+00  0.93827000000E+00 0.  1.
     999902    2    1    2    0    0  0.37562577229E-02  0.37447730189E-02 -0.11763380347E-01  0.10310261279E+01  0.10309453752E+01 0.  0.
     999903    2    3    3    0    0 -0.12131667362E+00  0.36797041135E-01 -0.41518185413E-01  0.14107048915E+00  0.45884263692E-01 0.  0.
         14    1    1    2    0    0 -0.37562577229E-02 -0.37447730189E-02  0.11763380347E-01  0.12903872063E-01  0.00000000000E+00 0.  1.
     999901    1    3    3    0    0  0.12507293134E+00 -0.33052268116E-01  0.29754805066E-01  0.88995563879E+00  0.88000000000E+00 0.  1.
        -11    1    4    4    0    0 -0.67005078801E-02  0.12962159112E-01  0.45047007555E-02  0.15279653943E-01  0.51100000000E-03 0.  1.
         11    1    4    4    0    0 -0.11461616574E+00  0.23834882023E-01 -0.46022886168E-01  0.12579083521E+00  0.51100000000E-03 0. -1.
</event>
<event>
 8    1  0.2929965E+004  0.1043930E+01  0.7957747E-01            NaN
         13   -1    0    0    0    0  0.00000000000E+00  0.00000000000E+00  0.74505805969E-08  0.10566000000E+00  0.10566000000E+00 0.  1.
     999900   -1    0    0    0    0 -0.00000000000E+00 -0.00000000000E+00 -0.74505805969E-08  0.93827000000E+00  0.93827000000E+00 0. -1.
     999902    2    1    2    0    0 -0.74265875458E-02 -0.11674165313E-01 -0.76094912904E-02  0.10281393478E+01  0.10280180805E+01 0.  0.
     999903    2    3    3    0    0  0.31263669066E-01 -0.93370599436E-01  0.86638602900E-01  0.13850237323E+00  0.44510381222E-01 0.  0.
         14    1    1    2    0    0  0.74265875458E-02  0.11674165313E-01  0.76094912904E-02  0.15790652173E-01  0.00000000000E+00 0.  1.
     999901    1    3    3    0    0 -0.38690256611E-01  0.81696434123E-01 -0.94248094190E-01  0.88963697459E+00  0.88000000000E+00 0. -1.
        -11    1    4    4    0    0  0.35061110331E-01 -0.36636636442E-01  0.34337567874E-01  0.61244218306E-01  0.51100000000E-03 0.  1.
         11    1    4    4    0    0 -0.37974412649E-02 -0.56733962994E-01  0.52301035025E-01  0.77258154928E-01  0.51100000000E-03 0. -1.
</event>
<event>
 8    1  0.2929965E+004  0.1043930E+01  0.7957747E-01            NaN
         13   -1    0    0    0    0  0.00000000000E+00  0.00000000000E+00  0.74505805969E-08  0.10566000000E+00  0.10566000000E+00 0.  1.
     999900   -1    0    0    0    0 -0.00000000000E+00 -0.00000000000E+00 -0.74505805969E-08  0.93827000000E+00  0.93827000000E+00 0. -1.
     999902    2    1    2    0    0 -0.72290688479E-02  0.79811164498E-02 -0.91094928224E-02  0.10298253725E+01  0.10297287786E+01 0.  0.
     999903    2    3    3    0    0 -0.36283403770E-01  0.10491843754E+00  0.73273853191E-01  0.14020297270E+00  0.44310857233E-01 0.  0.
         14    1    1    2    0    0  0.72290688479E-02 -0.79811164498E-02  0.91094928224E-02  0.14104627456E-01  0.00000000000E+00 0.  1.
     999901    1    3    3    0    0  0.29054334922E-01 -0.96937321089E-01 -0.82383346013E-01  0.88962239984E+00  0.88000000000E+00 0. -1.
        -11    1    4    4    0    0 -0.24547642358E-01  0.77794778648E-01  0.28224015872E-01  0.86321900600E-01  0.51100000000E-03 0.  1.
         11    1    4    4    0    0 -0.11735761411E-01  0.27123658891E-01  0.45049837319E-01  0.53881072104E-01  0.51100000000E-03 0. -1.
</event>
<event>
 8    1  0.2929965E+004  0.1043930E+01  0.7957747E-01            NaN
         13   -1    0    0    0    0  0.00000000000E+00  0.00000000000E+00  0.74505805969E-08  0.10566000000E+00  0.10566000000E+00 0. -1.
     999900   -1    0    0    0    0 -0.00000000000E+00 -0.00000000000E+00 -0.74505805969E-08  0.93827000000E+00  0.93827000000E+00 0. -1.
     999902    2    1    2    0    0 -0.11137714817E-01  0.36109965763E-02  0.78610937934E-02  0.10298273484E+01  0.10297307816E+01 0.  0.
     999903    2    3    3    0    0 -0.67076888187E-01  0.88115924749E-01 -0.73638080296E-01  0.14026993628E+00  0.44602276090E-01 0.  0.
         14    1    1    2    0    0  0.11137714817E-01 -0.36109965763E-02 -0.78610937934E-02  0.14102651639E-01  0.00000000000E+00 0. -1.
     999901    1    3    3    0    0  0.55939173370E-01 -0.84504928173E-01  0.81499174089E-01  0.88955741208E+00  0.88000000000E+00 0. -1.
        -11    1    4    4    0    0 -0.48081930029E-01  0.31959700485E-01 -0.50242035648E-01  0.76536381659E-01  0.51100000000E-03 0. -1.
         11    1    4    4    0    0 -0.18994958158E-01  0.56156224265E-01 -0.23396044648E-01  0.63733554626E-01  0.51100000000E-03 0.  1.
</event>
<event>
 8    1  0.2929965E+004  0.1043930E+01  0.7957747E-01            NaN
         13   -1    0    0    0    0  0.00000000000E+00  0.00000000000E+00  0.74505805969E-08  0.10566000000E+00  0.10566000000E+00 0.  1.
     999900   -1    0    0    0    0 -0.00000000000E+00 -0.00000000000E+00 -0.74505805969E-08  0.93827000000E+00  0.93827000000E+00 0.  1.
     999902    2    1    2    0    0  0.56739821197E-02  0.61620772684E-03  0.13217600127E-01  0.10295328219E+01  0.10294321505E+01 0.  0.
     999903    2    3    3    0    0 -0.93746824307E-01  0.80790534907E-01  0.47203518077E-01  0.13966347072E+00  0.44295996851E-01 0.  0.
         14    1    1    2    0    0 -0.56739821197E-02 -0.61620772684E-03 -0.13217600127E-01  0.14397178132E-01  0.00000000000E+00 0. -1.
     999901    1    3    3    0    0  0.99420806427E-01 -0.80174327180E-01 -0.33985917950E-01  0.88986935115E+00  0.88000000000E+00 0.  1.
        -11    1    4    4    0    0 -0.66152000905E-01  0.80018818720E-01  0.38010446763E-01  0.11056289503E+00  0.51100000000E-03 0. -1.
         11    1    4    4    0    0 -0.27594823402E-01  0.77171618676E-03  0.91930713147E-02  0.29100575693E-01  0.51100000000E-03 0.  1.
</event>
<event>
 8    1  0.2929965E+004  0.1043930E+01  0.7957747E-01            NaN
         13   -1    0    0    0    0  0.00000000000E+00  0.00000000000E+00  0.74505805969E-08  0.10566000000E+00  0.10566000000E+00 0. -1.
     999900   -1    0    0    0    0 -0.00000000000E+00 -0.00000000000E+00 -0.74505805969E-08  0.93827000000E+00  0.93827000000E+00 0.  1.
     999902    2    1    2    0    0  0.22505937253E-02  0.35810990555E-02  0.13357164315E-01  0.10299191727E+01  0.10298238680E+01 0.  0.
     999903    2    3    3    0    0  0.12625782146E+00 -0.14435957655E-01 -0.36572581757E-01  0.13964090925E+00  0.44861959906E-01 0.  0.
         14    1    1    2    0    0 -0.22505937253E-02 -0.35810990555E-02 -0.13357164315E-01  0.14010827281E-01  0.00000000000E+00 0.  1.
     999901    1    3    3    0    0 -0.12400722773E+00  0.18017056711E-01  0.49929746072E-01  0.89027826347E+00  0.88000000000E+00 0.  1.
        -11    1    4    4    0    0  0.28915143594E-01  0.45183182419E-02 -0.27317878321E-01  0.40037836177E-01  0.51100000000E-03 0. -1.
         11    1    4    4    0    0  0.97342677866E-01 -0.18954275897E-01 -0.92547034366E-02  0.99603073073E-01  0.51100000000E-03 0.  1.
</event>
<event>
 8    1  0.2929965E+004  0.1043930E+01  0.7957747E-01            NaN
         13   -1    0    0    0    0  0.00000000000E+00  0.00000000000E+00  0.74505805969E-08  0.10566000000E+00  0.10566000000E+00 0.  1.
     999900   -1    0    0    0    0 -0.00000000000E+00 -0.00000000000E+00 -0.74505805969E-08  0.93827000000E+00  0.93827000000E+00 0. -1.
     999902    2    1    2    0    0  0.13422484093E-01 -0.28666990884E-02 -0.20779227155E-02  0.10300484005E+01  0.10299548575E+01 0.  0.
     999903    2    3    3    0    0 -0.76715493272E-01  0.10425130068E+00 -0.21212516302E-01  0.13877669469E+00  0.45336514435E-01 0.  0.
         14    1    1    2    0    0 -0.13422484093E-01  0.28666990884E-02  0.20779227155E-02  0.13881599537E-01  0.00000000000E+00 0.  1.
     999901    1    3    3    0    0  0.90137977365E-01 -0.10711799976E+00  0.19134593586E-01  0.89127170577E+00  0.88000000000E+00 0.  1.
        -11    1    4    4    0    0 -0.69635528667E-01  0.59174627021E-01 -0.16987770201E-01  0.92949388342E-01  0.51100000000E-03 0. -1.
         11    1    4    4    0    0 -0.70799646047E-02  0.45076673655E-01 -0.42247461006E-02  0.45827306349E-01  0.51100000000E-03 0.  1.
</event>
<event>
 8    1  0.2929965E+004  0.1043930E+01  0.7957747E-01            NaN
         13   -1    0    0    0    0  0.00000000000E+00  0.00000000000E+00  0.74505805969E-08  0.10566000000E+00  0.10566000000E+00 0. -1.
     999900   -1    0    0    0    0 -0.00000000000E+00 -0.00000000000E+00 -0.74505805969E-08  0.93827000000E+00  0.93827000000E+00 0. -1.
     999902    2    1    2    0    0  0.10567918331E-01  0.20730534052E-02 -0.38668673706E-02  0.10324874867E+01  0.10324240790E+01 0.  0.
     999903    2    3    3    0    0 -0.64818159427E-01 -0.75467859913E-01  0.89681379043E-01  0.14094560410E+00  0.43887605260E-01 0.  0.
         14    1    1    2    0    0 -0.10567918331E-01 -0.20730534052E-02  0.38668673706E-02  0.11442513340E-01  0.00000000000E+00 0.  1.
     999901    1    3    3    0    0  0.75386077759E-01  0.77540913319E-01 -0.93548246414E-01  0.89154188256E+00  0.88000000000E+00 0. -1.
        -11    1    4    4    0    0 -0.93991099849E-02 -0.23410022083E-01  0.48016001824E-01  0.54241773151E-01  0.51100000000E-03 0.  1.
         11    1    4    4    0    0 -0.55419049443E-01 -0.52057837830E-01  0.41665377220E-01  0.86703830945E-01  0.51100000000E-03 0. -1.
</event>
<event>
 8    1  0.2929965E+004  0.1043930E+01  0.7957747E-01            NaN
         13   -1    0    0    0    0  0.00000000000E+00  0.00000000000E+00  0.74505805969E-08  0.10566000000E+00  0.10566000000E+00 0. -1.
     999900   -1    0    0    0    0 -0.00000000000E+00 -0.00000000000E+00 -0.74505805969E-08  0.93827000000E+00  0.93827000000E+00 0.  1.
     999902    2    1    2    0    0  0.34637561257E-02  0.12952320507E-01 -0.99210671315E-03  0.10304858753E+01  0.10303981729E+01 0.  0.
     999903    2    3    3    0    0  0.49824283489E-01  0.55342758080E-01 -0.11136049551E+00  0.14136978112E+00  0.45155010317E-01 0.  0.
         14    1    1    2    0    0 -0.34637561257E-02 -0.12952320507E-01  0.99210671315E-03  0.13444124692E-01  0.00000000000E+00 0.  1.
     999901    1    3    3    0    0 -0.46360527363E-01 -0.42390437573E-01  0.11036838880E+00  0.88911609419E+00  0.88000000000E+00 0. -1.
        -11    1    4    4    0    0  0.25369862561E-01 -0.11167008298E-02 -0.28749610349E-01  0.38362457733E-01  0.51100000000E-03 0.  1.
         11    1    4    4    0    0  0.24454420927E-01  0.56459458909E-01 -0.82610885163E-01  0.10300732339E+00  0.51100000000E-03 0. -1.
</event>
<event>
 8    1  0.2929965E+004  0.1043930E+01  0.7957747E-01            NaN
         13   -1    0    0    0    0  0.00000000000E+00  0.00000000000E+00  0.74505805969E-08  0.10566000000E+00  0.10566000000E+00 0.  1.
     999900   -1    0    0    0    0 -0.00000000000E+00 -0.00000000000E+00 -0.74505805969E-08  0.93827000000E+00  0.93827000000E+00 0.  1.
     999902    2    1    2    0    0 -0.42462900671E-02  0.11497128218E-01 -0.71831140307E-02  0.10297239427E+01  0.10296259448E+01 0.  0.
     999903    2    3    3    0    0 -0.43101205939E-01  0.76869728487E-01 -0.10105071346E+00  0.14147037104E+00  0.45121503524E-01 0.  0.
         14    1    1    2    0    0  0.42462900671E-02 -0.11497128218E-01  0.71831140307E-02  0.14206057292E-01  0.00000000000E+00 0.  1.
     999901    1    3    3    0    0  0.38854915872E-01 -0.65372600269E-01  0.93867599433E-01  0.88825357167E+00  0.88000000000E+00 0. -1.
        -11    1    4    4    0    0 -0.48010372535E-02  0.11497672127E-01  0.29332573377E-02  0.12810602743E-01  0.51100000000E-03 0. -1.
         11    1    4    4    0    0 -0.38300168686E-01  0.65372056360E-01 -0.10398397080E+00  0.12865976830E+00  0.51100000000E-03 0.  1.
</event>
<event>
 8    1  0.2929965E+004  0.1043930E+01  0.7957747E-01            NaN
         13   -1    0    0    0    0  0.00000000000E+00  0.00000000000E+00  0.74505805969E-08  0.10566000000E+00  0.10566000000E+00 0.  1.
     999900   -1    0    0    0    0 -0.00000000000E+00 -0.00000000000E+00 -0.74505805969E-08  0.93827000000E+00  0.93827000000E+00 0.  1.
     999902    2    1    2    0    0 -0.98315149337E-02 -0.23684124102E-02 -0.43112885311E-02  0.10329365805E+01  0.10328780780E+01 0.  0.
     999903    2    3    3    0    0  0.12244876012E+00  0.11373791322E-01  0.52457801909E-01  0.14113522990E+00  0.45213605846E-01 0.  0.
         14    1    1    2    0    0  0.98315149337E-02  0.23684124102E-02  0.43112885311E-02  0.10993419488E-01  0.00000000000E+00 0.  1.
     999901    1    3    3    0    0 -0.13228027505E+00 -0.13742203732E-01 -0.56769090440E-01  0.89180135062E+00  0.88000000000E+00 0.  1.
        -11    1    4    4    0    0  0.87468406312E-01 -0.12938427710E-01  0.35464409214E-01  0.95268622622E-01  0.51100000000E-03 0.  1.
         11    1    4    4    0    0  0.34980353805E-01  0.24312219032E-01  0.16993392695E-01  0.45866607275E-01  0.51100000000E-03 0. -1.
</event>
<event>
 8    1  0.2929965E+004  0.1043930E+01  0.7957747E-01            NaN
         13   -1    0    0    0    0  0.00000000000E+00  0.00000000000E+00  0.74505805969E-08  0.10566000000E+00  0.10566000000E+00 0. -1.
     999900   -1    0    0    0    0 -0.00000000000E+00 -0.00000000000E+00 -0.74505805969E-08  0.93827000000E+00  0.93827000000E+00 0.  1.
     999902    2    1    2    0    0  0.87710000496E-02  0.60398917303E-02 -0.96780753484E-02  0.10295398688E+01  0.10294392967E+01 0.  0.
     999903    2    3    3    0    0  0.24362987889E-01  0.53561358125E-01 -0.12004188336E+00  0.14123723456E+00  0.45557967487E-01 0.  0.
         14    1    1    2    0    0 -0.87710000496E-02 -0.60398917303E-02  0.96780753484E-02  0.14390131217E-01  0.00000000000E+00 0. -1.
     999901    1    3    3    0    0 -0.15591987839E-01 -0.47521466395E-01  0.11036380801E+00  0.88830263423E+00  0.88000000000E+00 0. -1.
        -11    1    4    4    0    0  0.33374241483E-01  0.18417975224E-01 -0.60305590330E-01  0.71344846710E-01  0.51100000000E-03 0.  1.
         11    1    4    4    0    0 -0.90112535944E-02  0.35143382901E-01 -0.59736293031E-01  0.69892387848E-01  0.51100000000E-03 0. -1.
</event>
<event>
 8    1  0.2929965E+004  0.1043930E+01  0.7957747E-01            NaN
         13   -1    0    0    0    0  0.00000000000E+00  0.00000000000E+00  0.74505805969E-08  0.10566000000E+00  0.10566000000E+00 0. -1.
     999900   -1    0    0    0    0 -0.00000000000E+00 -0.00000000000E+00 -0.74505805969E-08  0.93827000000E+00  0.93827000000E+00 0. -1.
     999902    2    1    2    0    0 -0.35361117022E-02 -0.41328294033E-02 -0.11467584990E-01  0.10312378816E+01  0.10311597735E+01 0.  0.
     999903    2    3    3    0    0  0.10227960403E+00  0.83570397646E-01 -0.18994022927E-01  0.14053845471E+00  0.44103917987E-01 0.  0.
         14    1    1    2    0    0  0.35361117022E-02  0.41328294033E-02  0.11467584990E-01  0.12692118434E-01  0.00000000000E+00 0. -1.
     999901    1    3    3    0    0 -0.10581571574E+00 -0.87703227049E-01  0.75264379367E-02  0.89069942685E+00  0.88000000000E+00 0. -1.
        -11    1    4    4    0    0  0.36647826501E-01  0.42842897474E-01 -0.27678129089E-01  0.62808574272E-01  0.51100000000E-03 0.  1.
         11    1    4    4    0    0  0.65631777532E-01  0.40727500172E-01  0.86841061618E-02  0.77729880439E-01  0.51100000000E-03 0. -1.
</event>
<event>
 8    1  0.2929965E+004  0.1043930E+01  0.7957747E-01            NaN
         13   -1    0    0    0    0  0.00000000000E+00  0.00000000000E+00  0.74505805969E-08  0.10566000000E+00  0.10566000000E+00 0.  1.
     999900   -1    0    0    0    0 -0.00000000000E+00 -0.00000000000E+00 -0.74505805969E-08  0.93827000000E+00  0.93827000000E+00 0. -1.
     999902    2    1    2    0    0  0.77993961317E-02 -0.28341725288E-02 -0.11696163748E-01  0.10295890321E+01  0.10294891508E+01 0.  0.
     999903    2    3    3    0    0 -0.12143672260E+00  0.48033871769E-01 -0.90401888640E-02  0.13869252491E+00  0.45823149371E-01 0.  0.
         14    1    1    2    0    0 -0.77993961317E-02  0.28341725288E-02  0.11696163748E-01  0.14340967902E-01  0.00000000000E+00 0.  1.
     999901    1    3    3    0    0  0.12923611873E+00 -0.50868044298E-01 -0.26559748836E-02  0.89089650719E+00  0.88000000000E+00 0.  1.
        -11    1    4    4    0    0 -0.85340012980E-01  0.51071037819E-01  0.56118867241E-02  0.99613870083E-01  0.51100000000E-03 0.  1.
         11    1    4    4    0    0 -0.36096709622E-01 -0.30371660504E-02 -0.14652075588E-01  0.39078654828E-01  0.51100000000E-03 0. -1.
</event>
<event>
 8    1  0.2929965E+004  0.1043930E+01  0.7957747E-01            NaN
         13   -1    0    0    0    0  0.00000000000E+00  0.00000000000E+00  0.74505805969E-08  0.10566000000E+00  0.10566000000E+00 0.  1.
     999900   -1    0    0    0    0 -0.00000000000E+00 -0.00000000000E+00 -0.74505805969E-08  0.93827000000E+00  0.93827000000E+00 0. -1.
     999902    2    1    2    0    0  0.84621128351E-02  0.33807602251E-02 -0.10603654806E-01  0.10299487844E+01  0.10298538849E+01 0.  0.
     999903    2    3    3    0    0 -0.16501055926E-01 -0.54754785555E-02  0.12937186748E+00  0.13849225740E+00  0.46268342865E-01 0.  0.
         14    1    1    2    0    0 -0.84621128351E-02 -0.33807602251E-02  0.10603654806E-01  0.13981215562E-01  0.00000000000E+00 0.  1.
     999901    1    3    3    0    0  0.24963168761E-01  0.88562387807E-02 -0.13997552229E+00  0.89145652704E+00  0.88000000000E+00 0. -1.
        -11    1    4    4    0    0  0.15430141001E-01  0.40998644914E-02  0.37622418363E-01  0.40873042762E-01  0.51100000000E-03 0. -1.
         11    1    4    4    0    0 -0.31931196927E-01 -0.95753430469E-02  0.91749449120E-01  0.97619214638E-01  0.51100000000E-03 0.  1.
</event>
<event>
 8    1  0.2929965E+004  0.1043930E+01  0.7957747E-01            NaN
         13   -1    0    0    0    0  0.00000000000E+00  0.00000000000E+00  0.74505805969E-08  0.10566000000E+00  0.10566000000E+00 0.  1.
     999900   -1    0    0    0    0 -0.00000000000E+00 -0.00000000000E+00 -0.74505805969E-08  0.93827000000E+00  0.93827000000E+00 0.  1.
     999902    2    1    2    0    0 -0.28890608250E-02 -0.87382328028E-02  0.73446514571E-02  0.10321551416E+01  0.10320879755E+01 0.  0.
     999903    2    3    3    0    0 -0.83898154392E-01  0.44159920650E-01  0.96323298200E-01  0.14239231510E+00  0.44815117092E-01 0.  0.
         14    1    1    2    0    0  0.28890608250E-02  0.87382328028E-02 -0.73446514571E-02  0.11774858385E-01  0.00000000000E+00 0. -1.
     999901    1    3    3    0    0  0.81009093567E-01 -0.52898153453E-01 -0.88978646743E-01  0.88976282652E+00  0.88000000000E+00 0.  1.
        -11    1    4    4    0    0 -0.68434744866E-01  0.50296719302E-01  0.91971743889E-01  0.12518840630E+00  0.51100000000E-03 0. -1.
         11    1    4    4    0    0 -0.15463409526E-01 -0.61367986519E-02  0.43515543109E-02  0.17203908794E-01  0.51100000000E-03 0.  1.
</event>
<event>
 7    1  0.2929965E+004  0.1043930E+01  0.7957747E-01            NaN
         13   -1    0    0    0    0  0.00000000000E+00  0.00000000000E+00  0.74505805969E-08  0.10566000000E+00  0.10566000000E+00 0. -1.
     999900   -1    0    0    0    0 -0.00000000000E+00 -0.00000000000E+00 -0.74505805969E-08  0.93827000000E+00  0.93827000000E+00 0. -1.
     999902    2    1    2    0    0 -0.80006171259E-02 -0.10063254341E-01 -0.83039019207E-02  0.10286253030E+01  0.10285114391E+01 0.  0.
         14    1    1    2    0    0  0.80006171259E-02  0.10063254341E-01  0.83039019207E-02  0.15304696973E-01  0.00000000000E+00 0. -1.
     999901    1    3    3    0    0 -0.13305538524E+00  0.37570864197E-01 -0.22777633675E-01  0.89108592514E+00  0.88000000000E+00 0. -1.
        -11    1    3    3    0    0  0.35128951044E-01 -0.16357304841E-01 -0.83220482348E-02  0.39637384259E-01  0.51100000000E-03 0. -1.
         11    1    3    3    0    0  0.89925817071E-01 -0.31276813697E-01  0.22795779989E-01  0.97901993632E-01  0.51100000000E-03 0.  1.
</event>
<event>
 8    1  0.2929965E+004  0.1043930E+01  0.7957747E-01            NaN
         13   -1    0    0    0    0  0.00000000000E+00  0.00000000000E+00  0.74505805969E-08  0.10566000000E+00  0.10566000000E+00 0. -1.
     999900   -1    0    0    0    0 -0.00000000000E+00 -0.00000000000E+00 -0.74505805969E-08  0.93827000000E+00  0.93827000000E+00 0.  1.
     999902    2    1    2    0    0  0.27113233302E-02  0.98452008987E-02 -0.90880759452E-02  0.10302598727E+01  0.10301691769E+01 0.  0.
     999903    2    3    3    0    0 -0.10788634923E-01 -0.38512343389E-01 -0.12738469591E+00  0.14092596961E+00  0.45096262841E-01 0.  0.
         14    1    1    2    0    0 -0.27113233302E-02 -0.98452008987E-02  0.90880759452E-02  0.13670127261E-01  0.00000000000E+00 0.  1.
     999901    1    3    3    0    0  0.13499958254E-01  0.48357544287E-01  0.11829661996E+00  0.88933390313E+00  0.88000000000E+00 0. -1.
        -11    1    4    4    0    0  0.33538762509E-02 -0.13072116671E-01 -0.10016509228E+00  0.10107143787E+00  0.51100000000E-03 0.  1.
         11    1    4    4    0    0 -0.14142511174E-01 -0.25440226717E-01 -0.27219603627E-01  0.39854531742E-01  0.51100000000E-03 0. -1.
</event>
<event>
 8    1  0.2929965E+004  0.1043930E+01  0.7957747E-01            NaN
         13   -1    0    0    0    0  0.00000000000E+00  0.00000000000E+00  0.74505805969E-08  0.10566000000E+00  0.10566000000E+00 0. -1.
     999900   -1    0    0    0    0 -0.00000000000E+00 -0.00000000000E+00 -0.74505805969E-08  0.93827000000E+00  0.93827000000E+00 0.  1.
     999902    2    1    2    0    0 -0.12283153708E-01  0.29919007831E-02 -0.48628732587E-02  0.10303847104E+01  0.10302956743E+01 0.  0.
     999903    2    3    3    0    0 -0.33672904253E-01 -0.27377948972E-01 -0.12618578790E+00  0.14128454793E+00  0.46422557489E-01 0.  0.
         14    1    1    2    0    0  0.12283153708E-01 -0.29919007831E-02  0.48628732587E-02  0.13545289648E-01  0.00000000000E+00 0. -1.
     999901    1    3    3    0    0  0.21389750544E-01  0.30369849755E-01  0.12132291465E+00  0.88910016242E+00  0.88000000000E+00 0. -1.
        -11    1    4    4    0    0  0.11793635529E-01 -0.43836849039E-02 -0.25612720817E-01  0.28540832521E-01  0.51100000000E-03 0.  1.
         11    1    4    4    0    0 -0.45466539782E-01 -0.22994264068E-01 -0.10057306709E+00  0.11274371541E+00  0.51100000000E-03 0. -1.
</event>
<event>
 8    1  0.2929965E+004  0.1043930E+01  0.7957747E-01            NaN
         13   -1    0    0    0    0  0.00000000000E+00  0.00000000000E+00  0.74505805969E-08  0.10566000000E+00  0.10566000000E+00 0.  1.
     999900   -1    0    0    0    0 -0.00000000000E+00 -0.00000000000E+00 -0.74505805969E-08  0.93827000000E+00  0.93827000000E+00 0. -1.
     999902    2    1    2    0    0 -0.76774086409E-02 -0.90456586382E-02 -0.72766055117E-02  0.10300118273E+01  0.10299177874E+01 0.  0.
     999903    2    3    3    0    0  0.64565652372E-01 -0.99995965575E-01 -0.63648059303E-01  0.14059136486E+00  0.39331155881E-01 0.  0.
         14    1    1    2    0    0  0.76774086409E-02  0.90456586382E-02  0.72766055117E-02  0.13918172704E-01  0.00000000000E+00 0.  1.
     999901    1    3    3    0    0 -0.72243061013E-01  0.90950306937E-01  0.56371453791E-01  0.88942046244E+00  0.88000000000E+00 0.  1.
        -11    1    4    4    0    0  0.26631269322E-01 -0.26281966204E-01 -0.39120519407E-01  0.54135408125E-01  0.51100000000E-03 0. -1.
         11    1    4    4    0    0  0.37934383050E-01 -0.73713999372E-01 -0.24527539896E-01  0.86455956736E-01  0.51100000000E-03 0.  1.
</event>
<event>
 8    1  0.2929965E+004  0.1043930E+01  0.7957747E-01            NaN
         13   -1    0    0    0    0  0.00000000000E+00  0.00000000000E+00  0.74505805969E-08  0.10566000000E+00  0.10566000000E+00 0.  1.
     999900   -1    0    0    0    0 -0.00000000000E+00 -0.00000000000E+00 -0.74505805969E-08  0.93827000000E+00  0.93827000000E+00 0.  1.
     999902    2    1    2    0    0 -0.75145230734E-02 -0.35896444133E-03  0.99740233749E-02  0.10314368797E+01  0.10313612164E+01 0.  0.
     999903    2    3    3    0    0  0.29202353846E-01  0.70861381711E-01  0.11056925920E+00  0.14208887795E+00  0.45711872286E-01 0.  0.
         14    1    1    2    0    0  0.75145230734E-02  0.35896444133E-03 -0.99740233749E-02  0.12493120298E-01  0.00000000000E+00 0. -1.
     999901    1    3    3    0    0 -0.36716876919E-01 -0.71220346152E-01 -0.10059523582E+00  0.88934800176E+00  0.88000000000E+00 0.  1.
        -11    1    4    4    0    0  0.18984803812E-02  0.52107455244E-01  0.46076528095E-01  0.69585190106E-01  0.51100000000E-03 0. -1.
         11    1    4    4    0    0  0.27303873464E-01  0.18753926466E-01  0.64492731105E-01  0.72503687840E-01  0.51100000000E-03 0.  1.
</event>
<event>
 8    1  0.2929965E+004  0.1043930E+01  0.7957747E-01            NaN
         13   -1    0    0    0    0  0.00000000000E+00  0.00000000000E+00  0.74505805969E-08  0.10566000000E+00  0.10566000000E+00 0.  1.
     999900   -1    0    0    0    0 -0.00000000000E+00 -0.00000000000E+00 -0.74505805969E-08  0.93827000000E+00  0.93827000000E+00 0.  1.
     999902    2    1    2    0    0 -0.10486838107E-02 -0.16133355850E-01  0.13175299613E-02  0.10277090015E+01  0.10275809802E+01 0.  0.
     999903    2    3    3    0    0 -0.15659089611E-01 -0.11007705360E+00  0.71554725803E-01  0.13980577137E+00  0.45424774149E-01 0.  0.
         14    1    1    2    0    0  0.10486838107E-02  0.16133355850E-01 -0.13175299613E-02  0.16220998549E-01  0.00000000000E+00 0.  1.
     999901    1    3    3    0    0  0.14610405801E-01  0.93943697754E-01 -0.70237195841E-01  0.88790323008E+00  0.88000000000E+00 0.  1.
        -11    1    4    4    0    0 -0.30016276635E-01 -0.66997790285E-01  0.34137913673E-01  0.80965048243E-01  0.51100000000E-03 0.  1.
         11    1    4    4    0    0  0.14357187023E-01 -0.43079263320E-01  0.37416812130E-01  0.58840723129E-01  0.51100000000E-03 0. -1.
</event>
<event>
 8    1  0.2929965E+004  0.1043930E+01  0.7957747E-01            NaN
         13   -1    0    0    0    0  0.00000000000E+00  0.00000000000E+00  0.74505805969E-08  0.10566000000E+00  0.10566000000E+00 0.  1.
     999900   -1    0    0    0    0 -0.00000000000E+00 -0.00000000000E+00 -0.74505805969E-08  0.93827000000E+00  0.93827000000E+00 0. -1.
     999902    2    1    2    0    0 -0.11144883649E-01  0.67241373488E-02  0.48002653172E-02  0.10300568244E+01  0.10299633957E+01 0.  0.
     999903    2    3    3    0    0 -0.99062387027E-01 -0.35553838031E-01 -0.80900741134E-01  0.14052797319E+00  0.46105850056E-01 0.  0.
         14    1    1    2    0    0  0.11144883649E-01 -0.67241373488E-02 -0.48002653172E-02  0.13873175619E-01  0.00000000000E+00 0. -1.
     999901    1    3    3    0    0  0.87917503377E-01  0.42277975380E-01  0.85701006451E-01  0.88952885120E+00  0.88000000000E+00 0.  1.
        -11    1    4    4    0    0 -0.45006404450E-01 -0.18871269599E-01 -0.65889566264E-01  0.81996325047E-01  0.51100000000E-03 0. -1.
         11    1    4    4    0    0 -0.54055982576E-01 -0.16682568432E-01 -0.15011174870E-01  0.58531648138E-01  0.51100000000E-03 0.  1.
</event>
<event>
 8    1  0.2929965E+004  0.1043930E+01  0.7957747E-01            NaN
         13   -1    0    0    0    0  0.00000000000E+00  0.00000000000E+00  0.74505805969E-08  0.10566000000E+00  0.10566000000E+00 0. -1.
     999900   -1    0    0    0    0 -0.00000000000E+00 -0.00000000000E+00 -0.74505805969E-08  0.93827000000E+00  0.93827000000E+00 0.  1.
     999902    2    1    2    0    0  0.62938862126E-02  0.78564538713E-02 -0.94017086261E-02  0.10301557851E+01  0.10300636935E+01 0.  0.
     999903    2    3    3    0    0  0.61868556892E-01 -0.51018982907E-02  0.11641026147E+00  0.13937797064E+00  0.44956890754E-01 0.  0.
         14    1    1    2    0    0 -0.62938862126E-02 -0.78564538713E-02  0.94017086261E-02  0.13774214902E-01  0.00000000000E+00 0. -1.
     999901    1    3    3    0    0 -0.55574670680E-01  0.12958352162E-01 -0.12581197009E+00  0.89077781446E+00  0.88000000000E+00 0.  1.
        -11    1    4    4    0    0  0.16124088039E-01 -0.81603346134E-02  0.76450302305E-01  0.78558813125E-01  0.51100000000E-03 0. -1.
         11    1    4    4    0    0  0.45744468853E-01  0.30584363227E-02  0.39959959164E-01  0.60819157515E-01  0.51100000000E-03 0.  1.
</event>
<event>
 8    1  0.2929965E+004  0.1043930E+01  0.7957747E-01            NaN
         13   -1    0    0    0    0  0.00000000000E+00  0.00000000000E+00  0.74505805969E-08  0.10566000000E+00  0.10566000000E+00 0. -1.
     999900   -1    0    0    0    0 -0.00000000000E+00 -0.00000000000E+00 -0.74505805969E-08  0.93827000000E+00  0.93827000000E+00 0.  1.
     999902    2    1    2    0    0 -0.25323346951E-02 -0.57673279720E-02  0.13006637462E-01  0.10294784461E+01  0.10293770075E+01 0.  0.
     999903    2    3    3    0    0 -0.14118602775E-01  0.59765114775E-01 -0.11478061321E+00  0.13776194181E+00  0.45083916801E-01 0.  0.
         14    1    1    2    0    0  0.25323346951E-02  0.57673279720E-02 -0.13006637462E-01  0.14451553862E-01  0.00000000000E+00 0.  1.
     999901    1    3    3    0    0  0.11586268080E-01 -0.65532442747E-01  0.12778725067E+00  0.89171650433E+00  0.88000000000E+00 0. -1.
        -11    1    4    4    0    0 -0.11536136135E-01  0.88393439041E-03 -0.44774919023E-01  0.46248440746E-01  0.51100000000E-03 0. -1.
         11    1    4    4    0    0 -0.25824666405E-02  0.58881180384E-01 -0.70005694185E-01  0.91513501062E-01  0.51100000000E-03 0.  1.
</event>
<event>
 8    1  0.2929965E+004  0.1043930E+01  0.7957747E-01            NaN
         13   -1    0    0    0    0  0.00000000000E+00  0.00000000000E+00  0.74505805969E-08  0.10566000000E+00  0.10566000000E+00 0.  1.
     999900   -1    0    0    0    0 -0.00000000000E+00 -0.00000000000E+00 -0.74505805969E-08  0.93827000000E+00  0.93827000000E+00 0. -1.
     999902    2    1    2    0    0 -0.59834222779E-02 -0.87252983553E-02  0.89202175463E-02  0.10300915588E+01  0.10299986005E+01 0.  0.
     999903    2    3    3    0    0 -0.10981029266E-01  0.82747614124E-01 -0.10086679236E+00  0.13855050124E+00  0.45325279321E-01 0.  0.
         14    1    1    2    0    0  0.59834222779E-02  0.87252983553E-02 -0.89202175463E-02  0.13838441192E-01  0.00000000000E+00 0. -1.
     999901    1    3    3    0    0  0.49976069879E-02 -0.91472912479E-01  0.10978700990E+00  0.89154105757E+00  0.88000000000E+00 0.  1.
        -11    1    4    4    0    0  0.85088906652E-02  0.48494766546E-01 -0.80042299454E-01  0.93974328545E-01  0.51100000000E-03 0. -1.
         11    1    4    4    0    0 -0.19489919931E-01  0.34252847578E-01 -0.20824492903E-01  0.44576172691E-01  0.51100000000E-03 0.  1.
</event>
<event>
 8    1  0.2929965E+004  0.1043930E+01  0.7957747E-01            NaN
         13   -1    0    0    0    0  0.00000000000E+00  0.00000000000E+00  0.74505805969E-08  0.10566000000E+00  0.10566000000E+00 0. -1.
     999900   -1    0    0    0    0 -0.00000000000E+00 -0.00000000000E+00 -0.74505805969E-08  0.93827000000E+00  0.93827000000E+00 0. -1.
     999902    2    1    2    0    0  0.13827011276E-01  0.66410171502E-02  0.32286609549E-02  0.10282547456E+01  0.10281352577E+01 0.  0.
     999903    2    3    3    0    0  0.10320663974E+00 -0.54759682919E-01  0.61562397001E-01  0.13968196369E+00  0.45507020289E-01 0.  0.
         14    1    1    2    0    0 -0.13827011276E-01 -0.66410171502E-02 -0.32286609549E-02  0.15675254421E-01  0.00000000000E+00 0. -1.
     999901    1    3    3    0    0 -0.89379628464E-01  0.61400700069E-01 -0.58333736046E-01  0.88857278189E+00  0.88000000000E+00 0. -1.
        -11    1    4    4    0    0  0.89439984721E-01 -0.55374357768E-01  0.36998882675E-01  0.11151237064E+00  0.51100000000E-03 0.  1.
         11    1    4    4    0    0  0.13766655019E-01  0.61467484925E-03  0.24563514326E-01  0.28169593051E-01  0.51100000000E-03 0. -1.
</event>
<event>
 8    1  0.2929965E+004  0.1043930E+01  0.7957747E-01            NaN
         13   -1    0    0    0    0  0.00000000000E+00  0.00000000000E+00  0.74505805969E-08  0.10566000000E+00  0.10566000000E+00 0. -1.
     999900   -1    0    0    0    0 -0.00000000000E+00 -0.00000000000E+00 -0.74505805969E-08  0.93827000000E+00  0.93827000000E+00 0. -1.
     999902    2    1    2    0    0  0.12766908501E-02  0.11410444752E-01  0.59847575085E-02  0.10309822005E+01  0.10309008935E+01 0.  0.
     999903    2    3    3    0    0  0.81646684843E-01  0.55878473229E-01 -0.89791568554E-01  0.14103285020E+00  0.45156994332E-01 0.  0.
         14    1    1    2    0    0 -0.12766908501E-02 -0.11410444752E-01 -0.59847575085E-02  0.12947799481E-01  0.00000000000E+00 0.  1.
     999901    1    3    3    0    0 -0.80369993993E-01 -0.44468028477E-01  0.95776326063E-01  0.88994935031E+00  0.88000000000E+00 0. -1.
        -11    1    4    4    0    0  0.19614074905E-01  0.74720483478E-02 -0.46971492617E-01  0.51450225272E-01  0.51100000000E-03 0.  1.
         11    1    4    4    0    0  0.62032609938E-01  0.48406424881E-01 -0.42820075938E-01  0.89582624933E-01  0.51100000000E-03 0. -1.
</event>
<event>
 8    1  0.2929965E+004  0.1043930E+01  0.7957747E-01            NaN
         13   -1    0    0    0    0  0.00000000000E+00  0.00000000000E+00  0.74505805969E-08  0.10566000000E+00  0.10566000000E+00 0.  1.
     999900   -1    0    0    0    0 -0.00000000000E+00 -0.00000000000E+00 -0.74505805969E-08  0.93827000000E+00  0.93827000000E+00 0.  1.
     999902    2    1    2    0    0 -0.38754540226E-02  0.12398620796E-01  0.33249214633E-02  0.10305210461E+01  0.10304338050E+01 0.  0.
     999903    2    3    3    0    0 -0.10588688817E+00 -0.52088573197E-01  0.61481743479E-01  0.14038221041E+00  0.44742682906E-01 0.  0.
         14    1    1    2    0    0  0.38754540226E-02 -0.12398620796E-01 -0.33249214633E-02  0.13408953884E-01  0.00000000000E+00 0.  1.
     999901    1    3    3    0    0  0.10201143415E+00  0.64487193993E-01 -0.58156822016E-01  0.89013883571E+00  0.88000000000E+00 0.  1.
        -11    1    4    4    0    0 -0.37259029013E-01 -0.15785227818E-01  0.45903390612E-01  0.61194697899E-01  0.51100000000E-03 0. -1.
         11    1    4    4    0    0 -0.68627859159E-01 -0.36303345379E-01  0.15578352867E-01  0.79187512510E-01  0.51100000000E-03 0.  1.
</event>
<event>
 8    1  0.2929965E+004  0.1043930E+01  0.7957747E-01            NaN
         13   -1    0    0    0    0  0.00000000000E+00  0.00000000000E+00  0.74505805969E-08  0.10566000000E+00  0.10566000000E+00 0. -1.
     999900   -1    0    0    0    0 -0.00000000000E+00 -0.00000000000E+00 -0.74505805969E-08  0.93827000000E+00  0.93827000000E+00 0. -1.
     999902    2    1    2    0    0 -0.69008596164E-02  0.11687936522E-01  0.21104301096E-02  0.10301937837E+01  0.10301022028E+01 0.  0.
     999903    2    3    3    0    0 -0.37070311310E-01  0.62228652446E-01 -0.11242631471E+00  0.14082140627E+00  0.44095113772E-01 0.  0.
         14    1    1    2    0    0  0.69008596164E-02 -0.11687936522E-01 -0.21104301096E-02  0.13736216322E-01  0.00000000000E+00 0.  1.
     999901    1    3    3    0    0  0.30169451693E-01 -0.50540715924E-01  0.11453674482E+00  0.88937237741E+00  0.88000000000E+00 0.  1.
        -11    1    4    4    0    0 -0.31193679953E-01  0.10989951646E-01 -0.47995816150E-01  0.58289657702E-01  0.51100000000E-03 0. -1.
         11    1    4    4    0    0 -0.58766313574E-02  0.51238700801E-01 -0.64430498562E-01  0.82531748569E-01  0.51100000000E-03 0.  1.
</event>
<event>
 8    1  0.2929965E+004  0.1043930E+01  0.7957747E-01            NaN
         13   -1    0    0    0    0  0.00000000000E+00  0.00000000000E+00  0.74505805969E-08  0.10566000000E+00  0.10566000000E+00 0. -1.
     999900   -1    0    0    0    0 -0.00000000000E+00 -0.00000000000E+00 -0.74505805969E-08  0.93827000000E+00  0.93827000000E+00 0.  1.
     999902    2    1    2    0    0 -0.10726649752E-01 -0.39435966420E-02 -0.61009253865E-02  0.10309749137E+01  0.10308935146E+01 0.  0.
     999903    2    3    3    0    0 -0.36156438550E-01 -0.12141963238E+00 -0.45477236789E-01  0.14193172749E+00  0.45015786412E-01 0.  0.
         14    1    1    2    0    0  0.10726649752E-01  0.39435966420E-02  0.61009253865E-02  0.12955086258E-01  0.00000000000E+00 0. -1.
     999901    1    3    3    0    0  0.25429788798E-01  0.11747603573E+00  0.39376311402E-01  0.88904318626E+00  0.88000000000E+00 0.  1.
        -11    1    4    4    0    0 -0.29036361751E-01 -0.64411329753E-01 -0.34354177302E-02  0.70738906694E-01  0.51100000000E-03 0. -1.
         11    1    4    4    0    0 -0.71200767992E-02 -0.57008302622E-01 -0.42041819059E-01  0.71192820791E-01  0.51100000000E-03 0.  1.
</event>
<event>
 8    1  0.2929965E+004  0.1043930E+01  0.7957747E-01            NaN
         13   -1    0    0    0    0  0.00000000000E+00  0.00000000000E+00  0.74505805969E-08  0.10566000000E+00  0.10566000000E+00 0. -1.
     999900   -1    0    0    0    0 -0.00000000000E+00 -0.00000000000E+00 -0.74505805969E-08  0.93827000000E+00  0.93827000000E+00 0. -1.
     999902    2    1    2    0    0 -0.54540943082E-02 -0.43723539238E-02  0.10410024666E-01  0.10313907322E+01  0.10313145055E+01 0.  0.
     999903    2    3    3    0    0 -0.31351515624E-01  0.12513022270E+00  0.35368431342E-01  0.14118597156E+00  0.45189185277E-01 0.  0.
         14    1    1    2    0    0  0.54540943082E-02  0.43723539238E-02 -0.10410024666E-01  0.12539267806E-01  0.00000000000E+00 0.  1.
     999901    1    3    3    0    0  0.25897421316E-01 -0.12950257662E+00 -0.24958406676E-01  0.89020476063E+00  0.88000000000E+00 0.  1.
        -11    1    4    4    0    0 -0.12309659587E-01  0.10995688513E+00  0.37282907668E-01  0.11675752923E+00  0.51100000000E-03 0. -1.
         11    1    4    4    0    0 -0.19041856037E-01  0.15173337576E-01 -0.19144763266E-02  0.24428442339E-01  0.51100000000E-03 0.  1.
</event>
<event>
 8    1  0.2929965E+004  0.1043930E+01  0.7957747E-01            NaN
         13   -1    0    0    0    0  0.00000000000E+00  0.00000000000E+00  0.74505805969E-08  0.10566000000E+00  0.10566000000E+00 0. -1.
     999900   -1    0    0    0    0 -0.00000000000E+00 -0.00000000000E+00 -0.74505805969E-08  0.93827000000E+00  0.93827000000E+00 0. -1.
     999902    2    1    2    0    0 -0.12754172666E-01 -0.25229652771E-03 -0.15800442964E-02  0.10310758523E+01  0.10309957245E+01 0.  0.
     999903    2    3    3    0    0  0.11228065507E+00 -0.67431923733E-01 -0.17305992313E-01  0.13956358881E+00  0.44994311960E-01 0.  0.
         14    1    1    2    0    0  0.12754172666E-01  0.25229652771E-03  0.15800442964E-02  0.12854147732E-01  0.00000000000E+00 0.  1.
     999901    1    3    3    0    0 -0.12503482774E+00  0.67179627205E-01  0.15725948017E-01  0.89151226346E+00  0.88000000000E+00 0. -1.
        -11    1    4    4    0    0  0.98170499065E-02 -0.29548976681E-02 -0.15372715606E-01  0.18484788211E-01  0.51100000000E-03 0. -1.
         11    1    4    4    0    0  0.10246360517E+00 -0.64477026064E-01 -0.19332767071E-02  0.12107880060E+00  0.51100000000E-03 0.  1.
</event>
<event>
 8    1  0.2929965E+004  0.1043930E+01  0.7957747E-01            NaN
         13   -1    0    0    0    0  0.00000000000E+00  0.00000000000E+00  0.74505805969E-08  0.10566000000E+00  0.10566000000E+00 0.  1.
     999900   -1    0    0    0    0 -0.00000000000E+00 -0.00000000000E+00 -0.74505805969E-08  0.93827000000E+00  0.93827000000E+00 0.  1.
     999902    2    1    2    0    0 -0.12778529804E-02  0.13841704219E-01  0.51415650433E-02  0.10291090225E+01  0.10290022929E+01 0.  0.
     999903    2    3    3    0    0 -0.41633606528E-01 -0.10045150288E+00 -0.71293858713E-01  0.13751836637E+00  0.44773040722E-01 0.  0.
         14    1    1    2    0    0  0.12778529804E-02 -0.13841704219E-01 -0.51415650433E-02  0.14820977533E-01  0.00000000000E+00 0. -1.
     999901    1    3    3    0    0  0.40355753548E-01  0.11429320710E+00  0.76435423756E-01  0.89159065610E+00  0.88000000000E+00 0. -1.
        -11    1    4    4    0    0 -0.34137737730E-01 -0.39196089245E-01 -0.15294185551E-01  0.54183870128E-01  0.51100000000E-03 0. -1.
         11    1    4    4    0    0 -0.74958687985E-02 -0.61255413637E-01 -0.55999673162E-01  0.83334496243E-01  0.51100000000E-03 0.  1.
</event>
<event>
 8    1  0.2929965E+004  0.1043930E+01  0.7957747E-01            NaN
         13   -1    0    0    0    0  0.00000000000E+00  0.00000000000E+00  0.74505805969E-08  0.10566000000E+00  0.10566000000E+00 0.  1.
     999900   -1    0    0    0    0 -0.00000000000E+00 -0.00000000000E+00 -0.74505805969E-08  0.93827000000E+00  0.93827000000E+00 0.  1.
     999902    2    1    2    0    0 -0.12571460712E-02 -0.72029549542E-02 -0.16236876248E-01  0.10261227227E+01  0.10259681978E+01 0.  0.
     999903    2    3    3    0    0 -0.28786569320E-01 -0.11071967372E+00 -0.63322335789E-01  0.13837804049E+00  0.45290740304E-01 0.  0.
         14    1    1    2    0    0  0.12571460712E-02  0.72029549542E-02  0.16236876248E-01  0.17807277350E-01  0.00000000000E+00 0.  1.
     999901    1    3    3    0    0  0.27529423249E-01  0.10351671877E+00  0.47085459540E-01  0.88774468216E+00  0.88000000000E+00 0. -1.
        -11    1    4    4    0    0  0.10567212137E-01 -0.18330456936E-01 -0.19614204656E-01  0.28855671351E-01  0.51100000000E-03 0.  1.
         11    1    4    4    0    0 -0.39353781457E-01 -0.92389216785E-01 -0.43708131132E-01  0.10952236914E+00  0.51100000000E-03 0. -1.
</event>
<event>
 8    1  0.2929965E+004  0.1043930E+01  0.7957747E-01            NaN
         13   -1    0    0    0    0  0.00000000000E+00  0.00000000000E+00  0.74505805969E-08  0.10566000000E+00  0.10566000000E+00 0. -1.
     999900   -1    0    0    0    0 -0.00000000000E+00 -0.00000000000E+00 -0.74505805969E-08  0.93827000000E+00  0.93827000000E+00 0.  1.
     999902    2    1    2    0    0 -0.12483829989E-01  0.42057933776E-02 -0.37781099395E-02  0.10302256640E+01  0.10301345107E+01 0.  0.
     999903    2    3    3    0    0 -0.12169727845E-01  0.13142658762E+00 -0.13009766562E-01  0.14102914323E+00  0.47947002048E-01 0.  0.
         14    1    1    2    0    0  0.12483829989E-01 -0.42057933776E-02  0.37781099395E-02  0.13704335950E-01  0.00000000000E+00 0.  1.
     999901    1    3    3    0    0 -0.31410214352E-03 -0.12722079424E+00  0.92316566223E-02  0.88919652082E+00  0.88000000000E+00 0.  1.
        -11    1    4    4    0    0  0.17511138657E-01  0.49559278827E-01 -0.12109815941E-01  0.53941365000E-01  0.51100000000E-03 0.  1.
         11    1    4    4    0    0 -0.29680866502E-01  0.81867308794E-01 -0.89995062101E-03  0.87087778233E-01  0.51100000000E-03 0. -1.
</event>
<event>
 8    1  0.2929965E+004  0.1043930E+01  0.7957747E-01            NaN
         13   -1    0    0    0    0  0.00000000000E+00  0.00000000000E+00  0.74505805969E-08  0.10566000000E+00  0.10566000000E+00 0. -1.
     999900   -1    0    0    0    0 -0.00000000000E+00 -0.00000000000E+00 -0.74505805969E-08  0.93827000000E+00  0.93827000000E+00 0. -1.
     999902    2    1    2    0    0 -0.11874909801E-01  0.14074900371E-02 -0.88782200275E-02  0.10290364678E+01  0.10289286830E+01 0.  0.
     999903    2    3    3    0    0  0.10090961393E+00 -0.55181095013E-02 -0.84081250711E-01  0.13862992662E+00  0.43993182618E-01 0.  0.
         14    1    1    2    0    0  0.11874909801E-01 -0.14074900371E-02  0.88782200275E-02  0.14893532215E-01  0.00000000000E+00 0. -1.
     999901    1    3    3    0    0 -0.11278452374E+00  0.69255995384E-02  0.75203030684E-01  0.89040654116E+00  0.88000000000E+00 0.  1.
        -11    1    4    4    0    0  0.41275730784E-01 -0.32178637213E-02 -0.62896201748E-01  0.75300955598E-01  0.51100000000E-03 0. -1.
         11    1    4    4    0    0  0.59633883150E-01 -0.23002457800E-02 -0.21185048963E-01  0.63328971022E-01  0.51100000000E-03 0.  1.
</event>
<event>
 8    1  0.2929965E+004  0.1043930E+01  0.7957747E-01            NaN
         13   -1    0    0    0    0  0.00000000000E+00  0.00000000000E+00  0.74505805969E-08  0.10566000000E+00  0.10566000000E+00 0. -1.
     999900   -1    0    0    0    0 -0.00000000000E+00 -0.00000000000E+00 -0.74505805969E-08  0.93827000000E+00  0.93827000000E+00 0. -1.
     999902    2    1    2    0    0 -0.97216063854E-02 -0.52986144010E-02  0.71501303605E-02  0.10307501172E+01  0.10306658503E+01 0.  0.
     999903    2    3    3    0    0 -0.73238469150E-01  0.31648039548E-01 -0.10660438084E+00  0.14039089990E+00  0.44493134192E-01 0.  0.
         14    1    1    2    0    0  0.97216063854E-02  0.52986144010E-02 -0.71501303605E-02  0.13179882756E-01  0.00000000000E+00 0.  1.
     999901    1    3    3    0    0  0.63516862765E-01 -0.36946653949E-01  0.11375451120E+00  0.89035921735E+00  0.88000000000E+00 0. -1.
        -11    1    4    4    0    0 -0.41212661181E-03  0.16679916341E-01 -0.24243252145E-01  0.29434433120E-01  0.51100000000E-03 0.  1.
         11    1    4    4    0    0 -0.72826342538E-01  0.14968123206E-01 -0.82361128692E-01  0.11095646678E+00  0.51100000000E-03 0. -1.
</event>
<event>
 8    1  0.2929965E+004  0.1043930E+01  0.7957747E-01            NaN
         13   -1    0    0    0    0  0.00000000000E+00  0.00000000000E+00  0.74505805969E-08  0.10566000000E+00  0.10566000000E+00 0. -1.
     999900   -1    0    0    0    0 -0.00000000000E+00 -0.00000000000E+00 -0.74505805969E-08  0.93827000000E+00  0.93827000000E+00 0. -1.
     999902    2    1    2    0    0 -0.69315480462E-02  0.15666405395E-01  0.25662779311E-02  0.10266075175E+01  0.10264613615E+01 0.  0.
     999903    2    3    3    0    0  0.19949078294E-01 -0.12219612156E+00  0.29985866526E-01  0.13504681952E+00  0.44817780182E-01 0.  0.
         14    1    1    2    0    0  0.69315480462E-02 -0.15666405395E-01 -0.25662779311E-02  0.17322482465E-01  0.00000000000E+00 0.  1.
     999901    1    3    3    0    0 -0.26880626340E-01  0.13786252696E+00 -0.27419588595E-01  0.89156069802E+00  0.88000000000E+00 0. -1.
        -11    1    4    4    0    0 -0.31663391941E-02 -0.51101211513E-01  0.31784615638E-01  0.60265101296E-01  0.51100000000E-03 0. -1.
         11    1    4    4    0    0  0.23115417488E-01 -0.71094910050E-01 -0.17987491117E-02  0.74781718220E-01  0.51100000000E-03 0.  1.
</event>
<event>
 8    1  0.2929965E+004  0.1043930E+01  0.7957747E-01            NaN
         13   -1    0    0    0    0  0.00000000000E+00  0.00000000000E+00  0.74505805969E-08  0.10566000000E+00  0.10566000000E+00 0.  1.
     999900   -1    0    0    0    0 -0.00000000000E+00 -0.00000000000E+00 -0.74505805969E-08  0.93827000000E+00  0.93827000000E+00 0.  1.
     999902    2    1    2    0    0 -0.12829361266E-01  0.91441385461E-03  0.58255369667E-02  0.10298103136E+01  0.10297135118E+01 0.  0.
     999903    2    3    3    0    0  0.70019796505E-01  0.95187150435E-01  0.58211565138E-01  0.13936344390E+00  0.45499644714E-01 0.  0.
         14    1    1    2    0    0  0.12829361266E-01 -0.91441385461E-03 -0.58255369667E-02  0.14119686404E-01  0.00000000000E+00 0. -1.
     999901    1    3    3    0    0 -0.82849157771E-01 -0.94272736580E-01 -0.52386028171E-01  0.89044686970E+00  0.88000000000E+00 0.  1.
        -11    1    4    4    0    0  0.76565908847E-01  0.84722422955E-01  0.51078518574E-01  0.12509797572E+00  0.51100000000E-03 0.  1.
         11    1    4    4    0    0 -0.65461123427E-02  0.10464727480E-01  0.71330465634E-02  0.14265468177E-01  0.51100000000E-03 0. -1.
</event>
<event>
 8    1  0.2929965E+004  0.1043930E+01  0.7957747E-01            NaN
         13   -1    0    0    0    0  0.00000000000E+00  0.00000000000E+00  0.74505805969E-08  0.10566000000E+00  0.10566000000E+00 0.  1.
     999900   -1    0    0    0    0 -0.00000000000E+00 -0.00000000000E+00 -0.74505805969E-08  0.93827000000E+00  0.93827000000E+00 0. -1.
     999902    2    1    2    0    0 -0.78154961960E-02 -0.11625698988E-01  0.11232620295E-02  0.10298765102E+01  0.10297806202E+01 0.  0.
     999903    2    3    3    0    0  0.93474857328E-01 -0.28006026378E-01 -0.88946501092E-01  0.13934823268E+00  0.44548439136E-01 0.  0.
         14    1    1    2    0    0  0.78154961960E-02  0.11625698988E-01 -0.11232620295E-02  0.14053489792E-01  0.00000000000E+00 0. -1.
     999901    1    3    3    0    0 -0.10129035352E+00  0.16380327391E-01  0.90069763121E-01  0.89052827752E+00  0.88000000000E+00 0.  1.
        -11    1    4    4    0    0  0.59543942071E-01  0.51041735057E-02 -0.52457694285E-01  0.79521094278E-01  0.51100000000E-03 0. -1.
         11    1    4    4    0    0  0.33930915258E-01 -0.33110199884E-01 -0.36488806807E-01  0.59827138405E-01  0.51100000000E-03 0.  1.
</event>
<event>
 8    1  0.2929965E+004  0.1043930E+01  0.7957747E-01            NaN
         13   -1    0    0    0    0  0.00000000000E+00  0.00000000000E+00  0.74505805969E-08  0.10566000000E+00  0.10566000000E+00 0. -1.
     999900   -1    0    0    0    0 -0.00000000000E+00 -0.00000000000E+00 -0.74505805969E-08  0.93827000000E+00  0.93827000000E+00 0. -1.
     999902    2    1    2    0    0  0.14638486351E-01  0.10302990224E-01 -0.18805748235E-02  0.10259307375E+01  0.10257728329E+01 0.  0.
     999903    2    3    3    0    0 -0.11674252123E+00 -0.44799659691E-01  0.19254920012E-01  0.13422227596E+00  0.44822334237E-01 0.  0.
         14    1    1    2    0    0 -0.14638486351E-01 -0.10302990224E-01  0.18805748235E-02  0.17999262537E-01  0.00000000000E+00 0.  1.
     999901    1    3    3    0    0  0.13138100758E+00  0.55102649914E-01 -0.21135494836E-01  0.89170846151E+00  0.88000000000E+00 0.  1.
        -11    1    4    4    0    0 -0.46905882611E-01 -0.22719102735E-01  0.30084285458E-01  0.60180103067E-01  0.51100000000E-03 0.  1.
         11    1    4    4    0    0 -0.69836638619E-01 -0.22080556955E-01 -0.10829365446E-01  0.74042172889E-01  0.51100000000E-03 0. -1.
</event>
<event>
 8    1  0.2929965E+004  0.1043930E+01  0.7957747E-01            NaN
         13   -1    0    0    0    0  0.00000000000E+00  0.00000000000E+00  0.74505805969E-08  0.10566000000E+00  0.10566000000E+00 0. -1.
     999900   -1    0    0    0    0 -0.00000000000E+00 -0.00000000000E+00 -0.74505805969E-08  0.93827000000E+00  0.93827000000E+00 0.  1.
     999902    2    1    2    0    0 -0.34509086943E-02  0.75945541454E-02 -0.10987751176E-01  0.10301344681E+01  0.10300420893E+01 0.  0.
     999903    2    3    3    0    0  0.20139706713E-02  0.12402016037E+00 -0.50403104805E-01  0.14157475895E+00  0.46020464368E-01 0.  0.
         14    1    1    2    0    0  0.34509086943E-02 -0.75945541454E-02  0.10987751176E-01  0.13795531863E-01  0.00000000000E+00 0. -1.
     999901    1    3    3    0    0 -0.54648793656E-02 -0.11642560623E+00  0.39415353629E-01  0.88855970919E+00  0.88000000000E+00 0.  1.
        -11    1    4    4    0    0 -0.10618387110E-01  0.59595560480E-01 -0.45517993018E-01  0.75739882381E-01  0.51100000000E-03 0.  1.
         11    1    4    4    0    0  0.12632357782E-01  0.64424599893E-01 -0.48851117869E-02  0.65834876567E-01  0.51100000000E-03 0. -1.
</event>
<event>
 8    1  0.2929965E+004  0.1043930E+01  0.7957747E-01            NaN
         13   -1    0    0    0    0  0.00000000000E+00  0.00000000000E+00  0.74505805969E-08  0.10566000000E+00  0.10566000000E+00 0. -1.
     999900   -1    0    0    0    0 -0.00000000000E+00 -0.00000000000E+00 -0.74505805969E-08  0.93827000000E+00  0.93827000000E+00 0.  1.
     999902    2    1    2    0    0 -0.49935660956E-02  0.14161160690E-01  0.29781337206E-03  0.10289112495E+01  0.10288016312E+01 0.  0.
     999903    2    3    3    0    0  0.27669841619E-01  0.12020732931E+00 -0.45973840659E-01  0.14073685554E+00  0.49777970303E-01 0.  0.
         14    1    1    2    0    0  0.49935660956E-02 -0.14161160690E-01 -0.29781337206E-03  0.15018750522E-01  0.00000000000E+00 0.  1.
     999901    1    3    3    0    0 -0.32663407715E-01 -0.10604616862E+00  0.46271654031E-01  0.88817439394E+00  0.88000000000E+00 0. -1.
        -11    1    4    4    0    0  0.25765537651E-01  0.66014674557E-01 -0.19584499067E-02  0.70893559893E-01  0.51100000000E-03 0. -1.
         11    1    4    4    0    0  0.19043039685E-02  0.54192654750E-01 -0.44015390752E-01  0.69843295645E-01  0.51100000000E-03 0.  1.
</event>
<event>
 7    1  0.2929965E+004  0.1043930E+01  0.7957747E-01            NaN
         13   -1    0    0    0    0  0.00000000000E+00  0.00000000000E+00  0.74505805969E-08  0.10566000000E+00  0.10566000000E+00 0. -1.
     999900   -1    0    0    0    0 -0.00000000000E+00 -0.00000000000E+00 -0.74505805969E-08  0.93827000000E+00  0.93827000000E+00 0. -1.
     999902    2    1    2    0    0 -0.71474771810E-02 -0.91339557208E-02  0.83231407911E-02  0.10296544878E+01  0.10295555225E+01 0.  0.
         14    1    1    2    0    0  0.71474771810E-02  0.91339557208E-02 -0.83231407911E-02  0.14275512243E-01  0.00000000000E+00 0.  1.
     999901    1    3    3    0    0 -0.11333491358E-01  0.20491588659E-02  0.13191509322E+00  0.88990687091E+00  0.88000000000E+00 0.  1.
        -11    1    3    3    0    0 -0.23668100400E-01 -0.24611384551E-01 -0.60101897545E-01  0.69125960649E-01  0.51100000000E-03 0.  1.
         11    1    3    3    0    0  0.27854114577E-01  0.13428269965E-01 -0.63490054888E-01  0.70621656196E-01  0.51100000000E-03 0. -1.
</event>
<event>
 7    1  0.2929965E+004  0.1043930E+01  0.7957747E-01            NaN
         13   -1    0    0    0    0  0.00000000000E+00  0.00000000000E+00  0.74505805969E-08  0.10566000000E+00  0.10566000000E+00 0. -1.
     999900   -1    0    0    0    0 -0.00000000000E+00 -0.00000000000E+00 -0.74505805969E-08  0.93827000000E+00  0.93827000000E+00 0.  1.
     999903    2    1    2    0    0  0.48032123744E-01 -0.16789189385E-01 -0.51411151421E-01  0.84686809201E-01  0.44043017274E-01 0.  0.
         14    1    1    2    0    0  0.69740119351E-01  0.81504871020E-03  0.78585082204E-02  0.70186214479E-01  0.00000000000E+00 0. -1.
     999901    1    1    2    0    0 -0.11777224309E+00  0.15974140675E-01  0.43552643200E-01  0.88905697632E+00  0.88000000000E+00 0. -1.
        -11    1    3    3    0    0  0.50958611692E-01 -0.10710722049E-01 -0.25644134537E-01  0.58046381709E-01  0.51100000000E-03 0.  1.
         11    1    3    3    0    0 -0.29264879474E-02 -0.60784673361E-02 -0.25767016884E-01  0.26640427492E-01  0.51100000000E-03 0. -1.
</event>
<event>
 8    1  0.2929965E+004  0.1043930E+01  0.7957747E-01            NaN
         13   -1    0    0    0    0  0.00000000000E+00  0.00000000000E+00  0.74505805969E-08  0.10566000000E+00  0.10566000000E+00 0. -1.
     999900   -1    0    0    0    0 -0.00000000000E+00 -0.00000000000E+00 -0.74505805969E-08  0.93827000000E+00  0.93827000000E+00 0. -1.
     999902    2    1    2    0    0  0.95773222356E-02 -0.91057607221E-02  0.24492397132E-02  0.10304898082E+01  0.10304021575E+01 0.  0.
     999903    2    3    3    0    0  0.15882888307E-02  0.13188240836E+00  0.85465041376E-02  0.13921057864E+00  0.43715559880E-01 0.  0.
         14    1    1    2    0    0 -0.95773222356E-02  0.91057607221E-02 -0.24492397132E-02  0.13440191766E-01  0.00000000000E+00 0.  1.
     999901    1    3    3    0    0  0.79890334049E-02 -0.14098816908E+00 -0.60972644243E-02  0.89127922960E+00  0.88000000000E+00 0. -1.
        -11    1    4    4    0    0  0.18307526114E-01  0.78530618082E-01 -0.76484342177E-02  0.80999896023E-01  0.51100000000E-03 0. -1.
         11    1    4    4    0    0 -0.16719237284E-01  0.53351790277E-01  0.16194938355E-01  0.58210682615E-01  0.51100000000E-03 0.  1.
</event>
<event>
 8    1  0.2929965E+004  0.1043930E+01  0.7957747E-01            NaN
         13   -1    0    0    0    0  0.00000000000E+00  0.00000000000E+00  0.74505805969E-08  0.10566000000E+00  0.10566000000E+00 0.  1.
     999900   -1    0    0    0    0 -0.00000000000E+00 -0.00000000000E+00 -0.74505805969E-08  0.93827000000E+00  0.93827000000E+00 0.  1.
     999902    2    1    2    0    0  0.11827110893E-01  0.35025082529E-02 -0.51486588277E-02  0.10305637438E+01  0.10304770610E+01 0.  0.
     999903    2    3    3    0    0  0.54756321883E-02  0.58803238506E-02 -0.13361698728E+00  0.14120998593E+00  0.44968879026E-01 0.  0.
         14    1    1    2    0    0 -0.11827110893E-01 -0.35025082529E-02  0.51486588277E-02  0.13366256165E-01  0.00000000000E+00 0.  1.
     999901    1    3    3    0    0  0.63514787048E-02 -0.23778155978E-02  0.12846832845E+00  0.88935375791E+00  0.88000000000E+00 0. -1.
        -11    1    4    4    0    0  0.20862196316E-01 -0.83845184491E-02 -0.47247733699E-01  0.52327247638E-01  0.51100000000E-03 0. -1.
         11    1    4    4    0    0 -0.15386564128E-01  0.14264842300E-01 -0.86369253577E-01  0.88882738290E-01  0.51100000000E-03 0.  1.
</event>
<event>
 8    1  0.2929965E+004  0.1043930E+01  0.7957747E-01            NaN
         13   -1    0    0    0    0  0.00000000000E+00  0.00000000000E+00  0.74505805969E-08  0.10566000000E+00  0.10566000000E+00 0. -1.
     999900   -1    0    0    0    0 -0.00000000000E+00 -0.00000000000E+00 -0.74505805969E-08  0.93827000000E+00  0.93827000000E+00 0.  1.
     999902    2    1    2    0    0 -0.84680919027E-02 -0.73426616129E-02 -0.80384252380E-02  0.10301372649E+01  0.10300449238E+01 0.  0.
     999903    2    3    3    0    0  0.70578052250E-01 -0.13380762337E-01  0.10988608275E+00  0.13873895826E+00  0.44869155311E-01 0.  0.
         14    1    1    2    0    0  0.84680919027E-02  0.73426616129E-02  0.80384252380E-02  0.13792735057E-01  0.00000000000E+00 0.  1.
     999901    1    3    3    0    0 -0.79046144153E-01  0.60381007237E-02 -0.11792450799E+00  0.89139830668E+00  0.88000000000E+00 0.  1.
        -11    1    4    4    0    0  0.44836908693E-01 -0.29589641091E-01  0.62369390979E-01  0.82317053477E-01  0.51100000000E-03 0.  1.
         11    1    4    4    0    0  0.25741143557E-01  0.16208878754E-01  0.47516691770E-01  0.56421904788E-01  0.51100000000E-03 0. -1.
</event>
<event>
 7    1  0.2929965E+004  0.1043930E+01  0.7957747E-01            NaN
         13   -1    0    0    0    0  0.00000000000E+00  0.00000000000E+00  0.74505805969E-08  0.10566000000E+00  0.10566000000E+00 0.  1.
     999900   -1    0    0    0    0 -0.00000000000E+00 -0.00000000000E+00 -0.74505805969E-08  0.93827000000E+00  0.93827000000E+00 0. -1.
     999903    2    1    2    0    0  0.63940768798E-01 -0.39500184500E-02  0.61574010845E-01  0.10032084059E+00  0.46571318261E-01 0.  0.
         14    1    1    2    0    0 -0.58908661126E-01  0.17095831831E-01 -0.81268255375E-02  0.61875222141E-01  0.00000000000E+00 0. -1.
     999901    1    1    2    0    0 -0.50321076721E-02 -0.13145813381E-01 -0.53447185308E-01  0.88173393727E+00  0.88000000000E+00 0. -1.
        -11    1    3    3    0    0  0.36562122974E-01 -0.10083090685E-01  0.61503121240E-01  0.72258927458E-01  0.51100000000E-03 0.  1.
         11    1    3    3    0    0  0.27378645824E-01  0.61330722348E-02  0.70889604981E-04  0.28061913131E-01  0.51100000000E-03 0. -1.
</event>
<event>
 8    1  0.2929965E+004  0.1043930E+01  0.7957747E-01            NaN
         13   -1    0    0    0    0  0.00000000000E+00  0.00000000000E+00  0.74505805969E-08  0.10566000000E+00  0.10566000000E+00 0. -1.
     999900   -1    0    0    0    0 -0.00000000000E+00 -0.00000000000E+00 -0.74505805969E-08  0.93827000000E+00  0.93827000000E+00 0.  1.
     999902    2    1    2    0    0  0.64546872751E-02  0.27584656569E-02  0.10862305165E-01  0.10309970269E+01  0.10309159071E+01 0.  0.
     999903    2    3    3    0    0 -0.10031514392E+00 -0.34449278615E-02 -0.81726097260E-01  0.13969971889E+00  0.52553409550E-01 0.  0.
         14    1    1    2    0    0 -0.64546872751E-02 -0.27584656569E-02 -0.10862305165E-01  0.12932973135E-01  0.00000000000E+00 0.  1.
     999901    1    3    3    0    0  0.10676983120E+00  0.62033935184E-02  0.92588402425E-01  0.89129730798E+00  0.88000000000E+00 0.  1.
        -11    1    4    4    0    0 -0.42407361178E-01  0.21266514883E-01 -0.50947653039E-01  0.69617335547E-01  0.51100000000E-03 0.  1.
         11    1    4    4    0    0 -0.57907782746E-01 -0.24711442745E-01 -0.30778444221E-01  0.70082383340E-01  0.51100000000E-03 0. -1.
</event>
<event>
 8    1  0.2929965E+004  0.1043930E+01  0.7957747E-01            NaN
         13   -1    0    0    0    0  0.00000000000E+00  0.00000000000E+00  0.74505805969E-08  0.10566000000E+00  0.10566000000E+00 0. -1.
     999900   -1    0    0    0    0 -0.00000000000E+00 -0.00000000000E+00 -0.74505805969E-08  0.93827000000E+00  0.93827000000E+00 0.  1.
     999902    2    1    2    0    0 -0.14207932924E-01 -0.16336147006E-02  0.10121260736E-02  0.10295926901E+01  0.10294928602E+01 0.  0.
     999903    2    3    3    0    0 -0.77000209836E-01 -0.36494649043E-01 -0.10264566621E+00  0.14060275788E+00  0.44408456486E-01 0.  0.
         14    1    1    2    0    0  0.14207932924E-01  0.16336147006E-02 -0.10121260736E-02  0.14337309865E-01  0.00000000000E+00 0. -1.
     999901    1    3    3    0    0  0.62792276912E-01  0.34861034343E-01  0.10365779228E+00  0.88898993226E+00  0.88000000000E+00 0. -1.
        -11    1    4    4    0    0  0.32075803782E-02 -0.45854917251E-02 -0.21163714987E-01  0.21897014849E-01  0.51100000000E-03 0. -1.
         11    1    4    4    0    0 -0.80207790215E-01 -0.31909157318E-01 -0.81481951223E-01  0.11870574303E+00  0.51100000000E-03 0.  1.
</event>
<event>
 8    1  0.2929965E+004  0.1043930E+01  0.7957747E-01            NaN
         13   -1    0    0    0    0  0.00000000000E+00  0.00000000000E+00  0.74505805969E-08  0.10566000000E+00  0.10566000000E+00 0.  1.
     999900   -1    0    0    0    0 -0.00000000000E+00 -0.00000000000E+00 -0.74505805969E-08  0.93827000000E+00  0.93827000000E+00 0. -1.
     999902    2    1    2    0    0 -0.14120074085E-02  0.12441642404E-01 -0.58644069663E-02  0.10301032325E+01  0.10300104320E+01 0.  0.
     999903    2    3    3    0    0 -0.13259932904E+00  0.10743966452E-01 -0.29429925605E-02  0.14037207640E+00  0.44695008123E-01 0.  0.
         14    1    1    2    0    0  0.14120074085E-02 -0.12441642404E-01  0.58644069663E-02  0.13826767507E-01  0.00000000000E+00 0.  1.
     999901    1    3    3    0    0  0.13118732163E+00  0.16976759524E-02 -0.29214144059E-02  0.88973115609E+00  0.88000000000E+00 0.  1.
        -11    1    4    4    0    0 -0.69925996450E-01 -0.16678016666E-01 -0.31871454649E-02  0.71959851560E-01  0.51100000000E-03 0. -1.
         11    1    4    4    0    0 -0.62673332589E-01  0.27421983118E-01  0.24415290447E-03  0.68412224840E-01  0.51100000000E-03 0.  1.
</event>
<event>
 8    1  0.2929965E+004  0.1043930E+01  0.7957747E-01            NaN
         13   -1    0    0    0    0  0.00000000000E+00  0.00000000000E+00  0.74505805969E-08  0.10566000000E+00  0.10566000000E+00 0.  1.
     999900   -1    0    0    0    0 -0.00000000000E+00 -0.00000000000E+00 -0.74505805969E-08  0.93827000000E+00  0.93827000000E+00 0. -1.
     999902    2    1    2    0    0  0.92512009559E-02 -0.49003863933E-02  0.92300858021E-02  0.10299731741E+01  0.10298786076E+01 0.  0.
     999903    2    3    3    0    0 -0.41753289466E-01 -0.11898732334E+00  0.42694246441E-01  0.14051427268E+00  0.44945988146E-01 0.  0.
         14    1    1    2    0    0 -0.92512009559E-02  0.49003863933E-02 -0.92300858021E-02  0.13956825923E-01  0.00000000000E+00 0. -1.
     999901    1    3    3    0    0  0.51004490422E-01  0.11408693695E+00 -0.33464160639E-01  0.88945890140E+00  0.88000000000E+00 0. -1.
        -11    1    4    4    0    0 -0.42982886449E-01 -0.61139041921E-01  0.14436984536E-01  0.76119633591E-01  0.51100000000E-03 0. -1.
         11    1    4    4    0    0  0.12295969829E-02 -0.57848281421E-01  0.28257261905E-01  0.64394639090E-01  0.51100000000E-03 0.  1.
</event>
<event>
 8    1  0.2929965E+004  0.1043930E+01  0.7957747E-01            NaN
         13   -1    0    0    0    0  0.00000000000E+00  0.00000000000E+00  0.74505805969E-08  0.10566000000E+00  0.10566000000E+00 0. -1.
     999900   -1    0    0    0    0 -0.00000000000E+00 -0.00000000000E+00 -0.74505805969E-08  0.93827000000E+00  0.93827000000E+00 0.  1.
     999902    2    1    2    0    0  0.12320175707E-01 -0.57994668437E-02 -0.12714021145E-02  0.10302538526E+01  0.10301630763E+01 0.  0.
     999903    2    3    3    0    0  0.25102371577E-01 -0.55285251534E-01 -0.11908589853E+00  0.14093249166E+00  0.44653419573E-01 0.  0.
         14    1    1    2    0    0 -0.12320175707E-01  0.57994668437E-02  0.12714021145E-02  0.13676147427E-01  0.00000000000E+00 0. -1.
     999901    1    3    3    0    0 -0.12782195870E-01  0.49485784691E-01  0.11781449642E+00  0.88932136092E+00  0.88000000000E+00 0. -1.
        -11    1    4    4    0    0  0.95366643155E-02 -0.55135518289E-01 -0.71076505693E-01  0.90459958688E-01  0.51100000000E-03 0.  1.
         11    1    4    4    0    0  0.15565707261E-01 -0.14973324505E-03 -0.48009392837E-01  0.50472532968E-01  0.51100000000E-03 0. -1.
</event>
<event>
 8    1  0.2929965E+004  0.1043930E+01  0.7957747E-01            NaN
         13   -1    0    0    0    0  0.00000000000E+00  0.00000000000E+00  0.74505805969E-08  0.10566000000E+00  0.10566000000E+00 0. -1.
     999900   -1    0    0    0    0 -0.00000000000E+00 -0.00000000000E+00 -0.74505805969E-08  0.93827000000E+00  0.93827000000E+00 0.  1.
     999902    2    1    2    0    0  0.35184064240E-02  0.86333413913E-02 -0.10424992213E-01  0.10299444993E+01  0.10298495411E+01 0.  0.
     999903    2    3    3    0    0 -0.85588682920E-01 -0.11154609427E-01  0.98598903370E-01  0.13853110127E+00  0.44936336275E-01 0.  0.
         14    1    1    2    0    0 -0.35184064240E-02 -0.86333413913E-02  0.10424992213E-01  0.13985500706E-01  0.00000000000E+00 0. -1.
     999901    1    3    3    0    0  0.89107089344E-01  0.19787950819E-01 -0.10902389558E+00  0.89141339802E+00  0.88000000000E+00 0.  1.
        -11    1    4    4    0    0 -0.14539130257E-01  0.56878858632E-02  0.45886629932E-01  0.48472489948E-01  0.51100000000E-03 0.  1.
         11    1    4    4    0    0 -0.71049552663E-01 -0.16842495290E-01  0.52712273438E-01  0.90058611322E-01  0.51100000000E-03 0. -1.
</event>
<event>
 8    1  0.2929965E+004  0.1043930E+01  0.7957747E-01            NaN
         13   -1    0    0    0    0  0.00000000000E+00  0.00000000000E+00  0.74505805969E-08  0.10566000000E+00  0.10566000000E+00 0.  1.
     999900   -1    0    0    0    0 -0.00000000000E+00 -0.00000000000E+00 -0.74505805969E-08  0.93827000000E+00  0.93827000000E+00 0. -1.
     999902    2    1    2    0    0 -0.42480000558E-02 -0.61269128310E-02 -0.11472629075E-01  0.10302476836E+01  0.10301568248E+01 0.  0.
     999903    2    3    3    0    0 -0.22095400966E-01 -0.44988098167E-01  0.12193052164E+00  0.13916681065E+00  0.44589386158E-01 0.  0.
         14    1    1    2    0    0  0.42480000558E-02  0.61269128310E-02  0.11472629075E-01  0.13682316441E-01  0.00000000000E+00 0.  1.
     999901    1    3    3    0    0  0.17847400911E-01  0.38861185336E-01 -0.13340315072E+00  0.89108087291E+00  0.88000000000E+00 0. -1.
        -11    1    4    4    0    0 -0.35901788484E-01 -0.31237585358E-01  0.86294709140E-01  0.98548278026E-01  0.51100000000E-03 0. -1.
         11    1    4    4    0    0  0.13806387518E-01 -0.13750512808E-01  0.35635812501E-01  0.40618532622E-01  0.51100000000E-03 0.  1.
</event>
<event>
 8    1  0.2929965E+004  0.1043930E+01  0.7957747E-01            NaN
         13   -1    0    0    0    0  0.00000000000E+00  0.00000000000E+00  0.74505805969E-08  0.10566000000E+00  0.10566000000E+00 0.  1.
     999900   -1    0    0    0    0 -0.00000000000E+00 -0.00000000000E+00 -0.74505805969E-08  0.93827000000E+00  0.93827000000E+00 0.  1.
     999902    2    1    2    0    0  0.69008431795E-02 -0.30950916489E-02 -0.12452838993E-01  0.10293603594E+01  0.10292572443E+01 0.  0.
     999903    2    3    3    0    0  0.24411613693E-02  0.13283164049E+00  0.18102070003E-01  0.13838922195E+00  0.34259127667E-01 0.  0.
         14    1    1    2    0    0 -0.69008431795E-02  0.30950916489E-02  0.12452838993E-01  0.14569640623E-01  0.00000000000E+00 0.  1.
     999901    1    3    3    0    0  0.44596818102E-02 -0.13592673214E+00 -0.30554908996E-01  0.89097113743E+00  0.88000000000E+00 0. -1.
        -11    1    4    4    0    0  0.11652725314E-01  0.80592288374E-01  0.24300767991E-01  0.84980535410E-01  0.51100000000E-03 0.  1.
         11    1    4    4    0    0 -0.92115639450E-02  0.52239352115E-01 -0.61986979886E-02  0.53408686536E-01  0.51100000000E-03 0. -1.
</event>
<event>
 7    1  0.2929965E+004  0.1043930E+01  0.7957747E-01            NaN
         13   -1    0    0    0    0  0.00000000000E+00  0.00000000000E+00  0.74505805969E-08  0.10566000000E+00  0.10566000000E+00 0. -1.
     999900   -1    0    0    0    0 -0.00000000000E+00 -0.00000000000E+00 -0.74505805969E-08  0.93827000000E+00  0.93827000000E+00 0.  1.
     999903    2    1    2    0    0 -0.50982720700E-02 -0.88087979738E-01 -0.49161960427E-01  0.10967794527E+00  0.42741885470E-01 0.  0.
         14    1    1    2    0    0  0.33169310282E-01  0.26078401559E-01 -0.24094945798E-01  0.48588605511E-01  0.00000000000E+00 0. -1.
     999901    1    1    2    0    0 -0.28071038212E-01  0.62009578179E-01  0.73256906225E-01  0.88566344922E+00  0.88000000000E+00 0. -1.
        -11    1    3    3    0    0  0.61958997273E-02 -0.57579670565E-01 -0.50889829670E-01  0.77096326246E-01  0.51100000000E-03 0.  1.
         11    1    3    3    0    0 -0.11294171797E-01 -0.30508309172E-01  0.17278692433E-02  0.32581619025E-01  0.51100000000E-03 0. -1.
</event>
<event>
 8    1  0.2929965E+004  0.1043930E+01  0.7957747E-01            NaN
         13   -1    0    0    0    0  0.00000000000E+00  0.00000000000E+00  0.74505805969E-08  0.10566000000E+00  0.10566000000E+00 0.  1.
     999900   -1    0    0    0    0 -0.00000000000E+00 -0.00000000000E+00 -0.74505805969E-08  0.93827000000E+00  0.93827000000E+00 0.  1.
     999902    2    1    2    0    0  0.30360788502E-02  0.69505638688E-02  0.11073153534E-01  0.10305082698E+01  0.10304208612E+01 0.  0.
     999903    2    3    3    0    0 -0.83455274134E-01  0.93265243989E-01 -0.44290834514E-01  0.14034190931E+00  0.45508075867E-01 0.  0.
         14    1    1    2    0    0 -0.30360788502E-02 -0.69505638688E-02 -0.11073153534E-01  0.13421730218E-01  0.00000000000E+00 0. -1.
     999901    1    3    3    0    0  0.86491352984E-01 -0.86314680121E-01  0.55363988048E-01  0.89016636047E+00  0.88000000000E+00 0. -1.
        -11    1    4    4    0    0 -0.76798517299E-01  0.62351489618E-01 -0.45066577814E-01  0.10870592474E+00  0.51100000000E-03 0.  1.
         11    1    4    4    0    0 -0.66567568350E-02  0.30913754371E-01  0.77574329927E-03  0.31635984568E-01  0.51100000000E-03 0. -1.
</event>
<event>
 8    1  0.2929965E+004  0.1043930E+01  0.7957747E-01            NaN
         13   -1    0    0    0    0  0.00000000000E+00  0.00000000000E+00  0.74505805969E-08  0.10566000000E+00  0.10566000000E+00 0. -1.
     999900   -1    0    0    0    0 -0.00000000000E+00 -0.00000000000E+00 -0.74505805969E-08  0.93827000000E+00  0.93827000000E+00 0. -1.
     999902    2    1    2    0    0  0.51359205043E-02  0.12614976449E-01  0.27986277568E-02  0.10300250503E+01  0.10299311902E+01 0.  0.
     999903    2    3    3    0    0 -0.74408659951E-01  0.38755866615E-01  0.10322909893E+00  0.14036389792E+00  0.44800793550E-01 0.  0.
         14    1    1    2    0    0 -0.51359205043E-02 -0.12614976449E-01 -0.27986277568E-02  0.13904949750E-01  0.00000000000E+00 0.  1.
     999901    1    3    3    0    0  0.79544580455E-01 -0.26140890166E-01 -0.10043047117E+00  0.88966115233E+00  0.88000000000E+00 0. -1.
        -11    1    4    4    0    0  0.53289806832E-02  0.24916615457E-02  0.14606283143E-01  0.15754714870E-01  0.51100000000E-03 0. -1.
         11    1    4    4    0    0 -0.79737640634E-01  0.36264205069E-01  0.88622815783E-01  0.12460918305E+00  0.51100000000E-03 0.  1.
</event>
<event>
 8    1  0.2929965E+004  0.1043930E+01  0.7957747E-01            NaN
         13   -1    0    0    0    0  0.00000000000E+00  0.00000000000E+00  0.74505805969E-08  0.10566000000E+00  0.10566000000E+00 0. -1.
     999900   -1    0    0    0    0 -0.00000000000E+00 -0.00000000000E+00 -0.74505805969E-08  0.93827000000E+00  0.93827000000E+00 0. -1.
     999902    2    1    2    0    0  0.94219155091E-02  0.10113462703E-01 -0.16752833980E-02  0.10300065955E+01  0.10299124844E+01 0.  0.
     999903    2    3    3    0    0 -0.10245586185E+00 -0.72028893247E-01  0.38258891021E-01  0.13823378694E+00  0.44265923917E-01 0.  0.
         14    1    1    2    0    0 -0.94219155091E-02 -0.10113462703E-01  0.16752833980E-02  0.13923404547E-01  0.00000000000E+00 0.  1.
     999901    1    3    3    0    0  0.11187777736E+00  0.82142355951E-01 -0.39934174419E-01  0.89177280851E+00  0.88000000000E+00 0. -1.
        -11    1    4    4    0    0 -0.76791519493E-01 -0.32088586002E-01  0.36063180349E-01  0.90705175793E-01  0.51100000000E-03 0.  1.
         11    1    4    4    0    0 -0.25664342361E-01 -0.39940307246E-01  0.21957106716E-02  0.47528611152E-01  0.51100000000E-03 0. -1.
</event>
<event>
 8    1  0.2929965E+004  0.1043930E+01  0.7957747E-01            NaN
         13   -1    0    0    0    0  0.00000000000E+00  0.00000000000E+00  0.74505805969E-08  0.10566000000E+00  0.10566000000E+00 0.  1.
     999900   -1    0    0    0    0 -0.00000000000E+00 -0.00000000000E+00 -0.74505805969E-08  0.93827000000E+00  0.93827000000E+00 0.  1.
     999902    2    1    2    0    0 -0.83646980555E-02 -0.11043903510E-01  0.42372614590E-02  0.10294424066E+01  0.10293404578E+01 0.  0.
     999903    2    3    3    0    0  0.55612546221E-01  0.11458289073E+00  0.26949404972E-01  0.13793187906E+00  0.45573442805E-01 0.  0.
         14    1    1    2    0    0  0.83646980555E-02  0.11043903510E-01 -0.42372614590E-02  0.14487593415E-01  0.00000000000E+00 0. -1.
     999901    1    3    3    0    0 -0.63977244276E-01 -0.12562679424E+00 -0.22712143513E-01  0.89151052752E+00  0.88000000000E+00 0.  1.
        -11    1    4    4    0    0  0.18005093617E-01  0.56179612968E-02  0.10198122658E-01  0.21447790376E-01  0.51100000000E-03 0.  1.
         11    1    4    4    0    0  0.37607452604E-01  0.10896492943E+00  0.16751282314E-01  0.11648408869E+00  0.51100000000E-03 0. -1.
</event>
<event>
 7    1  0.2929965E+004  0.1043930E+01  0.7957747E-01            NaN
         13   -1    0    0    0    0  0.00000000000E+00  0.00000000000E+00  0.74505805969E-08  0.10566000000E+00  0.10566000000E+00 0. -1.
     999900   -1    0    0    0    0 -0.00000000000E+00 -0.00000000000E+00 -0.74505805969E-08  0.93827000000E+00  0.93827000000E+00 0.  1.
     999903    2    1    2    0    0 -0.59951886496E-01 -0.93408264954E-01 -0.26503125265E-01  0.12285358219E+00  0.45511035510E-01 0.  0.
         14    1    1    2    0    0  0.96554135092E-03 -0.19953226429E-01 -0.23006553411E-01  0.30469082935E-01  0.00000000000E+00 0. -1.
     999901    1    1    2    0    0  0.58986345145E-01  0.11336149138E+00  0.49509678676E-01  0.89060733487E+00  0.88000000000E+00 0.  1.
        -11    1    3    3    0    0 -0.51007090532E-01 -0.70339887455E-01 -0.38871706611E-01  0.95187676448E-01  0.51100000000E-03 0.  1.
         11    1    3    3    0    0 -0.89447959643E-02 -0.23068377499E-01  0.12368581346E-01  0.27665905747E-01  0.51100000000E-03 0. -1.
</event>
<event>
 8    1  0.2929965E+004  0.1043930E+01  0.7957747E-01            NaN
         13   -1    0    0    0    0  0.00000000000E+00  0.00000000000E+00  0.74505805969E-08  0.10566000000E+00  0.10566000000E+00 0. -1.
     999900   -1    0    0    0    0 -0.00000000000E+00 -0.00000000000E+00 -0.74505805969E-08  0.93827000000E+00  0.93827000000E+00 0.  1.
     999902    2    1    2    0    0 -0.43465139207E-02 -0.43492391816E-02 -0.99211838659E-02  0.10322578985E+01  0.10321919061E+01 0.  0.
     999903    2    3    3    0    0  0.70500464588E-01  0.24356097050E-01 -0.11399629620E+00  0.14250641883E+00  0.41825696536E-01 0.  0.
         14    1    1    2    0    0  0.43465139207E-02  0.43492391816E-02  0.99211838659E-02  0.11672101526E-01  0.00000000000E+00 0. -1.
     999901    1    3    3    0    0 -0.74846978509E-01 -0.28705336232E-01  0.10407511233E+00  0.88975147964E+00  0.88000000000E+00 0. -1.
        -11    1    4    4    0    0  0.60767086397E-01  0.30535764533E-01 -0.72376159943E-01  0.99315866577E-01  0.51100000000E-03 0. -1.
         11    1    4    4    0    0  0.97333781912E-02 -0.61796674828E-02 -0.41620136255E-01  0.43190552255E-01  0.51100000000E-03 0.  1.
</event>
<event>
 8    1  0.2929965E+004  0.1043930E+01  0.7957747E-01            NaN
         13   -1    0    0    0    0  0.00000000000E+00  0.00000000000E+00  0.74505805969E-08  0.10566000000E+00  0.10566000000E+00 0. -1.
     999900   -1    0    0    0    0 -0.00000000000E+00 -0.00000000000E+00 -0.74505805969E-08  0.93827000000E+00  0.93827000000E+00 0. -1.
     999902    2    1    2    0    0 -0.94438236775E-02  0.83746115259E-02 -0.39712154411E-02  0.10306978242E+01  0.10306128829E+01 0.  0.
     999903    2    3    3    0    0  0.37376916106E-01 -0.90276247049E-01  0.88243878232E-01  0.13916667105E+00  0.45094851657E-01 0.  0.
         14    1    1    2    0    0  0.94438236775E-02 -0.83746115259E-02  0.39712154411E-02  0.13232175783E-01  0.00000000000E+00 0.  1.
     999901    1    3    3    0    0 -0.46820739784E-01  0.98650858575E-01 -0.92215093674E-01  0.89153115317E+00  0.88000000000E+00 0.  1.
        -11    1    4    4    0    0  0.13266867236E-01 -0.23718453867E-01  0.15284866852E-02  0.27224478189E-01  0.51100000000E-03 0. -1.
         11    1    4    4    0    0  0.24110048870E-01 -0.66557793182E-01  0.86715391547E-01  0.11194219286E+00  0.51100000000E-03 0.  1.
</event>
<event>
 8    1  0.2929965E+004  0.1043930E+01  0.7957747E-01            NaN
         13   -1    0    0    0    0  0.00000000000E+00  0.00000000000E+00  0.74505805969E-08  0.10566000000E+00  0.10566000000E+00 0. -1.
     999900   -1    0    0    0    0 -0.00000000000E+00 -0.00000000000E+00 -0.74505805969E-08  0.93827000000E+00  0.93827000000E+00 0. -1.
     999902    2    1    2    0    0  0.12994942043E-01 -0.48436400125E-02 -0.12988733757E-02  0.10300010216E+01  0.10299068346E+01 0.  0.
     999903    2    3    3    0    0  0.10435490584E+00 -0.54590523154E-01  0.64009554614E-01  0.14147044467E+00  0.45239275455E-01 0.  0.
         14    1    1    2    0    0 -0.12994942043E-01  0.48436400125E-02  0.12988733757E-02  0.13928978401E-01  0.00000000000E+00 0. -1.
     999901    1    3    3    0    0 -0.91359963793E-01  0.49746883142E-01 -0.65308427989E-01  0.88853057693E+00  0.88000000000E+00 0.  1.
        -11    1    4    4    0    0  0.93533198398E-01 -0.37491775087E-01  0.36199325612E-01  0.10707354808E+00  0.51100000000E-03 0. -1.
         11    1    4    4    0    0  0.10821707438E-01 -0.17098748067E-01  0.27810229002E-01  0.34396896597E-01  0.51100000000E-03 0.  1.
</event>
<event>
 8    1  0.2929965E+004  0.1043930E+01  0.7957747E-01            NaN
         13   -1    0    0    0    0  0.00000000000E+00  0.00000000000E+00  0.74505805969E-08  0.10566000000E+00  0.10566000000E+00 0. -1.
     999900   -1    0    0    0    0 -0.00000000000E+00 -0.00000000000E+00 -0.74505805969E-08  0.93827000000E+00  0.93827000000E+00 0.  1.
     999902    2    1    2    0    0  0.83796529898E-02 -0.79133278216E-02 -0.71973173642E-02  0.10303417434E+01  0.10302521378E+01 0.  0.
     999903    2    3    3    0    0  0.58082451104E-01 -0.90626935078E-01  0.78170163537E-01  0.14096020781E+00  0.46608939393E-01 0.  0.
         14    1    1    2    0    0 -0.83796529898E-02  0.79133278216E-02  0.71973173642E-02  0.13588256646E-01  0.00000000000E+00 0.  1.
     999901    1    3    3    0    0 -0.49702798115E-01  0.82713607256E-01 -0.85367480902E-01  0.88938153554E+00  0.88000000000E+00 0.  1.
        -11    1    4    4    0    0  0.29151010384E-01 -0.68974933429E-01  0.29835839961E-01  0.80608692553E-01  0.51100000000E-03 0.  1.
         11    1    4    4    0    0  0.28931440720E-01 -0.21652001649E-01  0.48334323576E-01  0.60351515259E-01  0.51100000000E-03 0. -1.
</event>
<event>
 8    1  0.2929965E+004  0.1043930E+01  0.7957747E-01            NaN
         13   -1    0    0    0    0  0.00000000000E+00  0.00000000000E+00  0.74505805969E-08  0.10566000000E+00  0.10566000000E+00 0. -1.
     999900   -1    0    0    0    0 -0.00000000000E+00 -0.00000000000E+00 -0.74505805969E-08  0.93827000000E+00  0.93827000000E+00 0.  1.
     999902    2    1    2    0    0 -0.44664672715E-02  0.39816050598E-02 -0.12744507811E-01  0.10298507604E+01  0.10297545162E+01 0.  0.
     999903    2    3    3    0    0  0.11141295653E+00  0.59917853180E-02  0.68064484172E-01  0.13858078172E+00  0.46077225221E-01 0.  0.
         14    1    1    2    0    0  0.44664672715E-02 -0.39816050598E-02  0.12744507811E-01  0.14079239613E-01  0.00000000000E+00 0. -1.
     999901    1    3    3    0    0 -0.11587942380E+00 -0.20101802582E-02 -0.80808991983E-01  0.89126997866E+00  0.88000000000E+00 0. -1.
        -11    1    4    4    0    0  0.54852206554E-01 -0.14472084377E-02  0.59416053549E-01  0.80878844678E-01  0.51100000000E-03 0.  1.
         11    1    4    4    0    0  0.56560749971E-01  0.74389937557E-02  0.86484306236E-02  0.57701937044E-01  0.51100000000E-03 0. -1.
</event>
<event>
 8    1  0.2929965E+004  0.1043930E+01  0.7957747E-01            NaN
         13   -1    0    0    0    0  0.00000000000E+00  0.00000000000E+00  0.74505805969E-08  0.10566000000E+00  0.10566000000E+00 0.  1.
     999900   -1    0    0    0    0 -0.00000000000E+00 -0.00000000000E+00 -0.74505805969E-08  0.93827000000E+00  0.93827000000E+00 0. -1.
     999902    2    1    2    0    0 -0.21573346383E-02 -0.32384467692E-02 -0.12939620196E-01  0.10304179535E+01  0.10303293568E+01 0.  0.
     999903    2    3    3    0    0 -0.75329145059E-01  0.10207134861E+00  0.37144885439E-01  0.13971445369E+00  0.45247604933E-01 0.  0.
         14    1    1    2    0    0  0.21573346383E-02  0.32384467692E-02  0.12939620196E-01  0.13512046515E-01  0.00000000000E+00 0.  1.
     999901    1    3    3    0    0  0.73171810421E-01 -0.10530979538E+00 -0.50084505635E-01  0.89070349980E+00  0.88000000000E+00 0.  1.
        -11    1    4    4    0    0 -0.57368488567E-01  0.41877351006E-01  0.27467179219E-01  0.76154862373E-01  0.51100000000E-03 0. -1.
         11    1    4    4    0    0 -0.17960656492E-01  0.60193997607E-01  0.96777062200E-02  0.63559591316E-01  0.51100000000E-03 0.  1.
</event>
<event>
 8    1  0.2929965E+004  0.1043930E+01  0.7957747E-01            NaN
         13   -1    0    0    0    0  0.00000000000E+00  0.00000000000E+00  0.74505805969E-08  0.10566000000E+00  0.10566000000E+00 0. -1.
     999900   -1    0    0    0    0 -0.00000000000E+00 -0.00000000000E+00 -0.74505805969E-08  0.93827000000E+00  0.93827000000E+00 0. -1.
     999902    2    1    2    0    0 -0.56566606474E-02 -0.47074031325E-02 -0.84762167486E-02  0.10327048628E+01  0.10326438544E+01 0.  0.
     999903    2    3    3    0    0  0.62354580170E-01 -0.63262107993E-01 -0.10272562630E+00  0.14313354274E+00  0.45215802363E-01 0.  0.
         14    1    1    2    0    0  0.56566606474E-02  0.47074031325E-02  0.84762167486E-02  0.11225137162E-01  0.00000000000E+00 0.  1.
     999901    1    3    3    0    0 -0.68011240818E-01  0.58554704860E-01  0.94249409550E-01  0.88957132010E+00  0.88000000000E+00 0.  1.
        -11    1    4    4    0    0  0.15994742784E-01 -0.21620594021E-02 -0.42971823607E-01  0.45905827982E-01  0.51100000000E-03 0. -1.
         11    1    4    4    0    0  0.46359837386E-01 -0.61100048590E-01 -0.59753802691E-01  0.97227714759E-01  0.51100000000E-03 0.  1.
</event>
<event>
 8    1  0.2929965E+004  0.1043930E+01  0.7957747E-01            NaN
         13   -1    0    0    0    0  0.00000000000E+00  0.00000000000E+00  0.74505805969E-08  0.10566000000E+00  0.10566000000E+00 0. -1.
     999900   -1    0    0    0    0 -0.00000000000E+00 -0.00000000000E+00 -0.74505805969E-08  0.93827000000E+00  0.93827000000E+00 0.  1.
     999902    2    1    2    0    0  0.31125376087E-03 -0.62442418188E-02 -0.16368326959E-01  0.10264083117E+01  0.10262587455E+01 0.  0.
     999903    2    3    3    0    0  0.39418894559E-01 -0.34519680551E-01 -0.12064143489E+00  0.13893899442E+00  0.44768635945E-01 0.  0.
         14    1    1    2    0    0 -0.31125376087E-03  0.62442418188E-02  0.16368326959E-01  0.17521688339E-01  0.00000000000E+00 0. -1.
     999901    1    3    3    0    0 -0.39107640798E-01  0.28275438732E-01  0.10427310793E+00  0.88746931724E+00  0.88000000000E+00 0. -1.
        -11    1    4    4    0    0  0.38575413301E-01 -0.47920564406E-02 -0.74682428284E-01  0.84194729833E-01  0.51100000000E-03 0.  1.
         11    1    4    4    0    0  0.84348125724E-03 -0.29727624110E-01 -0.45959006609E-01  0.54744264589E-01  0.51100000000E-03 0. -1.
</event>
<event>
 8    1  0.2929965E+004  0.1043930E+01  0.7957747E-01            NaN
         13   -1    0    0    0    0  0.00000000000E+00  0.00000000000E+00  0.74505805969E-08  0.10566000000E+00  0.10566000000E+00 0. -1.
     999900   -1    0    0    0    0 -0.00000000000E+00 -0.00000000000E+00 -0.74505805969E-08  0.93827000000E+00  0.93827000000E+00 0. -1.
     999902    2    1    2    0    0  0.13164365979E-01 -0.53982476088E-02  0.88208051884E-03  0.10296744862E+01  0.10295757999E+01 0.  0.
     999903    2    3    3    0    0  0.13877506827E-01  0.80066289150E-01 -0.10426949135E+00  0.13930290716E+00  0.43931506518E-01 0.  0.
         14    1    1    2    0    0 -0.13164365979E-01  0.53982476088E-02 -0.88208051884E-03  0.14255513843E-01  0.00000000000E+00 0.  1.
     999901    1    3    3    0    0 -0.71314084787E-03 -0.85464536759E-01  0.10515157186E+00  0.89037157899E+00  0.88000000000E+00 0.  1.
        -11    1    4    4    0    0  0.35167297723E-02  0.39132687156E-02 -0.36361537327E-01  0.36743755635E-01  0.51100000000E-03 0.  1.
         11    1    4    4    0    0  0.10360777055E-01  0.76153020435E-01 -0.67907954018E-01  0.10255915153E+00  0.51100000000E-03 0. -1.
</event>
<event>
 8    1  0.2929965E+004  0.1043930E+01  0.7957747E-01            NaN
         13   -1    0    0    0    0  0.00000000000E+00  0.00000000000E+00  0.74505805969E-08  0.10566000000E+00  0.10566000000E+00 0.  1.
     999900   -1    0    0    0    0 -0.00000000000E+00 -0.00000000000E+00 -0.74505805969E-08  0.93827000000E+00  0.93827000000E+00 0. -1.
     999902    2    1    2    0    0  0.11768088256E-01 -0.76057897610E-03  0.77829375347E-02  0.10298005804E+01  0.10297036442E+01 0.  0.
     999903    2    3    3    0    0  0.77148439995E-01 -0.18236869802E-01 -0.10598329272E+00  0.13990015547E+00  0.45333541140E-01 0.  0.
         14    1    1    2    0    0 -0.11768088256E-01  0.76057897610E-03 -0.77829375347E-02  0.14129419601E-01  0.00000000000E+00 0. -1.
     999901    1    3    3    0    0 -0.65380351739E-01  0.17476290825E-01  0.11376623025E+00  0.88990042492E+00  0.88000000000E+00 0.  1.
        -11    1    4    4    0    0  0.80587115580E-01 -0.97880604875E-02 -0.10069523850E+00  0.12934404317E+00  0.51100000000E-03 0. -1.
         11    1    4    4    0    0 -0.34386755844E-02 -0.84488093141E-02 -0.52880542211E-02  0.10556112307E-01  0.51100000000E-03 0.  1.
</event>
<event>
 8    1  0.2929965E+004  0.1043930E+01  0.7957747E-01            NaN
         13   -1    0    0    0    0  0.00000000000E+00  0.00000000000E+00  0.74505805969E-08  0.10566000000E+00  0.10566000000E+00 0.  1.
     999900   -1    0    0    0    0 -0.00000000000E+00 -0.00000000000E+00 -0.74505805969E-08  0.93827000000E+00  0.93827000000E+00 0.  1.
     999902    2    1    2    0    0 -0.86547959954E-02  0.91389995578E-02  0.44209104550E-02  0.10305894132E+01  0.10305030652E+01 0.  0.
     999903    2    3    3    0    0  0.15836417103E-01  0.24059270067E-01 -0.12943887472E+00  0.14000484335E+00  0.44914288263E-01 0.  0.
         14    1    1    2    0    0  0.86547959954E-02 -0.91389995578E-02 -0.44209104550E-02  0.13340586790E-01  0.00000000000E+00 0. -1.
     999901    1    3    3    0    0 -0.24491213098E-01 -0.14920270509E-01  0.13385978517E+00  0.89058456986E+00  0.88000000000E+00 0.  1.
        -11    1    4    4    0    0 -0.88038914279E-02 -0.86671452725E-02 -0.31784107906E-01  0.34104523861E-01  0.51100000000E-03 0. -1.
         11    1    4    4    0    0  0.24640308531E-01  0.32726415340E-01 -0.97654766811E-01  0.10590031949E+00  0.51100000000E-03 0.  1.
</event>
<event>
 8    1  0.2929965E+004  0.1043930E+01  0.7957747E-01            NaN
         13   -1    0    0    0    0  0.00000000000E+00  0.00000000000E+00  0.74505805969E-08  0.10566000000E+00  0.10566000000E+00 0. -1.
     999900   -1    0    0    0    0 -0.00000000000E+00 -0.00000000000E+00 -0.74505805969E-08  0.93827000000E+00  0.93827000000E+00 0. -1.
     999902    2    1    2    0    0  0.44892448024E-02  0.33855684420E-02 -0.13370900552E-01  0.10294249535E+01  0.10293227572E+01 0.  0.
     999903    2    3    3    0    0  0.77685337828E-02 -0.40774223998E-01 -0.12730348946E+00  0.14097603779E+00  0.44104164666E-01 0.  0.
         14    1    1    2    0    0 -0.44892448024E-02 -0.33855684420E-02  0.13370900552E-01  0.14505046506E-01  0.00000000000E+00 0. -1.
     999901    1    3    3    0    0 -0.32792889804E-02  0.44159792440E-01  0.11393258891E+00  0.88844891571E+00  0.88000000000E+00 0.  1.
        -11    1    4    4    0    0  0.67864468104E-02 -0.27751603335E-01 -0.25379858990E-01  0.38217871622E-01  0.51100000000E-03 0. -1.
         11    1    4    4    0    0  0.98208697243E-03 -0.13022620663E-01 -0.10192363047E+00  0.10275816617E+00  0.51100000000E-03 0.  1.
</event>
<event>
 8    1  0.2929965E+004  0.1043930E+01  0.7957747E-01            NaN
         13   -1    0    0    0    0  0.00000000000E+00  0.00000000000E+00  0.74505805969E-08  0.10566000000E+00  0.10566000000E+00 0.  1.
     999900   -1    0    0    0    0 -0.00000000000E+00 -0.00000000000E+00 -0.74505805969E-08  0.93827000000E+00  0.93827000000E+00 0. -1.
     999902    2    1    2    0    0 -0.70047106776E-02 -0.55216972589E-02 -0.12841923163E-01  0.10282944603E+01  0.10281755818E+01 0.  0.
     999903    2    3    3    0    0 -0.56733825635E-01 -0.10710154903E+00  0.50442604996E-01  0.13880225532E+00  0.45079273579E-01 0.  0.
         14    1    1    2    0    0  0.70047106776E-02  0.55216972589E-02  0.12841923163E-01  0.15635539735E-01  0.00000000000E+00 0.  1.
     999901    1    3    3    0    0  0.49729114958E-01  0.10157985177E+00 -0.63284528159E-01  0.88949220495E+00  0.88000000000E+00 0. -1.
        -11    1    4    4    0    0 -0.16254082855E-01 -0.69347532053E-01  0.14179631908E-01  0.72626431093E-01  0.51100000000E-03 0.  1.
         11    1    4    4    0    0 -0.40479742781E-01 -0.37754016976E-01  0.36262973088E-01  0.66175824223E-01  0.51100000000E-03 0. -1.
</event>
<event>
 8    1  0.2929965E+004  0.1043930E+01  0.7957747E-01            NaN
         13   -1    0    0    0    0  0.00000000000E+00  0.00000000000E+00  0.74505805969E-08  0.10566000000E+00  0.10566000000E+00 0.  1.
     999900   -1    0    0    0    0 -0.00000000000E+00 -0.00000000000E+00 -0.74505805969E-08  0.93827000000E+00  0.93827000000E+00 0.  1.
     999902    2    1    2    0    0  0.57784690133E-02  0.13673671553E-01 -0.56645872147E-02  0.10280414020E+01  0.10279186138E+01 0.  0.
     999903    2    3    3    0    0  0.78432958455E-01 -0.37278945328E-01 -0.98360432656E-01  0.13873416389E+00  0.45066004721E-01 0.  0.
         14    1    1    2    0    0 -0.57784690133E-02 -0.13673671553E-01  0.56645872147E-02  0.15888597993E-01  0.00000000000E+00 0.  1.
     999901    1    3    3    0    0 -0.72654489442E-01  0.50952616881E-01  0.92695845441E-01  0.88930723812E+00  0.88000000000E+00 0. -1.
        -11    1    4    4    0    0  0.62720093535E-01 -0.43333332363E-01 -0.60602708492E-01  0.97388588778E-01  0.51100000000E-03 0.  1.
         11    1    4    4    0    0  0.15712864920E-01  0.60543870345E-02 -0.37757724164E-01  0.41345575113E-01  0.51100000000E-03 0. -1.
</event>
<event>
 8    1  0.2929965E+004  0.1043930E+01  0.7957747E-01            NaN
         13   -1    0    0    0    0  0.00000000000E+00  0.00000000000E+00  0.74505805969E-08  0.10566000000E+00  0.10566000000E+00 0. -1.
     999900   -1    0    0    0    0 -0.00000000000E+00 -0.00000000000E+00 -0.74505805969E-08  0.93827000000E+00  0.93827000000E+00 0. -1.
     999902    2    1    2    0    0 -0.30166256634E-02  0.14015839523E-01  0.21630449472E-02  0.10294309465E+01  0.10293288353E+01 0.  0.
     999903    2    3    3    0    0 -0.77530259539E-01  0.51823499340E-01  0.95205900882E-01  0.14058974935E+00  0.44773852095E-01 0.  0.
         14    1    1    2    0    0  0.30166256634E-02 -0.14015839523E-01 -0.21630449472E-02  0.14499053465E-01  0.00000000000E+00 0. -1.
     999901    1    3    3    0    0  0.74513633875E-01 -0.37807659817E-01 -0.93042855935E-01  0.88884119719E+00  0.88000000000E+00 0. -1.
        -11    1    4    4    0    0 -0.25770272324E-01  0.29447427776E-01  0.66868072470E-01  0.77478114168E-01  0.51100000000E-03 0.  1.
         11    1    4    4    0    0 -0.51759987215E-01  0.22376071564E-01  0.28337828412E-01  0.63111635181E-01  0.51100000000E-03 0. -1.
</event>
<event>
 8    1  0.2929965E+004  0.1043930E+01  0.7957747E-01            NaN
         13   -1    0    0    0    0  0.00000000000E+00  0.00000000000E+00  0.74505805969E-08  0.10566000000E+00  0.10566000000E+00 0. -1.
     999900   -1    0    0    0    0 -0.00000000000E+00 -0.00000000000E+00 -0.74505805969E-08  0.93827000000E+00  0.93827000000E+00 0.  1.
     999902    2    1    2    0    0  0.23914654603E-02  0.12540637817E-01 -0.48913263240E-02  0.10302584318E+01  0.10301677167E+01 0.  0.
     999903    2    3    3    0    0  0.96265387571E-01  0.46183035192E-01 -0.80949905087E-01  0.14136640711E+00  0.45074120526E-01 0.  0.
         14    1    1    2    0    0 -0.23914654603E-02 -0.12540637817E-01  0.48913263240E-02  0.13671568202E-01  0.00000000000E+00 0. -1.
     999901    1    3    3    0    0 -0.93873922111E-01 -0.33642397375E-01  0.76058578763E-01  0.88889202469E+00  0.88000000000E+00 0. -1.
        -11    1    4    4    0    0  0.57535580569E-02  0.10137128155E-01 -0.28328648979E-01  0.30637204042E-01  0.51100000000E-03 0.  1.
         11    1    4    4    0    0  0.90511829514E-01  0.36045907037E-01 -0.52621256108E-01  0.11072920307E+00  0.51100000000E-03 0. -1.
</event>
<event>
 8    1  0.2929965E+004  0.1043930E+01  0.7957747E-01            NaN
         13   -1    0    0    0    0  0.00000000000E+00  0.00000000000E+00  0.74505805969E-08  0.10566000000E+00  0.10566000000E+00 0. -1.
     999900   -1    0    0    0    0 -0.00000000000E+00 -0.00000000000E+00 -0.74505805969E-08  0.93827000000E+00  0.93827000000E+00 0. -1.
     999902    2    1    2    0    0 -0.57498833836E-03 -0.97676844774E-02  0.87498141530E-02  0.10308037850E+01  0.10307202073E+01 0.  0.
     999903    2    3    3    0    0  0.81496335936E-01  0.40715580116E-01  0.97736083542E-01  0.14108314438E+00  0.45306736427E-01 0.  0.
         14    1    1    2    0    0  0.57498833836E-03  0.97676844774E-02 -0.87498141530E-02  0.13126214967E-01  0.00000000000E+00 0.  1.
     999901    1    3    3    0    0 -0.82071324274E-01 -0.50483264593E-01 -0.88986269389E-01  0.88972064066E+00  0.88000000000E+00 0.  1.
        -11    1    4    4    0    0  0.82479839843E-01  0.25708029916E-01  0.79162209218E-01  0.11717825426E+00  0.51100000000E-03 0.  1.
         11    1    4    4    0    0 -0.98350390691E-03  0.15007550200E-01  0.18573874324E-01  0.23904890114E-01  0.51100000000E-03 0. -1.
</event>
<event>
 8    1  0.2929965E+004  0.1043930E+01  0.7957747E-01            NaN
         13   -1    0    0    0    0  0.00000000000E+00  0.00000000000E+00  0.74505805969E-08  0.10566000000E+00  0.10566000000E+00 0.  1.
     999900   -1    0    0    0    0 -0.00000000000E+00 -0.00000000000E+00 -0.74505805969E-08  0.93827000000E+00  0.93827000000E+00 0.  1.
     999902    2    1    2    0    0  0.15484345518E-02 -0.78305766969E-02 -0.11018748944E-01  0.10303238099E+01  0.10302339661E+01 0.  0.
     999903    2    3    3    0    0  0.38231320183E-02 -0.10182936178E+00 -0.88121392336E-01  0.14196253008E+00  0.44767676960E-01 0.  0.
         14    1    1    2    0    0 -0.15484345518E-02  0.78305766969E-02  0.11018748944E-01  0.13606190108E-01  0.00000000000E+00 0. -1.
     999901    1    3    3    0    0 -0.22746974665E-02  0.93998785087E-01  0.77102643392E-01  0.88836127981E+00  0.88000000000E+00 0. -1.
        -11    1    4    4    0    0  0.35966878692E-02 -0.39223761458E-01 -0.78564295674E-02  0.40167452410E-01  0.51100000000E-03 0. -1.
         11    1    4    4    0    0  0.22644414913E-03 -0.62605600326E-01 -0.80264962769E-01  0.10179507767E+00  0.51100000000E-03 0.  1.
</event>
<event>
 8    1  0.2929965E+004  0.1043930E+01  0.7957747E-01            NaN
         13   -1    0    0    0    0  0.00000000000E+00  0.00000000000E+00  0.74505805969E-08  0.10566000000E+00  0.10566000000E+00 0.  1.
     999900   -1    0    0    0    0 -0.00000000000E+00 -0.00000000000E+00 -0.74505805969E-08  0.93827000000E+00  0.93827000000E+00 0. -1.
     999902    2    1    2    0    0 -0.45504691436E-02  0.42095689766E-02 -0.13680135407E-01  0.10289109007E+01  0.10288012773E+01 0.  0.
     999903    2    3    3    0    0 -0.16738137251E-01 -0.44265108461E-01  0.12231892537E+00  0.13706221498E+00  0.39806610074E-01 0.  0.
         14    1    1    2    0    0  0.45504691436E-02 -0.42095689766E-02  0.13680135407E-01  0.15019099345E-01  0.00000000000E+00 0.  1.
     999901    1    3    3    0    0  0.12187668108E-01  0.48474677438E-01 -0.13599906078E+00  0.89184868567E+00  0.88000000000E+00 0. -1.
        -11    1    4    4    0    0  0.59465303123E-02 -0.90795960901E-02  0.65986995133E-01  0.66875592974E-01  0.51100000000E-03 0. -1.
         11    1    4    4    0    0 -0.22684667564E-01 -0.35185512371E-01  0.56331930238E-01  0.70186622006E-01  0.51100000000E-03 0.  1.
</event>
<event>
 8    1  0.2929965E+004  0.1043930E+01  0.7957747E-01            NaN
         13   -1    0    0    0    0  0.00000000000E+00  0.00000000000E+00  0.74505805969E-08  0.10566000000E+00  0.10566000000E+00 0. -1.
     999900   -1    0    0    0    0 -0.00000000000E+00 -0.00000000000E+00 -0.74505805969E-08  0.93827000000E+00  0.93827000000E+00 0.  1.
     999902    2    1    2    0    0  0.14391870852E-01 -0.40595938293E-03  0.33219155476E-02  0.10291541456E+01  0.10290480696E+01 0.  0.
     999903    2    3    3    0    0 -0.59513727165E-01 -0.11432694717E+00 -0.22240238013E-01  0.13837165109E+00  0.45161389133E-01 0.  0.
         14    1    1    2    0    0 -0.14391870852E-01  0.40595938293E-03 -0.33219155476E-02  0.14775854376E-01  0.00000000000E+00 0.  1.
     999901    1    3    3    0    0  0.73905598017E-01  0.11392098778E+00  0.25562153561E-01  0.89078249454E+00  0.88000000000E+00 0.  1.
        -11    1    4    4    0    0 -0.45899555880E-01 -0.10362665518E+00 -0.42808875901E-02  0.11341886974E+00  0.51100000000E-03 0.  1.
         11    1    4    4    0    0 -0.13614171286E-01 -0.10700291989E-01 -0.17959350423E-01  0.24952781349E-01  0.51100000000E-03 0. -1.
</event>
<event>
 8    1  0.2929965E+004  0.1043930E+01  0.7957747E-01            NaN
         13   -1    0    0    0    0  0.00000000000E+00  0.00000000000E+00  0.74505805969E-08  0.10566000000E+00  0.10566000000E+00 0. -1.
     999900   -1    0    0    0    0 -0.00000000000E+00 -0.00000000000E+00 -0.74505805969E-08  0.93827000000E+00  0.93827000000E+00 0. -1.
     999902    2    1    2    0    0 -0.54102331824E-02  0.60383519543E-02 -0.11103825410E-01  0.10301812817E+01  0.10300895329E+01 0.  0.
     999903    2    3    3    0    0  0.14859743357E-01  0.10651110002E+00  0.77307658184E-01  0.13983177978E+00  0.44844467041E-01 0.  0.
         14    1    1    2    0    0  0.54102331824E-02 -0.60383519543E-02  0.11103825410E-01  0.13748718346E-01  0.00000000000E+00 0. -1.
     999901    1    3    3    0    0 -0.20269976540E-01 -0.10047274806E+00 -0.88411483594E-01  0.89034950187E+00  0.88000000000E+00 0. -1.
        -11    1    4    4    0    0  0.10940844708E-02  0.39732441117E-01  0.43757986675E-02  0.39990906878E-01  0.51100000000E-03 0.  1.
         11    1    4    4    0    0  0.13765658886E-01  0.66778658899E-01  0.72931859517E-01  0.99840872905E-01  0.51100000000E-03 0. -1.
</event>
<event>
 8    1  0.2929965E+004  0.1043930E+01  0.7957747E-01            NaN
         13   -1    0    0    0    0  0.00000000000E+00  0.00000000000E+00  0.74505805969E-08  0.10566000000E+00  0.10566000000E+00 0. -1.
     999900   -1    0    0    0    0 -0.00000000000E+00 -0.00000000000E+00 -0.74505805969E-08  0.93827000000E+00  0.93827000000E+00 0.  1.
     999902    2    1    2    0    0 -0.55832283977E-02 -0.72017469365E-02 -0.73393654401E-02  0.10322294067E+01  0.10321630899E+01 0.  0.
     999903    2    3    3    0    0 -0.71042508471E-01 -0.11552183978E+00 -0.10803723473E-01  0.14316801308E+00  0.44587285765E-01 0.  0.
         14    1    1    2    0    0  0.55832283977E-02  0.72017469365E-02  0.73393654401E-02  0.11700593290E-01  0.00000000000E+00 0. -1.
     999901    1    3    3    0    0  0.65459280074E-01  0.10832009285E+00  0.34643580327E-02  0.88906139363E+00  0.88000000000E+00 0. -1.
        -11    1    4    4    0    0 -0.17909685685E-01 -0.71306943351E-01 -0.27473535124E-02  0.73574765265E-01  0.51100000000E-03 0.  1.
         11    1    4    4    0    0 -0.53132822786E-01 -0.44214896433E-01 -0.80563699603E-02  0.69593247817E-01  0.51100000000E-03 0. -1.
</event>
<event>
 8    1  0.2929965E+004  0.1043930E+01  0.7957747E-01            NaN
         13   -1    0    0    0    0  0.00000000000E+00  0.00000000000E+00  0.74505805969E-08  0.10566000000E+00  0.10566000000E+00 0. -1.
     999900   -1    0    0    0    0 -0.00000000000E+00 -0.00000000000E+00 -0.74505805969E-08  0.93827000000E+00  0.93827000000E+00 0.  1.
     999902    2    1    2    0    0  0.54259217640E-02 -0.32802195171E-02  0.14248129892E-01  0.10283348189E+01  0.10282165580E+01 0.  0.
     999903    2    3    3    0    0 -0.67565959193E-01 -0.52378756090E-01 -0.97077968562E-01  0.13696958449E+00  0.45031568526E-01 0.  0.
         14    1    1    2    0    0 -0.54259217640E-02  0.32802195171E-02 -0.14248129892E-01  0.15595181066E-01  0.00000000000E+00 0.  1.
     999901    1    3    3    0    0  0.72991880957E-01  0.49098536573E-01  0.11132609845E+00  0.89136523444E+00  0.88000000000E+00 0. -1.
        -11    1    4    4    0    0 -0.54799382196E-01 -0.59372479075E-01 -0.73342644466E-01  0.10912134612E+00  0.51100000000E-03 0. -1.
         11    1    4    4    0    0 -0.12766576997E-01  0.69937229845E-02 -0.23735324096E-01  0.27848238370E-01  0.51100000000E-03 0.  1.
</event>
<event>
 8    1  0.2929965E+004  0.1043930E+01  0.7957747E-01            NaN
         13   -1    0    0    0    0  0.00000000000E+00  0.00000000000E+00  0.74505805969E-08  0.10566000000E+00  0.10566000000E+00 0.  1.
     999900   -1    0    0    0    0 -0.00000000000E+00 -0.00000000000E+00 -0.74505805969E-08  0.93827000000E+00  0.93827000000E+00 0. -1.
     999902    2    1    2    0    0 -0.13518828990E-01  0.41817444990E-03  0.10737043909E-02  0.10303621539E+01  0.10302728191E+01 0.  0.
     999903    2    3    3    0    0  0.22290797868E-01  0.13053590108E+00  0.64413392808E-02  0.14005784430E+00  0.45146514358E-01 0.  0.
         14    1    1    2    0    0  0.13518828990E-01 -0.41817444990E-03 -0.10737043909E-02  0.13567846117E-01  0.00000000000E+00 0. -1.
     999901    1    3    3    0    0 -0.35809626859E-01 -0.13011772663E+00 -0.53676348898E-02  0.89030430958E+00  0.88000000000E+00 0. -1.
        -11    1    4    4    0    0 -0.17918152778E-02  0.89254594558E-01  0.17564209286E-01  0.90985470381E-01  0.51100000000E-03 0.  1.
         11    1    4    4    0    0  0.24082613146E-01  0.41281306519E-01 -0.11122870005E-01  0.49072373919E-01  0.51100000000E-03 0. -1.
</event>
<event>
 8    1  0.2929965E+004  0.1043930E+01  0.7957747E-01            NaN
         13   -1    0    0    0    0  0.00000000000E+00  0.00000000000E+00  0.74505805969E-08  0.10566000000E+00  0.10566000000E+00 0. -1.
     999900   -1    0    0    0    0 -0.00000000000E+00 -0.00000000000E+00 -0.74505805969E-08  0.93827000000E+00  0.93827000000E+00 0.  1.
     999902    2    1    2    0    0  0.33427107370E-02  0.13357022903E-01 -0.73257786514E-02  0.10283335001E+01  0.10282152190E+01 0.  0.
     999903    2    3    3    0    0 -0.12267801298E+00  0.41220423583E-01  0.20699067837E-01  0.13847790288E+00  0.44706375259E-01 0.  0.
         14    1    1    2    0    0 -0.33427107370E-02 -0.13357022903E-01  0.73257786514E-02  0.15596499888E-01  0.00000000000E+00 0. -1.
     999901    1    3    3    0    0  0.12602072371E+00 -0.27863400680E-01 -0.28024846488E-01  0.88985559723E+00  0.88000000000E+00 0. -1.
        -11    1    4    4    0    0 -0.23623491661E-01  0.28394994718E-01  0.79320288814E-02  0.37782579140E-01  0.51100000000E-03 0.  1.
         11    1    4    4    0    0 -0.99054521316E-01  0.12825428865E-01  0.12767038956E-01  0.10069532374E+00  0.51100000000E-03 0. -1.
</event>
<event>
 8    1  0.2929965E+004  0.1043930E+01  0.7957747E-01            NaN
         13   -1    0    0    0    0  0.00000000000E+00  0.00000000000E+00  0.74505805969E-08  0.10566000000E+00  0.10566000000E+00 0.  1.
     999900   -1    0    0    0    0 -0.00000000000E+00 -0.00000000000E+00 -0.74505805969E-08  0.93827000000E+00  0.93827000000E+00 0. -1.
     999902    2    1    2    0    0 -0.11676612699E-01  0.38395005092E-02 -0.66162254411E-02  0.10299707920E+01  0.10298761930E+01 0.  0.
     999903    2    3    3    0    0  0.70110099138E-01  0.10358770447E+00  0.42012013241E-01  0.13923880314E+00  0.44458930762E-01 0.  0.
         14    1    1    2    0    0  0.11676612699E-01 -0.38395005092E-02  0.66162254411E-02  0.13959207978E-01  0.00000000000E+00 0.  1.
     999901    1    3    3    0    0 -0.81786711837E-01 -0.99748203958E-01 -0.48628238682E-01  0.89073198889E+00  0.88000000000E+00 0. -1.
        -11    1    4    4    0    0  0.72015168912E-01  0.83954002778E-01  0.25506988592E-01  0.11351355304E+00  0.51100000000E-03 0.  1.
         11    1    4    4    0    0 -0.19050697737E-02  0.19633701690E-01  0.16505024649E-01  0.25725250097E-01  0.51100000000E-03 0. -1.
</event>
<event>
 8    1  0.2929965E+004  0.1043930E+01  0.7957747E-01            NaN
         13   -1    0    0    0    0  0.00000000000E+00  0.00000000000E+00  0.74505805969E-08  0.10566000000E+00  0.10566000000E+00 0.  1.
     999900   -1    0    0    0    0 -0.00000000000E+00 -0.00000000000E+00 -0.74505805969E-08  0.93827000000E+00  0.93827000000E+00 0. -1.
     999902    2    1    2    0    0 -0.86880084645E-02 -0.92069213054E-02  0.67266064371E-02  0.10295948640E+01  0.10294950645E+01 0.  0.
     999903    2    3    3    0    0 -0.12819014343E+00  0.26574097874E-01  0.24749356893E-01  0.14061462733E+00  0.44956058565E-01 0.  0.
         14    1    1    2    0    0  0.86880084645E-02  0.92069213054E-02 -0.67266064371E-02  0.14335136036E-01  0.00000000000E+00 0. -1.
     999901    1    3    3    0    0  0.11950213497E+00 -0.35781019180E-01 -0.18022750456E-01  0.88898023664E+00  0.88000000000E+00 0. -1.
        -11    1    4    4    0    0 -0.10948295646E+00  0.13255006217E-01  0.51241353963E-02  0.11040258525E+00  0.51100000000E-03 0. -1.
         11    1    4    4    0    0 -0.18707186973E-01  0.13319091657E-01  0.19625221497E-01  0.30212042083E-01  0.51100000000E-03 0.  1.
</event>
<event>
 8    1  0.2929965E+004  0.1043930E+01  0.7957747E-01            NaN
         13   -1    0    0    0    0  0.00000000000E+00  0.00000000000E+00  0.74505805969E-08  0.10566000000E+00  0.10566000000E+00 0. -1.
     999900   -1    0    0    0    0 -0.00000000000E+00 -0.00000000000E+00 -0.74505805969E-08  0.93827000000E+00  0.93827000000E+00 0.  1.
     999902    2    1    2    0    0  0.44460330578E-02  0.13308167846E-01  0.33105154261E-02  0.10295135492E+01  0.10294126063E+01 0.  0.
     999903    2    3    3    0    0  0.11011677678E+00  0.18374132717E-01  0.67126789101E-01  0.14088286839E+00  0.53653178015E-01 0.  0.
         14    1    1    2    0    0 -0.44460330578E-02 -0.13308167846E-01 -0.33105154261E-02  0.14416450803E-01  0.00000000000E+00 0.  1.
     999901    1    3    3    0    0 -0.10567074372E+00 -0.50659648719E-02 -0.63816273675E-01  0.88863068080E+00  0.88000000000E+00 0.  1.
        -11    1    4    4    0    0  0.72020296423E-01  0.13729075650E-01  0.71304495741E-01  0.10227415533E+00  0.51100000000E-03 0. -1.
         11    1    4    4    0    0  0.38096480355E-01  0.46450570677E-02 -0.41777066400E-02  0.38608713063E-01  0.51100000000E-03 0.  1.
</event>
<event>
 8    1  0.2929965E+004  0.1043930E+01  0.7957747E-01            NaN
         13   -1    0    0    0    0  0.00000000000E+00  0.00000000000E+00  0.74505805969E-08  0.10566000000E+00  0.10566000000E+00 0. -1.
     999900   -1    0    0    0    0 -0.00000000000E+00 -0.00000000000E+00 -0.74505805969E-08  0.93827000000E+00  0.93827000000E+00 0. -1.
     999902    2    1    2    0    0  0.10627288533E-01  0.38144583312E-02 -0.73982778528E-02  0.10304309678E+01  0.10303425429E+01 0.  0.
     999903    2    3    3    0    0  0.76369252802E-01  0.35768967327E-01 -0.10497504786E+00  0.14202547340E+00  0.45164063428E-01 0.  0.
         14    1    1    2    0    0 -0.10627288533E-01 -0.38144583312E-02  0.73982778528E-02  0.13499032154E-01  0.00000000000E+00 0. -1.
     999901    1    3    3    0    0 -0.65741964269E-01 -0.31954508996E-01  0.97576770005E-01  0.88840549444E+00  0.88000000000E+00 0.  1.
        -11    1    4    4    0    0  0.12323622266E-01  0.28225938933E-01 -0.39914527609E-01  0.50418309468E-01  0.51100000000E-03 0.  1.
         11    1    4    4    0    0  0.64045630536E-01  0.75430283948E-02 -0.65060520249E-01  0.91607163935E-01  0.51100000000E-03 0. -1.
</event>
<event>
 8    1  0.2929965E+004  0.1043930E+01  0.7957747E-01            NaN
         13   -1    0    0    0    0  0.00000000000E+00  0.00000000000E+00  0.74505805969E-08  0.10566000000E+00  0.10566000000E+00 0.  1.
     999900   -1    0    0    0    0 -0.00000000000E+00 -0.00000000000E+00 -0.74505805969E-08  0.93827000000E+00  0.93827000000E+00 0.  1.
     999902    2    1    2    0    0 -0.14349999350E-01 -0.89835240279E-02 -0.94180143424E-02  0.10245566890E+01  0.10243735079E+01 0.  0.
     999903    2    3    3    0    0  0.29739032016E-01 -0.10754327410E+00  0.61330947444E-01  0.13513930519E+00  0.45289964262E-01 0.  0.
         14    1    1    2    0    0  0.14349999350E-01  0.89835240279E-02  0.94180143424E-02  0.19373311009E-01  0.00000000000E+00 0.  1.
     999901    1    3    3    0    0 -0.44089031366E-01  0.98559750069E-01 -0.70748961787E-01  0.88941738380E+00  0.88000000000E+00 0.  1.
        -11    1    4    4    0    0  0.50137069413E-02 -0.26430195469E-01 -0.51397567037E-02  0.27392895243E-01  0.51100000000E-03 0. -1.
         11    1    4    4    0    0  0.24725325075E-01 -0.81113078629E-01  0.66470704148E-01  0.10774640994E+00  0.51100000000E-03 0.  1.
</event>
<event>
 8    1  0.2929965E+004  0.1043930E+01  0.7957747E-01            NaN
         13   -1    0    0    0    0  0.00000000000E+00  0.00000000000E+00  0.74505805969E-08  0.10566000000E+00  0.10566000000E+00 0.  1.
     999900   -1    0    0    0    0 -0.00000000000E+00 -0.00000000000E+00 -0.74505805969E-08  0.93827000000E+00  0.93827000000E+00 0. -1.
     999902    2    1    2    0    0 -0.64713174300E-03  0.58289145316E-02 -0.11956108853E-01  0.10306129597E+01  0.10305269182E+01 0.  0.
     999903    2    3    3    0    0 -0.11551690523E+00  0.63685586147E-01  0.18182925845E-01  0.14075295904E+00  0.45615429522E-01 0.  0.
         14    1    1    2    0    0  0.64713174300E-03 -0.58289145316E-02  0.11956108853E-01  0.13317040325E-01  0.00000000000E+00 0.  1.
     999901    1    3    3    0    0  0.11486977349E+00 -0.57856671616E-01 -0.30139034697E-01  0.88986000063E+00  0.88000000000E+00 0.  1.
        -11    1    4    4    0    0 -0.22313344370E-01  0.52790765235E-02  0.20462180859E-01  0.30736231916E-01  0.51100000000E-03 0.  1.
         11    1    4    4    0    0 -0.93203560860E-01  0.58406509624E-01 -0.22792550142E-02  0.11001672713E+00  0.51100000000E-03 0. -1.
</event>
<event>
 8    1  0.2929965E+004  0.1043930E+01  0.7957747E-01            NaN
         13   -1    0    0    0    0  0.00000000000E+00  0.00000000000E+00  0.74505805969E-08  0.10566000000E+00  0.10566000000E+00 0.  1.
     999900   -1    0    0    0    0 -0.00000000000E+00 -0.00000000000E+00 -0.74505805969E-08  0.93827000000E+00  0.93827000000E+00 0. -1.
     999902    2    1    2    0    0 -0.10117822271E-01  0.15533908877E-01  0.14732950396E-01  0.10202502095E+01  0.10199753710E+01 0.  0.
     999903    2    3    3    0    0 -0.10210167993E+00 -0.26292343610E-01  0.63154284272E-01  0.13314531654E+00  0.51216904607E-01 0.  0.
         14    1    1    2    0    0  0.10117822271E-01 -0.15533908877E-01 -0.14732950396E-01  0.23679790537E-01  0.00000000000E+00 0.  1.
     999901    1    3    3    0    0  0.91983857663E-01  0.41826252487E-01 -0.48421333876E-01  0.88710489292E+00  0.88000000000E+00 0.  1.
        -11    1    4    4    0    0 -0.92046989462E-01 -0.15529487612E-01  0.70210307465E-01  0.11680565761E+00  0.51100000000E-03 0.  1.
         11    1    4    4    0    0 -0.10054690473E-01 -0.10762855998E-01 -0.70560231934E-02  0.16339658933E-01  0.51100000000E-03 0. -1.
</event>
<event>
 8    1  0.2929965E+004  0.1043930E+01  0.7957747E-01            NaN
         13   -1    0    0    0    0  0.00000000000E+00  0.00000000000E+00  0.74505805969E-08  0.10566000000E+00  0.10566000000E+00 0.  1.
     999900   -1    0    0    0    0 -0.00000000000E+00 -0.00000000000E+00 -0.74505805969E-08  0.93827000000E+00  0.93827000000E+00 0. -1.
     999902    2    1    2    0    0 -0.10532843264E-01  0.27654641385E-02  0.73257399172E-02  0.10308054031E+01  0.10307218461E+01 0.  0.
     999903    2    3    3    0    0 -0.86910614034E-01 -0.78687471992E-01 -0.63989377607E-01  0.14088743457E+00  0.44826952763E-01 0.  0.
         14    1    1    2    0    0  0.10532843264E-01 -0.27654641385E-02 -0.73257399172E-02  0.13124596926E-01  0.00000000000E+00 0. -1.
     999901    1    3    3    0    0  0.76377770769E-01  0.81452936131E-01  0.71315117524E-01  0.88991796850E+00  0.88000000000E+00 0. -1.
        -11    1    4    4    0    0 -0.56736449761E-01 -0.51319138636E-01 -0.16401985821E-01  0.78242986789E-01  0.51100000000E-03 0.  1.
         11    1    4    4    0    0 -0.30174164273E-01 -0.27368333357E-01 -0.47587391786E-01  0.62644447785E-01  0.51100000000E-03 0. -1.
</event>
<event>
 8    1  0.2929965E+004  0.1043930E+01  0.7957747E-01            NaN
         13   -1    0    0    0    0  0.00000000000E+00  0.00000000000E+00  0.74505805969E-08  0.10566000000E+00  0.10566000000E+00 0.  1.
     999900   -1    0    0    0    0 -0.00000000000E+00 -0.00000000000E+00 -0.74505805969E-08  0.93827000000E+00  0.93827000000E+00 0.  1.
     999902    2    1    2    0    0 -0.75922399620E-02 -0.97161911431E-02 -0.83944775996E-02  0.10290131058E+01  0.10289049802E+01 0.  0.
     999903    2    3    3    0    0 -0.49744425631E-01  0.11383884458E+00  0.39674917162E-01  0.13808475835E+00  0.45381835776E-01 0.  0.
         14    1    1    2    0    0  0.75922399620E-02  0.97161911431E-02  0.83944775996E-02  0.14916894185E-01  0.00000000000E+00 0.  1.
     999901    1    3    3    0    0  0.42152185669E-01 -0.12355503573E+00 -0.48069394762E-01  0.89092834747E+00  0.88000000000E+00 0.  1.
        -11    1    4    4    0    0 -0.31882341354E-01  0.32861148269E-01 -0.82802694640E-03  0.45796129808E-01  0.51100000000E-03 0.  1.
         11    1    4    4    0    0 -0.17862084277E-01  0.80977696314E-01  0.40502944109E-01  0.92288628538E-01  0.51100000000E-03 0. -1.
</event>
<event>
 8    1  0.2929965E+004  0.1043930E+01  0.7957747E-01            NaN
         13   -1    0    0    0    0  0.00000000000E+00  0.00000000000E+00  0.74505805969E-08  0.10566000000E+00  0.10566000000E+00 0.  1.
     999900   -1    0    0    0    0 -0.00000000000E+00 -0.00000000000E+00 -0.74505805969E-08  0.93827000000E+00  0.93827000000E+00 0. -1.
     999902    2    1    2    0    0  0.17967110321E-02  0.99698724556E-02  0.96062299093E-02  0.10299691196E+01  0.10298744978E+01 0.  0.
     999903    2    3    3    0    0 -0.91353907299E-01  0.18839126601E-01  0.96045098663E-01  0.14079681947E+00  0.43573321256E-01 0.  0.
         14    1    1    2    0    0 -0.17967110321E-02 -0.99698724556E-02 -0.96062299093E-02  0.13960880358E-01  0.00000000000E+00 0. -1.
     999901    1    3    3    0    0  0.93150618331E-01 -0.88692541451E-02 -0.86438868754E-01  0.88917230017E+00  0.88000000000E+00 0. -1.
        -11    1    4    4    0    0 -0.65114633132E-01 -0.19092968901E-02  0.81447883118E-01  0.10429563580E+00  0.51100000000E-03 0. -1.
         11    1    4    4    0    0 -0.26239274167E-01  0.20748423491E-01  0.14597215545E-01  0.36501183663E-01  0.51100000000E-03 0.  1.
</event>
<event>
 8    1  0.2929965E+004  0.1043930E+01  0.7957747E-01            NaN
         13   -1    0    0    0    0  0.00000000000E+00  0.00000000000E+00  0.74505805969E-08  0.10566000000E+00  0.10566000000E+00 0. -1.
     999900   -1    0    0    0    0 -0.00000000000E+00 -0.00000000000E+00 -0.74505805969E-08  0.93827000000E+00  0.93827000000E+00 0. -1.
     999902    2    1    2    0    0 -0.98326688353E-02  0.16655134398E-02 -0.90043770536E-02  0.10304937015E+01  0.10304061018E+01 0.  0.
     999903    2    3    3    0    0 -0.79369098129E-01 -0.10601326055E+00 -0.17523875113E-01  0.14116664399E+00  0.45636279703E-01 0.  0.
         14    1    1    2    0    0  0.98326688353E-02 -0.16655134398E-02  0.90043770536E-02  0.13436298507E-01  0.00000000000E+00 0. -1.
     999901    1    3    3    0    0  0.69536429294E-01  0.10767877399E+00  0.85194980595E-02  0.88932705751E+00  0.88000000000E+00 0.  1.
        -11    1    4    4    0    0 -0.84674024149E-01 -0.93046978873E-01 -0.18270692645E-01  0.12712792759E+00  0.51100000000E-03 0.  1.
         11    1    4    4    0    0  0.53049260195E-02 -0.12966281677E-01  0.74681753202E-03  0.14038716395E-01  0.51100000000E-03 0. -1.
</event>
<event>
 7    1  0.2929965E+004  0.1043930E+01  0.7957747E-01            NaN
         13   -1    0    0    0    0  0.00000000000E+00  0.00000000000E+00  0.74505805969E-08  0.10566000000E+00  0.10566000000E+00 0.  1.
     999900   -1    0    0    0    0 -0.00000000000E+00 -0.00000000000E+00 -0.74505805969E-08  0.93827000000E+00  0.93827000000E+00 0. -1.
     999902    2    1    2    0    0 -0.72341332675E-02  0.94490746688E-02 -0.84584221428E-02  0.10293299109E+01  0.10292263613E+01 0.  0.
         14    1    1    2    0    0  0.72341332675E-02 -0.94490746688E-02  0.84584221428E-02  0.14600089088E-01  0.00000000000E+00 0. -1.
     999901    1    3    3    0    0 -0.17547525429E-02  0.11982606720E-01 -0.12863583491E+00  0.88943456198E+00  0.88000000000E+00 0. -1.
        -11    1    3    3    0    0  0.17564366717E-01  0.26975836438E-01  0.39545433583E-01  0.50993187467E-01  0.51100000000E-03 0. -1.
         11    1    3    3    0    0 -0.23043747442E-01 -0.29509368490E-01  0.80631979186E-01  0.88902161466E-01  0.51100000000E-03 0.  1.
</event>
<event>
 8    1  0.2929965E+004  0.1043930E+01  0.7957747E-01            NaN
         13   -1    0    0    0    0  0.00000000000E+00  0.00000000000E+00  0.74505805969E-08  0.10566000000E+00  0.10566000000E+00 0.  1.
     999900   -1    0    0    0    0 -0.00000000000E+00 -0.00000000000E+00 -0.74505805969E-08  0.93827000000E+00  0.93827000000E+00 0.  1.
     999902    2    1    2    0    0  0.58805853371E-02  0.58912044204E-02  0.11879876957E-01  0.10294241719E+01  0.10293219645E+01 0.  0.
     999903    2    3    3    0    0  0.16930834814E-02  0.53535997290E-01  0.12408911704E+00  0.14101071236E+00  0.40211223499E-01 0.  0.
         14    1    1    2    0    0 -0.58805853371E-02 -0.58912044204E-02 -0.11879876957E-01  0.14505828137E-01  0.00000000000E+00 0. -1.
     999901    1    3    3    0    0  0.41875018557E-02 -0.47644792870E-01 -0.11220924009E+00  0.88841345950E+00  0.88000000000E+00 0.  1.
        -11    1    4    4    0    0 -0.85397077113E-02  0.24399320419E-01  0.95451860470E-01  0.98891719739E-01  0.51100000000E-03 0. -1.
         11    1    4    4    0    0  0.10232791193E-01  0.29136676872E-01  0.28637256572E-01  0.42118992625E-01  0.51100000000E-03 0.  1.
</event>
<event>
 8    1  0.2929965E+004  0.1043930E+01  0.7957747E-01            NaN
         13   -1    0    0    0    0  0.00000000000E+00  0.00000000000E+00  0.74505805969E-08  0.10566000000E+00  0.10566000000E+00 0. -1.
     999900   -1    0    0    0    0 -0.00000000000E+00 -0.00000000000E+00 -0.74505805969E-08  0.93827000000E+00  0.93827000000E+00 0. -1.
     999902    2    1    2    0    0 -0.71190690137E-02 -0.72788505662E-02 -0.91079427001E-02  0.10302692010E+01  0.10301786297E+01 0.  0.
     999903    2    3    3    0    0 -0.11152036148E+00 -0.47643232677E-01  0.56344874854E-01  0.14076766388E+00  0.43978649667E-01 0.  0.
         14    1    1    2    0    0  0.71190690137E-02  0.72788505662E-02  0.91079427001E-02  0.13660799004E-01  0.00000000000E+00 0. -1.
     999901    1    3    3    0    0  0.10440129247E+00  0.40364382111E-01 -0.65452817554E-01  0.88950153712E+00  0.88000000000E+00 0. -1.
        -11    1    4    4    0    0 -0.38160665860E-01  0.45006282925E-02  0.22993120553E-01  0.44782103430E-01  0.51100000000E-03 0.  1.
         11    1    4    4    0    0 -0.73359695620E-01 -0.52143860970E-01  0.33351754302E-01  0.95985560447E-01  0.51100000000E-03 0. -1.
</event>
<event>
 8    1  0.2929965E+004  0.1043930E+01  0.7957747E-01            NaN
         13   -1    0    0    0    0  0.00000000000E+00  0.00000000000E+00  0.74505805969E-08  0.10566000000E+00  0.10566000000E+00 0.  1.
     999900   -1    0    0    0    0 -0.00000000000E+00 -0.00000000000E+00 -0.74505805969E-08  0.93827000000E+00  0.93827000000E+00 0. -1.
     999902    2    1    2    0    0 -0.64925453610E-02 -0.12057065007E-01  0.12550763980E-02  0.10301785936E+01  0.10300868087E+01 0.  0.
     999903    2    3    3    0    0 -0.10281517314E+00  0.58867658285E-01  0.59663691477E-01  0.14016739628E+00  0.45285559281E-01 0.  0.
         14    1    1    2    0    0  0.64925453610E-02  0.12057065007E-01 -0.12550763980E-02  0.13751406423E-01  0.00000000000E+00 0. -1.
     999901    1    3    3    0    0  0.96322627782E-01 -0.70924723292E-01 -0.58408615079E-01  0.89001119730E+00  0.88000000000E+00 0.  1.
        -11    1    4    4    0    0 -0.29673373747E-01  0.38471369455E-01  0.36526509263E-01  0.60786531216E-01  0.51100000000E-03 0. -1.
         11    1    4    4    0    0 -0.73141799395E-01  0.20396288830E-01  0.23137182214E-01  0.79380865066E-01  0.51100000000E-03 0.  1.
</event>
<event>
 7    1  0.2929965E+004  0.1043930E+01  0.7957747E-01            NaN
         13   -1    0    0    0    0  0.00000000000E+00  0.00000000000E+00  0.74505805969E-08  0.10566000000E+00  0.10566000000E+00 0. -1.
     999900   -1    0    0    0    0 -0.00000000000E+00 -0.00000000000E+00 -0.74505805969E-08  0.93827000000E+00  0.93827000000E+00 0.  1.
     999903    2    1    2    0    0 -0.42569627477E-01 -0.10396094623E+00 -0.23905040228E-01  0.12349282352E+00  0.45375929618E-01 0.  0.
         14    1    1    2    0    0 -0.30131005408E-01  0.92567156945E-02 -0.49461173542E-02  0.31906556524E-01  0.00000000000E+00 0. -1.
     999901    1    1    2    0    0  0.72700632886E-01  0.94704230534E-01  0.28851157582E-01  0.88853061995E+00  0.88000000000E+00 0. -1.
        -11    1    3    3    0    0 -0.51497252299E-01 -0.77158003831E-01 -0.20780328809E-01  0.95065281444E-01  0.51100000000E-03 0. -1.
         11    1    3    3    0    0  0.89276248220E-02 -0.26802942397E-01 -0.31247114191E-02  0.28427542078E-01  0.51100000000E-03 0.  1.
</event>
<event>
 8    1  0.2929965E+004  0.1043930E+01  0.7957747E-01            NaN
         13   -1    0    0    0    0  0.00000000000E+00  0.00000000000E+00  0.74505805969E-08  0.10566000000E+00  0.10566000000E+00 0. -1.
     999900   -1    0    0    0    0 -0.00000000000E+00 -0.00000000000E+00 -0.74505805969E-08  0.93827000000E+00  0.93827000000E+00 0.  1.
     999902    2    1    2    0    0  0.19090417426E-02 -0.12846043400E-01  0.51175704422E-02  0.10299709600E+01  0.10298763632E+01 0.  0.
     999903    2    3    3    0    0  0.88448594016E-01 -0.19679795133E-01  0.98459524222E-01  0.14078677511E+00  0.43774307704E-01 0.  0.
         14    1    1    2    0    0 -0.19090417426E-02  0.12846043400E-01 -0.51175704422E-02  0.13959040033E-01  0.00000000000E+00 0. -1.
     999901    1    3    3    0    0 -0.86539552274E-01  0.68337517329E-02 -0.93341953780E-01  0.88918418486E+00  0.88000000000E+00 0.  1.
        -11    1    4    4    0    0  0.58710518179E-01 -0.17061843990E-01  0.34505145228E-01  0.70206108234E-01  0.51100000000E-03 0. -1.
         11    1    4    4    0    0  0.29738075838E-01 -0.26179511429E-02  0.63954378994E-01  0.70580666873E-01  0.51100000000E-03 0.  1.
</event>
<event>
 8    1  0.2929965E+004  0.1043930E+01  0.7957747E-01            NaN
         13   -1    0    0    0    0  0.00000000000E+00  0.00000000000E+00  0.74505805969E-08  0.10566000000E+00  0.10566000000E+00 0. -1.
     999900   -1    0    0    0    0 -0.00000000000E+00 -0.00000000000E+00 -0.74505805969E-08  0.93827000000E+00  0.93827000000E+00 0. -1.
     999902    2    1    2    0    0 -0.89126945005E-02  0.86486672962E-02  0.94852701296E-03  0.10314746689E+01  0.10313994654E+01 0.  0.
     999903    2    3    3    0    0  0.94381850499E-02  0.11705240746E+00  0.66295539239E-01  0.14222871998E+00  0.45205805324E-01 0.  0.
         14    1    1    2    0    0  0.89126945005E-02 -0.86486672962E-02 -0.94852701296E-03  0.12455331098E-01  0.00000000000E+00 0. -1.
     999901    1    3    3    0    0 -0.18350879550E-01 -0.10840374017E+00 -0.65347012226E-01  0.88924594892E+00  0.88000000000E+00 0.  1.
        -11    1    4    4    0    0 -0.14963781228E-01  0.54416513624E-01  0.17251828309E-01  0.59016594315E-01  0.51100000000E-03 0.  1.
         11    1    4    4    0    0  0.24401966278E-01  0.62635893840E-01  0.49043710931E-01  0.83212125668E-01  0.51100000000E-03 0. -1.
</event>
<event>
 8    1  0.2929965E+004  0.1043930E+01  0.7957747E-01            NaN
         13   -1    0    0    0    0  0.00000000000E+00  0.00000000000E+00  0.74505805969E-08  0.10566000000E+00  0.10566000000E+00 0. -1.
     999900   -1    0    0    0    0 -0.00000000000E+00 -0.00000000000E+00 -0.74505805969E-08  0.93827000000E+00  0.93827000000E+00 0.  1.
     999902    2    1    2    0    0  0.37134682241E-02 -0.64029530585E-02 -0.12634055129E-01  0.10292873567E+01  0.10291831983E+01 0.  0.
     999903    2    3    3    0    0 -0.66099450873E-01 -0.10312321406E+00  0.48176331269E-01  0.13916008733E+00  0.45177830045E-01 0.  0.
         14    1    1    2    0    0 -0.37134682241E-02  0.64029530585E-02  0.12634055129E-01  0.14642643310E-01  0.00000000000E+00 0. -1.
     999901    1    3    3    0    0  0.69812919097E-01  0.96720261003E-01 -0.60810386398E-01  0.89012726936E+00  0.88000000000E+00 0.  1.
        -11    1    4    4    0    0 -0.37641953402E-01 -0.46017776627E-01  0.40953577371E-03  0.59455708407E-01  0.51100000000E-03 0.  1.
         11    1    4    4    0    0 -0.28457497470E-01 -0.57105437434E-01  0.47766795495E-01  0.79704378924E-01  0.51100000000E-03 0. -1.
</event>
<event>
 8    1  0.2929965E+004  0.1043930E+01  0.7957747E-01            NaN
         13   -1    0    0    0    0  0.00000000000E+00  0.00000000000E+00  0.74505805969E-08  0.10566000000E+00  0.10566000000E+00 0. -1.
     999900   -1    0    0    0    0 -0.00000000000E+00 -0.00000000000E+00 -0.74505805969E-08  0.93827000000E+00  0.93827000000E+00 0.  1.
     999902    2    1    2    0    0 -0.11369574410E-01 -0.71458892433E-02  0.59749966234E-02  0.10292319886E+01  0.10291270353E+01 0.  0.
     999903    2    3    3    0    0 -0.12918045291E+00 -0.96420718701E-02  0.33072590493E-01  0.14096405961E+00  0.44682333161E-01 0.  0.
         14    1    1    2    0    0  0.11369574410E-01  0.71458892433E-02 -0.59749966234E-02  0.14698011430E-01  0.00000000000E+00 0.  1.
     999901    1    3    3    0    0  0.11781087850E+00  0.24961826267E-02 -0.27097593870E-01  0.88826792896E+00  0.88000000000E+00 0. -1.
        -11    1    4    4    0    0 -0.89250882718E-01  0.98415399025E-02  0.35283233537E-01  0.96476648280E-01  0.51100000000E-03 0.  1.
         11    1    4    4    0    0 -0.39929570192E-01 -0.19483611773E-01 -0.22106430440E-02  0.44487411332E-01  0.51100000000E-03 0. -1.
</event>
<event>
 8    1  0.2929965E+004  0.1043930E+01  0.7957747E-01            NaN
         13   -1    0    0    0    0  0.00000000000E+00  0.00000000000E+00  0.74505805969E-08  0.10566000000E+00  0.10566000000E+00 0. -1.
     999900   -1    0    0    0    0 -0.00000000000E+00 -0.00000000000E+00 -0.74505805969E-08  0.93827000000E+00  0.93827000000E+00 0.  1.
     999902    2    1    2    0    0 -0.82201825437E-02  0.24636891202E-02  0.12349530884E-01  0.10288916464E+01  0.10287817397E+01 0.  0.
     999903    2    3    3    0    0  0.24186601613E-01  0.42637624541E-01  0.12368475605E+00  0.14037621206E+00  0.44772796515E-01 0.  0.
         14    1    1    2    0    0  0.82201825437E-02 -0.24636891202E-02 -0.12349530884E-01  0.15038353573E-01  0.00000000000E+00 0.  1.
     999901    1    3    3    0    0 -0.32406784157E-01 -0.40173935421E-01 -0.11133522517E+00  0.88851543437E+00  0.88000000000E+00 0.  1.
        -11    1    4    4    0    0 -0.13283211183E-01  0.11050962646E-01  0.35595096034E-01  0.39570689373E-01  0.51100000000E-03 0. -1.
         11    1    4    4    0    0  0.37469812796E-01  0.31586661895E-01  0.88089660019E-01  0.10080552269E+00  0.51100000000E-03 0.  1.
</event>
<event>
 8    1  0.2929965E+004  0.1043930E+01  0.7957747E-01            NaN
         13   -1    0    0    0    0  0.00000000000E+00  0.00000000000E+00  0.74505805969E-08  0.10566000000E+00  0.10566000000E+00 0. -1.
     999900   -1    0    0    0    0 -0.00000000000E+00 -0.00000000000E+00 -0.74505805969E-08  0.93827000000E+00  0.93827000000E+00 0. -1.
     999902    2    1    2    0    0 -0.63395488242E-02 -0.52602570568E-02  0.98238089663E-02  0.10311094147E+01  0.10310297075E+01 0.  0.
     999903    2    3    3    0    0 -0.12404906842E+00 -0.42407802656E-01 -0.29606293566E-01  0.14162068287E+00  0.44646299929E-01 0.  0.
         14    1    1    2    0    0  0.63395488242E-02  0.52602570568E-02 -0.98238089663E-02  0.12820585252E-01  0.00000000000E+00 0.  1.
     999901    1    3    3    0    0  0.11770951959E+00  0.37147545599E-01  0.39430102532E-01  0.88948873187E+00  0.88000000000E+00 0.  1.
        -11    1    4    4    0    0 -0.57143968519E-01 -0.16024942878E-02  0.17907232564E-02  0.57196756349E-01  0.51100000000E-03 0. -1.
         11    1    4    4    0    0 -0.66905099898E-01 -0.40805308368E-01 -0.31397016822E-01  0.84423926524E-01  0.51100000000E-03 0.  1.
</event>
<event>
 7    1  0.2929965E+004  0.1043930E+01  0.7957747E-01            NaN
         13   -1    0    0    0    0  0.00000000000E+00  0.00000000000E+00  0.74505805969E-08  0.10566000000E+00  0.10566000000E+00 0.  1.
     999900   -1    0    0    0    0 -0.00000000000E+00 -0.00000000000E+00 -0.74505805969E-08  0.93827000000E+00  0.93827000000E+00 0. -1.
     999903    2    1    2    0    0 -0.18098955838E-01  0.11441160360E+00  0.16035452111E-02  0.12413785174E+00  0.44609949973E-01 0.  0.
         14    1    1    2    0    0  0.41134119022E-02  0.14137528615E-01 -0.26143063829E-01  0.30004160698E-01  0.00000000000E+00 0. -1.
     999901    1    1    2    0    0  0.13985543936E-01 -0.12854913222E+00  0.24539518618E-01  0.88978798756E+00  0.88000000000E+00 0. -1.
        -11    1    3    3    0    0 -0.24027919875E-02  0.79219710338E-01 -0.17437631275E-01  0.81153361118E-01  0.51100000000E-03 0.  1.
         11    1    3    3    0    0 -0.15696163851E-01  0.35191893264E-01  0.19041176486E-01  0.42984490623E-01  0.51100000000E-03 0. -1.
</event>
<event>
 8    1  0.2929965E+004  0.1043930E+01  0.7957747E-01            NaN
         13   -1    0    0    0    0  0.00000000000E+00  0.00000000000E+00  0.74505805969E-08  0.10566000000E+00  0.10566000000E+00 0. -1.
     999900   -1    0    0    0    0 -0.00000000000E+00 -0.00000000000E+00 -0.74505805969E-08  0.93827000000E+00  0.93827000000E+00 0.  1.
     999902    2    1    2    0    0  0.36680746585E-02 -0.24747028711E-01  0.12522932516E-01  0.10159533304E+01  0.10155680556E+01 0.  0.
     999903    2    3    3    0    0 -0.64005534875E-01 -0.10055236143E+00  0.26089373781E-01  0.13000174358E+00  0.44858801009E-01 0.  0.
         14    1    1    2    0    0 -0.36680746585E-02  0.24747028711E-01 -0.12522932516E-01  0.27976669575E-01  0.00000000000E+00 0. -1.
     999901    1    3    3    0    0  0.67673609533E-01  0.75805332715E-01 -0.13566441265E-01  0.88595158684E+00  0.88000000000E+00 0.  1.
        -11    1    4    4    0    0 -0.64482162576E-01 -0.64679838062E-01  0.15928764348E-01  0.92711473923E-01  0.51100000000E-03 0.  1.
         11    1    4    4    0    0  0.47662770174E-03 -0.35872523364E-01  0.10160609433E-01  0.37290269662E-01  0.51100000000E-03 0. -1.
</event>
<event>
 8    1  0.2929965E+004  0.1043930E+01  0.7957747E-01            NaN
         13   -1    0    0    0    0  0.00000000000E+00  0.00000000000E+00  0.74505805969E-08  0.10566000000E+00  0.10566000000E+00 0.  1.
     999900   -1    0    0    0    0 -0.00000000000E+00 -0.00000000000E+00 -0.74505805969E-08  0.93827000000E+00  0.93827000000E+00 0.  1.
     999902    2    1    2    0    0 -0.25436552998E-02  0.88121530226E-02 -0.11292532520E-01  0.10293819584E+01  0.10292791511E+01 0.  0.
     999903    2    3    3    0    0  0.63922504257E-01  0.11493812436E+00  0.18426843017E-01  0.14002055075E+00  0.44377326500E-01 0.  0.
         14    1    1    2    0    0  0.25436552998E-02 -0.88121530226E-02  0.11292532520E-01  0.14548041583E-01  0.00000000000E+00 0.  1.
     999901    1    3    3    0    0 -0.66466159557E-01 -0.10612597134E+00 -0.29719375537E-01  0.88936140766E+00  0.88000000000E+00 0.  1.
        -11    1    4    4    0    0  0.25893511014E-01  0.11724516029E-01  0.79810092715E-02  0.29527882056E-01  0.51100000000E-03 0. -1.
         11    1    4    4    0    0  0.38028993243E-01  0.10321360833E+00  0.10445833746E-01  0.11049266870E+00  0.51100000000E-03 0.  1.
</event>
<event>
 8    1  0.2929965E+004  0.1043930E+01  0.7957747E-01            NaN
         13   -1    0    0    0    0  0.00000000000E+00  0.00000000000E+00  0.74505805969E-08  0.10566000000E+00  0.10566000000E+00 0. -1.
     999900   -1    0    0    0    0 -0.00000000000E+00 -0.00000000000E+00 -0.74505805969E-08  0.93827000000E+00  0.93827000000E+00 0. -1.
     999902    2    1    2    0    0 -0.10305435685E-01 -0.61285468567E-02  0.62919018702E-02  0.10303893530E+01  0.10303003784E+01 0.  0.
     999903    2    3    3    0    0  0.75969534568E-01 -0.63916349750E-01  0.89166925701E-01  0.14041684209E+00  0.43697585233E-01 0.  0.
         14    1    1    2    0    0  0.10305435685E-01  0.61285468567E-02 -0.62919018702E-02  0.13540646971E-01  0.00000000000E+00 0.  1.
     999901    1    3    3    0    0 -0.86274970254E-01  0.57787802894E-01 -0.82875023831E-01  0.88997251094E+00  0.88000000000E+00 0.  1.
        -11    1    4    4    0    0  0.30328834908E-01 -0.11668584274E-02  0.19066743973E-01  0.35846919424E-01  0.51100000000E-03 0.  1.
         11    1    4    4    0    0  0.45640699661E-01 -0.62749491323E-01  0.70100181727E-01  0.10456992266E+00  0.51100000000E-03 0. -1.
</event>
<event>
 8    1  0.2929965E+004  0.1043930E+01  0.7957747E-01            NaN
         13   -1    0    0    0    0  0.00000000000E+00  0.00000000000E+00  0.74505805969E-08  0.10566000000E+00  0.10566000000E+00 0. -1.
     999900   -1    0    0    0    0 -0.00000000000E+00 -0.00000000000E+00 -0.74505805969E-08  0.93827000000E+00  0.93827000000E+00 0.  1.
     999902    2    1    2    0    0  0.33614195271E-02  0.13430863911E-01  0.45239343920E-02  0.10293645193E+01  0.10292614635E+01 0.  0.
     999903    2    3    3    0    0 -0.12062172301E-02 -0.42907836978E-01 -0.12350247387E+00  0.13830578173E+00  0.45089807882E-01 0.  0.
         14    1    1    2    0    0 -0.33614195271E-02 -0.13430863911E-01 -0.45239343920E-02  0.14565480734E-01  0.00000000000E+00 0.  1.
     999901    1    3    3    0    0  0.45676367571E-02  0.56338700889E-01  0.12802640826E+00  0.89105873753E+00  0.88000000000E+00 0. -1.
        -11    1    4    4    0    0  0.11566658733E-02  0.63182865246E-02 -0.46072737189E-01  0.46521144156E-01  0.51100000000E-03 0. -1.
         11    1    4    4    0    0 -0.23628831034E-02 -0.49226123503E-01 -0.77429736679E-01  0.91784637576E-01  0.51100000000E-03 0.  1.
</event>
<event>
 8    1  0.2929965E+004  0.1043930E+01  0.7957747E-01            NaN
         13   -1    0    0    0    0  0.00000000000E+00  0.00000000000E+00  0.74505805969E-08  0.10566000000E+00  0.10566000000E+00 0. -1.
     999900   -1    0    0    0    0 -0.00000000000E+00 -0.00000000000E+00 -0.74505805969E-08  0.93827000000E+00  0.93827000000E+00 0. -1.
     999902    2    1    2    0    0  0.47488775521E-02  0.80576747460E-02 -0.92922810983E-02  0.10307457500E+01  0.10306614268E+01 0.  0.
     999903    2    3    3    0    0  0.82636249167E-02 -0.13148112206E+00  0.76194875729E-02  0.13958390319E+00  0.45497653614E-01 0.  0.
         14    1    1    2    0    0 -0.47488775521E-02 -0.80576747460E-02  0.92922810983E-02  0.13184250010E-01  0.00000000000E+00 0. -1.
     999901    1    3    3    0    0 -0.35147473647E-02  0.13953879681E+00 -0.16911768671E-01  0.89116184680E+00  0.88000000000E+00 0. -1.
        -11    1    4    4    0    0  0.82844230052E-03 -0.12699505776E+00 -0.14637416098E-02  0.12700722292E+00  0.51100000000E-03 0.  1.
         11    1    4    4    0    0  0.74351826162E-02 -0.44860643033E-02  0.90832291827E-02  0.12576680280E-01  0.51100000000E-03 0. -1.
</event>
<event>
 8    1  0.2929965E+004  0.1043930E+01  0.7957747E-01            NaN
         13   -1    0    0    0    0  0.00000000000E+00  0.00000000000E+00  0.74505805969E-08  0.10566000000E+00  0.10566000000E+00 0.  1.
     999900   -1    0    0    0    0 -0.00000000000E+00 -0.00000000000E+00 -0.74505805969E-08  0.93827000000E+00  0.93827000000E+00 0. -1.
     999902    2    1    2    0    0 -0.77916895574E-02 -0.66611613790E-02 -0.85782035873E-02  0.10305633597E+01  0.10304766718E+01 0.  0.
     999903    2    3    3    0    0  0.10552332855E-01  0.71860249341E-01 -0.11197347607E+00  0.14084840673E+00  0.44999635253E-01 0.  0.
         14    1    1    2    0    0  0.77916895574E-02  0.66611613790E-02  0.85782035873E-02  0.13366640336E-01  0.00000000000E+00 0.  1.
     999901    1    3    3    0    0 -0.18344022412E-01 -0.78521410720E-01  0.10339527248E+00  0.88971495293E+00  0.88000000000E+00 0.  1.
        -11    1    4    4    0    0  0.24186148248E-01  0.28846513237E-01 -0.33845624964E-01  0.50624880674E-01  0.51100000000E-03 0.  1.
         11    1    4    4    0    0 -0.13633815394E-01  0.43013736104E-01 -0.78127851101E-01  0.90223526059E-01  0.51100000000E-03 0. -1.
</event>
<event>
 8    1  0.2929965E+004  0.1043930E+01  0.7957747E-01            NaN
         13   -1    0    0    0    0  0.00000000000E+00  0.00000000000E+00  0.74505805969E-08  0.10566000000E+00  0.10566000000E+00 0.  1.
     999900   -1    0    0    0    0 -0.00000000000E+00 -0.00000000000E+00 -0.74505805969E-08  0.93827000000E+00  0.93827000000E+00 0.  1.
     999902    2    1    2    0    0  0.75928433045E-02 -0.11690222948E-01  0.13238695749E-02  0.10299276712E+01  0.10298324828E+01 0.  0.
     999903    2    3    3    0    0  0.65806682425E-01 -0.81169697757E-01 -0.83532980376E-01  0.14121121837E+00  0.45208517987E-01 0.  0.
         14    1    1    2    0    0 -0.75928433045E-02  0.11690222948E-01 -0.13238695749E-02  0.14002328830E-01  0.00000000000E+00 0. -1.
     999901    1    3    3    0    0 -0.58213839121E-01  0.69479474809E-01  0.84856849951E-01  0.88871645279E+00  0.88000000000E+00 0.  1.
        -11    1    4    4    0    0  0.35232262022E-01 -0.24080204929E-01 -0.11202848062E-01  0.44124069195E-01  0.51100000000E-03 0.  1.
         11    1    4    4    0    0  0.30574420404E-01 -0.57089492828E-01 -0.72330132314E-01  0.97087149180E-01  0.51100000000E-03 0. -1.
</event>
<event>
 8    1  0.2929965E+004  0.1043930E+01  0.7957747E-01            NaN
         13   -1    0    0    0    0  0.00000000000E+00  0.00000000000E+00  0.74505805969E-08  0.10566000000E+00  0.10566000000E+00 0. -1.
     999900   -1    0    0    0    0 -0.00000000000E+00 -0.00000000000E+00 -0.74505805969E-08  0.93827000000E+00  0.93827000000E+00 0.  1.
     999902    2    1    2    0    0  0.77407250862E-02 -0.16050673091E-01 -0.35744568691E-02  0.10257553013E+01  0.10255942757E+01 0.  0.
     999903    2    3    3    0    0 -0.79187649034E-01  0.85834914740E-01 -0.45266185996E-01  0.13464620835E+00  0.49419201531E-01 0.  0.
         14    1    1    2    0    0 -0.77407250862E-02  0.16050673091E-01  0.35744568691E-02  0.18174698716E-01  0.00000000000E+00 0. -1.
     999901    1    3    3    0    0  0.86928374120E-01 -0.10188558783E+00  0.41691729127E-01  0.89110909294E+00  0.88000000000E+00 0. -1.
        -11    1    4    4    0    0 -0.41088773345E-01  0.61741953099E-01 -0.49805655351E-01  0.89337676785E-01  0.51100000000E-03 0. -1.
         11    1    4    4    0    0 -0.38098875689E-01  0.24092961641E-01  0.45394693545E-02  0.45308531563E-01  0.51100000000E-03 0.  1.
</event>
<event>
 8    1  0.2929965E+004  0.1043930E+01  0.7957747E-01            NaN
         13   -1    0    0    0    0  0.00000000000E+00  0.00000000000E+00  0.74505805969E-08  0.10566000000E+00  0.10566000000E+00 0. -1.
     999900   -1    0    0    0    0 -0.00000000000E+00 -0.00000000000E+00 -0.74505805969E-08  0.93827000000E+00  0.93827000000E+00 0.  1.
     999902    2    1    2    0    0  0.10253699850E-01 -0.35986564267E-02  0.32153782847E-02  0.10325974210E+01  0.10325352326E+01 0.  0.
     999903    2    3    3    0    0  0.10809599259E+00 -0.79793938883E-01  0.24038569668E-01  0.14365848014E+00  0.44811714851E-01 0.  0.
         14    1    1    2    0    0 -0.10253699850E-01  0.35986564267E-02 -0.32153782847E-02  0.11332578974E-01  0.00000000000E+00 0. -1.
     999901    1    3    3    0    0 -0.97842292745E-01  0.76195282456E-01 -0.20823191384E-01  0.88893894088E+00  0.88000000000E+00 0.  1.
        -11    1    4    4    0    0  0.11961719709E-01 -0.69726615827E-03  0.14477281872E-01  0.18799514087E-01  0.51100000000E-03 0.  1.
         11    1    4    4    0    0  0.96134272886E-01 -0.79096672724E-01  0.95612877959E-02  0.12485896606E+00  0.51100000000E-03 0. -1.
</event>
<event>
 8    1  0.2929965E+004  0.1043930E+01  0.7957747E-01            NaN
         13   -1    0    0    0    0  0.00000000000E+00  0.00000000000E+00  0.74505805969E-08  0.10566000000E+00  0.10566000000E+00 0. -1.
     999900   -1    0    0    0    0 -0.00000000000E+00 -0.00000000000E+00 -0.74505805969E-08  0.93827000000E+00  0.93827000000E+00 0. -1.
     999902    2    1    2    0    0  0.83510782651E-02 -0.69929556516E-02  0.10286834734E-01  0.10289479806E+01  0.10288389018E+01 0.  0.
     999903    2    3    3    0    0 -0.57335102390E-01  0.11441911695E+00 -0.22697854040E-01  0.13757625375E+00  0.45088631915E-01 0.  0.
         14    1    1    2    0    0 -0.83510782651E-02  0.69929556516E-02 -0.10286834734E-01  0.14982019416E-01  0.00000000000E+00 0.  1.
     999901    1    3    3    0    0  0.65686180655E-01 -0.12141207260E+00  0.32984688774E-01  0.89137172683E+00  0.88000000000E+00 0.  1.
        -11    1    4    4    0    0 -0.10832183631E-01  0.63847568337E-01 -0.23424852092E-01  0.68868229259E-01  0.51100000000E-03 0. -1.
         11    1    4    4    0    0 -0.46502918758E-01  0.50571548616E-01  0.72699805222E-03  0.68708024492E-01  0.51100000000E-03 0.  1.
</event>
<event>
 8    1  0.2929965E+004  0.1043930E+01  0.7957747E-01            NaN
         13   -1    0    0    0    0  0.00000000000E+00  0.00000000000E+00  0.74505805969E-08  0.10566000000E+00  0.10566000000E+00 0.  1.
     999900   -1    0    0    0    0 -0.00000000000E+00 -0.00000000000E+00 -0.74505805969E-08  0.93827000000E+00  0.93827000000E+00 0. -1.
     999902    2    1    2    0    0  0.31627509560E-02 -0.69256297141E-02  0.10426731326E-01  0.10310193816E+01  0.10309385439E+01 0.  0.
     999903    2    3    3    0    0 -0.11580618748E+00  0.40094625825E-01  0.52988231024E-01  0.14075200943E+00  0.44550235168E-01 0.  0.
         14    1    1    2    0    0 -0.31627509560E-02  0.69256297141E-02 -0.10426731326E-01  0.12910618370E-01  0.00000000000E+00 0.  1.
     999901    1    3    3    0    0  0.11896893844E+00 -0.47020255539E-01 -0.42561499698E-01  0.89026737220E+00  0.88000000000E+00 0.  1.
        -11    1    4    4    0    0 -0.15853093905E-01 -0.31915605442E-02  0.22366597428E-01  0.27604935185E-01  0.51100000000E-03 0. -1.
         11    1    4    4    0    0 -0.99953093576E-01  0.43286186369E-01  0.30621633595E-01  0.11314707425E+00  0.51100000000E-03 0.  1.
</event>
<event>
 8    1  0.2929965E+004  0.1043930E+01  0.7957747E-01            NaN
         13   -1    0    0    0    0  0.00000000000E+00  0.00000000000E+00  0.74505805969E-08  0.10566000000E+00  0.10566000000E+00 0. -1.
     999900   -1    0    0    0    0 -0.00000000000E+00 -0.00000000000E+00 -0.74505805969E-08  0.93827000000E+00  0.93827000000E+00 0. -1.
     999902    2    1    2    0    0 -0.60169630593E-02 -0.22390187285E-01 -0.68073247856E-02  0.10197667220E+01  0.10194804085E+01 0.  0.
     999903    2    3    3    0    0 -0.50223264850E-01 -0.94994195820E-01 -0.70518822554E-01  0.13337815368E+00  0.35644830934E-01 0.  0.
         14    1    1    2    0    0  0.60169630593E-02  0.22390187285E-01  0.68073247856E-02  0.24163277961E-01  0.00000000000E+00 0. -1.
     999901    1    3    3    0    0  0.44206301791E-01  0.72604008535E-01  0.63711497768E-01  0.88638856836E+00  0.88000000000E+00 0.  1.
        -11    1    4    4    0    0 -0.12839493653E-01 -0.50596009208E-01 -0.18342756873E-01  0.55331063570E-01  0.51100000000E-03 0. -1.
         11    1    4    4    0    0 -0.37383771197E-01 -0.44398186612E-01 -0.52176065681E-01  0.78047090107E-01  0.51100000000E-03 0.  1.
</event>
<event>
 7    1  0.2929965E+004  0.1043930E+01  0.7957747E-01            NaN
         13   -1    0    0    0    0  0.00000000000E+00  0.00000000000E+00  0.74505805969E-08  0.10566000000E+00  0.10566000000E+00 0.  1.
     999900   -1    0    0    0    0 -0.00000000000E+00 -0.00000000000E+00 -0.74505805969E-08  0.93827000000E+00  0.93827000000E+00 0.  1.
     999903    2    1    2    0    0 -0.96739427519E-01  0.41412103750E-01  0.70607098125E-02  0.11454828141E+00  0.44698724560E-01 0.  0.
         14    1    1    2    0    0 -0.10302700412E-01  0.30255481556E-01 -0.23793765792E-01  0.39845741185E-01  0.00000000000E+00 0. -1.
     999901    1    1    2    0    0  0.10704212793E+00 -0.71667585307E-01  0.16733055980E-01  0.88953597741E+00  0.88000000000E+00 0.  1.
        -11    1    3    3    0    0 -0.11733943712E-01  0.58486523074E-03 -0.13630303519E-01  0.18002049810E-01  0.51100000000E-03 0.  1.
         11    1    3    3    0    0 -0.85005483807E-01  0.40827238520E-01  0.20691013331E-01  0.96546231600E-01  0.51100000000E-03 0. -1.
</event>
<event>
 8    1  0.2929965E+004  0.1043930E+01  0.7957747E-01            NaN
         13   -1    0    0    0    0  0.00000000000E+00  0.00000000000E+00  0.74505805969E-08  0.10566000000E+00  0.10566000000E+00 0.  1.
     999900   -1    0    0    0    0 -0.00000000000E+00 -0.00000000000E+00 -0.74505805969E-08  0.93827000000E+00  0.93827000000E+00 0.  1.
     999902    2    1    2    0    0  0.31112292162E-02  0.16041029664E-01  0.74288546841E-03  0.10275731587E+01  0.10274429669E+01 0.  0.
     999903    2    3    3    0    0  0.63947151482E-02 -0.10835703662E+00  0.66207299281E-01  0.13641029495E+00  0.49418845841E-01 0.  0.
         14    1    1    2    0    0 -0.31112292162E-02 -0.16041029664E-01 -0.74288546841E-03  0.16356841343E-01  0.00000000000E+00 0. -1.
     999901    1    3    3    0    0 -0.32834859320E-02  0.12439806628E+00 -0.65464413813E-01  0.89116286371E+00  0.88000000000E+00 0.  1.
        -11    1    4    4    0    0  0.94869580731E-02 -0.59439982148E-01  0.86560237210E-02  0.60813663916E-01  0.51100000000E-03 0. -1.
         11    1    4    4    0    0 -0.30922429248E-02 -0.48917054468E-01  0.57551275560E-01  0.75596631034E-01  0.51100000000E-03 0.  1.
</event>
<event>
 8    1  0.2929965E+004  0.1043930E+01  0.7957747E-01            NaN
         13   -1    0    0    0    0  0.00000000000E+00  0.00000000000E+00  0.74505805969E-08  0.10566000000E+00  0.10566000000E+00 0.  1.
     999900   -1    0    0    0    0 -0.00000000000E+00 -0.00000000000E+00 -0.74505805969E-08  0.93827000000E+00  0.93827000000E+00 0. -1.
     999902    2    1    2    0    0 -0.72916817435E-02  0.99252774250E-02  0.50772495829E-02  0.10306086556E+01  0.10305225581E+01 0.  0.
     999903    2    3    3    0    0 -0.97021523568E-02  0.13165932220E+00 -0.27904404091E-01  0.14161328014E+00  0.42980884829E-01 0.  0.
         14    1    1    2    0    0  0.72916817435E-02 -0.99252774250E-02 -0.50772495829E-02  0.13321344449E-01  0.00000000000E+00 0. -1.
     999901    1    3    3    0    0  0.24104706134E-02 -0.12173404478E+00  0.32981653673E-01  0.88899537541E+00  0.88000000000E+00 0. -1.
        -11    1    4    4    0    0  0.43530943532E-02  0.26268818074E-01  0.10412169552E-01  0.28595010565E-01  0.51100000000E-03 0. -1.
         11    1    4    4    0    0 -0.14055246710E-01  0.10539050413E+00 -0.38316573643E-01  0.11301826957E+00  0.51100000000E-03 0.  1.
</event>
<event>
 8    1  0.2929965E+004  0.1043930E+01  0.7957747E-01            NaN
         13   -1    0    0    0    0  0.00000000000E+00  0.00000000000E+00  0.74505805969E-08  0.10566000000E+00  0.10566000000E+00 0. -1.
     999900   -1    0    0    0    0 -0.00000000000E+00 -0.00000000000E+00 -0.74505805969E-08  0.93827000000E+00  0.93827000000E+00 0.  1.
     999902    2    1    2    0    0 -0.10261637419E-01  0.89647921396E-02  0.10058029244E-02  0.10302668986E+01  0.10301762966E+01 0.  0.
     999903    2    3    3    0    0 -0.34583114341E-01 -0.12409112913E+00 -0.28360635526E-01  0.13944828623E+00  0.45242665233E-01 0.  0.
         14    1    1    2    0    0  0.10261637419E-01 -0.89647921396E-02 -0.10058029244E-02  0.13663101411E-01  0.00000000000E+00 0.  1.
     999901    1    3    3    0    0  0.24321476922E-01  0.13305592127E+00  0.29366438451E-01  0.89081861236E+00  0.88000000000E+00 0.  1.
        -11    1    4    4    0    0 -0.16093109689E-01 -0.85601906042E-01  0.18775466822E-02  0.87123250628E-01  0.51100000000E-03 0.  1.
         11    1    4    4    0    0 -0.18490004652E-01 -0.38489223089E-01 -0.30238182209E-01  0.52325035598E-01  0.51100000000E-03 0. -1.
</event>
<event>
 8    1  0.2929965E+004  0.1043930E+01  0.7957747E-01            NaN
         13   -1    0    0    0    0  0.00000000000E+00  0.00000000000E+00  0.74505805969E-08  0.10566000000E+00  0.10566000000E+00 0. -1.
     999900   -1    0    0    0    0 -0.00000000000E+00 -0.00000000000E+00 -0.74505805969E-08  0.93827000000E+00  0.93827000000E+00 0. -1.
     999902    2    1    2    0    0 -0.12883109980E-02  0.11213489431E-01  0.88132052922E-02  0.10296095713E+01  0.10295099779E+01 0.  0.
     999903    2    3    3    0    0  0.28599897664E-01  0.81018672957E-02  0.12998773093E+00  0.14079786297E+00  0.45206566181E-01 0.  0.
         14    1    1    2    0    0  0.12883109980E-02 -0.11213489431E-01 -0.88132052922E-02  0.14320428694E-01  0.00000000000E+00 0. -1.
     999901    1    3    3    0    0 -0.29888208662E-01  0.31116221355E-02 -0.12117452563E+00  0.88881170833E+00  0.88000000000E+00 0. -1.
        -11    1    4    4    0    0  0.26782529682E-01 -0.15128859845E-01  0.76350704023E-01  0.82315717953E-01  0.51100000000E-03 0.  1.
         11    1    4    4    0    0  0.18173679817E-02  0.23230727141E-01  0.53637026904E-01  0.58482145019E-01  0.51100000000E-03 0. -1.
</event>
<event>
 8    1  0.2929965E+004  0.1043930E+01  0.7957747E-01            NaN
         13   -1    0    0    0    0  0.00000000000E+00  0.00000000000E+00  0.74505805969E-08  0.10566000000E+00  0.10566000000E+00 0. -1.
     999900   -1    0    0    0    0 -0.00000000000E+00 -0.00000000000E+00 -0.74505805969E-08  0.93827000000E+00  0.93827000000E+00 0. -1.
     999902    2    1    2    0    0  0.11905654928E-01 -0.51404892040E-02 -0.73544888002E-02  0.10290216884E+01  0.10289136881E+01 0.  0.
     999903    2    3    3    0    0  0.12977270441E+00  0.12866070642E-01  0.23909333808E-01  0.14043049774E+00  0.46287988401E-01 0.  0.
         14    1    1    2    0    0 -0.11905654928E-01  0.51404892040E-02  0.73544888002E-02  0.14908311575E-01  0.00000000000E+00 0.  1.
     999901    1    3    3    0    0 -0.11786704948E+00 -0.18006559846E-01 -0.31263822608E-01  0.88859119068E+00  0.88000000000E+00 0. -1.
        -11    1    4    4    0    0  0.20344611088E-01 -0.77909108339E-02 -0.10062080026E-01  0.24002251298E-01  0.51100000000E-03 0. -1.
         11    1    4    4    0    0  0.10942809332E+00  0.20656981476E-01  0.33971413834E-01  0.11642824645E+00  0.51100000000E-03 0.  1.
</event>
<event>
 8    1  0.2929965E+004  0.1043930E+01  0.7957747E-01            NaN
         13   -1    0    0    0    0  0.00000000000E+00  0.00000000000E+00  0.74505805969E-08  0.10566000000E+00  0.10566000000E+00 0. -1.
     999900   -1    0    0    0    0 -0.00000000000E+00 -0.00000000000E+00 -0.74505805969E-08  0.93827000000E+00  0.93827000000E+00 0.  1.
     999902    2    1    2    0    0  0.24484496417E-02 -0.13313453632E-01 -0.47518286483E-02  0.10295834733E+01  0.10294835140E+01 0.  0.
     999903    2    3    3    0    0  0.38770809682E-01  0.72412957769E-01  0.10187551226E+00  0.13827111430E+00  0.44648280090E-01 0.  0.
         14    1    1    2    0    0 -0.24484496417E-02  0.13313453632E-01  0.47518286483E-02  0.14346526714E-01  0.00000000000E+00 0. -1.
     999901    1    3    3    0    0 -0.36322360040E-01 -0.85726411400E-01 -0.10662734091E+00  0.89131235899E+00  0.88000000000E+00 0. -1.
        -11    1    4    4    0    0  0.27283974926E-01  0.97108476521E-02  0.23889037066E-01  0.37545479925E-01  0.51100000000E-03 0.  1.
         11    1    4    4    0    0  0.11486834756E-01  0.62702110116E-01  0.77986475196E-01  0.10072563438E+00  0.51100000000E-03 0. -1.
</event>
<event>
 8    1  0.2929965E+004  0.1043930E+01  0.7957747E-01            NaN
         13   -1    0    0    0    0  0.00000000000E+00  0.00000000000E+00  0.74505805969E-08  0.10566000000E+00  0.10566000000E+00 0. -1.
     999900   -1    0    0    0    0 -0.00000000000E+00 -0.00000000000E+00 -0.74505805969E-08  0.93827000000E+00  0.93827000000E+00 0.  1.
     999902    2    1    2    0    0 -0.64283717095E-02  0.98383887391E-02  0.69895062832E-02  0.10302562641E+01  0.10301655200E+01 0.  0.
     999903    2    3    3    0    0  0.11535969730E+00 -0.62184792489E-01  0.40484783070E-02  0.13894917782E+00  0.45996474450E-01 0.  0.
         14    1    1    2    0    0  0.64283717095E-02 -0.98383887391E-02 -0.69895062832E-02  0.13673735916E-01  0.00000000000E+00 0. -1.
     999901    1    3    3    0    0 -0.12178806901E+00  0.72023181228E-01  0.29410279762E-02  0.89130708627E+00  0.88000000000E+00 0.  1.
        -11    1    4    4    0    0  0.74439901300E-01 -0.23233896702E-01  0.19487196641E-01  0.80381122258E-01  0.51100000000E-03 0. -1.
         11    1    4    4    0    0  0.40919795996E-01 -0.38950895787E-01 -0.15438718334E-01  0.58568055558E-01  0.51100000000E-03 0.  1.
</event>
<event>
 8    1  0.2929965E+004  0.1043930E+01  0.7957747E-01            NaN
         13   -1    0    0    0    0  0.00000000000E+00  0.00000000000E+00  0.74505805969E-08  0.10566000000E+00  0.10566000000E+00 0.  1.
     999900   -1    0    0    0    0 -0.00000000000E+00 -0.00000000000E+00 -0.74505805969E-08  0.93827000000E+00  0.93827000000E+00 0. -1.
     999902    2    1    2    0    0  0.49176844782E-02  0.29208305164E-03  0.13252838282E-01  0.10297911650E+01  0.10296940987E+01 0.  0.
     999903    2    3    3    0    0 -0.28713675313E-01  0.12888699569E+00  0.79206911015E-02  0.13979332694E+00  0.45200709099E-01 0.  0.
         14    1    1    2    0    0 -0.49176844782E-02 -0.29208305164E-03 -0.13252838282E-01  0.14138835018E-01  0.00000000000E+00 0. -1.
     999901    1    3    3    0    0  0.33631359791E-01 -0.12859491264E+00  0.53321471809E-02  0.88999783804E+00  0.88000000000E+00 0.  1.
        -11    1    4    4    0    0  0.11040095089E-01  0.20936483550E-01  0.72248812011E-02  0.24752375086E-01  0.51100000000E-03 0. -1.
         11    1    4    4    0    0 -0.39753770402E-01  0.10795051214E+00  0.69580990040E-03  0.11504095186E+00  0.51100000000E-03 0.  1.
</event>
<event>
 8    1  0.2929965E+004  0.1043930E+01  0.7957747E-01            NaN
         13   -1    0    0    0    0  0.00000000000E+00  0.00000000000E+00  0.74505805969E-08  0.10566000000E+00  0.10566000000E+00 0.  1.
     999900   -1    0    0    0    0 -0.00000000000E+00 -0.00000000000E+00 -0.74505805969E-08  0.93827000000E+00  0.93827000000E+00 0. -1.
     999902    2    1    2    0    0 -0.48401267439E-02 -0.10662515506E-01 -0.83862673309E-02  0.10295270300E+01  0.10294262771E+01 0.  0.
     999903    2    3    3    0    0  0.18655655801E-03  0.75618077809E-01  0.10633082437E+00  0.13788269543E+00  0.44578750443E-01 0.  0.
         14    1    1    2    0    0  0.48401267439E-02  0.10662515506E-01  0.83862673309E-02  0.14402969956E-01  0.00000000000E+00 0.  1.
     999901    1    3    3    0    0 -0.50266833019E-02 -0.86280593316E-01 -0.11471709170E+00  0.89164433462E+00  0.88000000000E+00 0. -1.
        -11    1    4    4    0    0 -0.75154631666E-02  0.38668618598E-01  0.86933358044E-01  0.95443250744E-01  0.51100000000E-03 0. -1.
         11    1    4    4    0    0  0.77020197247E-02  0.36949459211E-01  0.19397466329E-01  0.42439444681E-01  0.51100000000E-03 0.  1.
</event>
<event>
 8    1  0.2929965E+004  0.1043930E+01  0.7957747E-01            NaN
         13   -1    0    0    0    0  0.00000000000E+00  0.00000000000E+00  0.74505805969E-08  0.10566000000E+00  0.10566000000E+00 0. -1.
     999900   -1    0    0    0    0 -0.00000000000E+00 -0.00000000000E+00 -0.74505805969E-08  0.93827000000E+00  0.93827000000E+00 0.  1.
     999902    2    1    2    0    0 -0.73127001933E-02 -0.91653351929E-02 -0.76524931627E-02  0.10299285856E+01  0.10298334098E+01 0.  0.
     999903    2    3    3    0    0  0.75484608322E-01  0.65621525037E-01 -0.86334007625E-01  0.13940107369E+00  0.44440835197E-01 0.  0.
         14    1    1    2    0    0  0.73127001933E-02  0.91653351929E-02  0.76524931627E-02  0.14001414390E-01  0.00000000000E+00 0. -1.
     999901    1    3    3    0    0 -0.82797308515E-01 -0.74786860230E-01  0.78681514462E-01  0.89052751192E+00  0.88000000000E+00 0. -1.
        -11    1    4    4    0    0  0.74253216780E-01  0.47602939170E-01 -0.82826028686E-01  0.12099583534E+00  0.51100000000E-03 0. -1.
         11    1    4    4    0    0  0.12313915415E-02  0.18018585867E-01 -0.35079789382E-02  0.18405238358E-01  0.51100000000E-03 0.  1.
</event>
<event>
 8    1  0.2929965E+004  0.1043930E+01  0.7957747E-01            NaN
         13   -1    0    0    0    0  0.00000000000E+00  0.00000000000E+00  0.74505805969E-08  0.10566000000E+00  0.10566000000E+00 0. -1.
     999900   -1    0    0    0    0 -0.00000000000E+00 -0.00000000000E+00 -0.74505805969E-08  0.93827000000E+00  0.93827000000E+00 0.  1.
     999902    2    1    2    0    0  0.50902517223E-02  0.94368234578E-02 -0.65862186193E-02  0.10313465754E+01  0.10312698076E+01 0.  0.
     999903    2    3    3    0    0  0.75946723383E-01  0.10636995030E+00 -0.35727083129E-01  0.14271512160E+00  0.44818638369E-01 0.  0.
         14    1    1    2    0    0 -0.50902517223E-02 -0.94368234578E-02  0.65862186193E-02  0.12583424624E-01  0.00000000000E+00 0.  1.
     999901    1    3    3    0    0 -0.70856471660E-01 -0.96933126841E-01  0.29140864509E-01  0.88863145378E+00  0.88000000000E+00 0. -1.
        -11    1    4    4    0    0  0.61747468516E-01  0.59254964331E-01 -0.37581481899E-01  0.93469404453E-01  0.51100000000E-03 0. -1.
         11    1    4    4    0    0  0.14199254866E-01  0.47114985968E-01  0.18543987701E-02  0.49245717147E-01  0.51100000000E-03 0.  1.
</event>
<event>
 8    1  0.2929965E+004  0.1043930E+01  0.7957747E-01            NaN
         13   -1    0    0    0    0  0.00000000000E+00  0.00000000000E+00  0.74505805969E-08  0.10566000000E+00  0.10566000000E+00 0. -1.
     999900   -1    0    0    0    0 -0.00000000000E+00 -0.00000000000E+00 -0.74505805969E-08  0.93827000000E+00  0.93827000000E+00 0.  1.
     999902    2    1    2    0    0 -0.76723499983E-02  0.87358727775E-02 -0.59538940252E-02  0.10308674856E+01  0.10307847223E+01 0.  0.
     999903    2    3    3    0    0  0.15562678128E-01 -0.67703447254E-01  0.11133518815E+00  0.13949799716E+00  0.47309759770E-01 0.  0.
         14    1    1    2    0    0  0.76723499983E-02 -0.87358727775E-02  0.59538940252E-02  0.13062514373E-01  0.00000000000E+00 0. -1.
     999901    1    3    3    0    0 -0.23235028126E-01  0.76439320031E-01 -0.11728908218E+00  0.89136948847E+00  0.88000000000E+00 0.  1.
        -11    1    4    4    0    0  0.42885815540E-02 -0.67891582617E-01  0.74110294575E-01  0.10059948213E+00  0.51100000000E-03 0. -1.
         11    1    4    4    0    0  0.11274096574E-01  0.18813536286E-03  0.37224893576E-01  0.38898515026E-01  0.51100000000E-03 0.  1.
</event>
<event>
 8    1  0.2929965E+004  0.1043930E+01  0.7957747E-01            NaN
         13   -1    0    0    0    0  0.00000000000E+00  0.00000000000E+00  0.74505805969E-08  0.10566000000E+00  0.10566000000E+00 0.  1.
     999900   -1    0    0    0    0 -0.00000000000E+00 -0.00000000000E+00 -0.74505805969E-08  0.93827000000E+00  0.93827000000E+00 0.  1.
     999902    2    1    2    0    0 -0.68058914033E-02  0.46720146839E-02  0.10202496530E-01  0.10308060214E+01  0.10307224723E+01 0.  0.
     999903    2    3    3    0    0  0.54192375195E-01 -0.54544365898E-01  0.10870083366E+00  0.14123910953E+00  0.47124446343E-01 0.  0.
         14    1    1    2    0    0  0.68058914033E-02 -0.46720146839E-02 -0.10202496530E-01  0.13123978606E-01  0.00000000000E+00 0. -1.
     999901    1    3    3    0    0 -0.60998266598E-01  0.59216380582E-01 -0.98498337131E-01  0.88956691186E+00  0.88000000000E+00 0.  1.
        -11    1    4    4    0    0  0.10187931901E-01 -0.59388472629E-02  0.55676569211E-01  0.56914017108E-01  0.51100000000E-03 0. -1.
         11    1    4    4    0    0  0.44004443294E-01 -0.48605518635E-01  0.53024264450E-01  0.84325092427E-01  0.51100000000E-03 0.  1.
</event>
<event>
 8    1  0.2929965E+004  0.1043930E+01  0.7957747E-01            NaN
         13   -1    0    0    0    0  0.00000000000E+00  0.00000000000E+00  0.74505805969E-08  0.10566000000E+00  0.10566000000E+00 0.  1.
     999900   -1    0    0    0    0 -0.00000000000E+00 -0.00000000000E+00 -0.74505805969E-08  0.93827000000E+00  0.93827000000E+00 0. -1.
     999902    2    1    2    0    0 -0.28460286469E-02  0.10782647060E-01  0.90117520395E-02  0.10295920423E+01  0.10294922032E+01 0.  0.
     999903    2    3    3    0    0  0.10951851183E+00  0.70896213044E-01  0.24732981316E-01  0.14027399579E+00  0.45216104138E-01 0.  0.
         14    1    1    2    0    0  0.28460286469E-02 -0.10782647060E-01 -0.90117520395E-02  0.14337957717E-01  0.00000000000E+00 0. -1.
     999901    1    3    3    0    0 -0.11236454047E+00 -0.60113565984E-01 -0.15721229276E-01  0.88931804649E+00  0.88000000000E+00 0.  1.
        -11    1    4    4    0    0  0.91951078725E-01  0.67632880760E-01  0.58859961086E-02  0.11429835305E+00  0.51100000000E-03 0.  1.
         11    1    4    4    0    0  0.17567433100E-01  0.32633322832E-02  0.18846985207E-01  0.25975642739E-01  0.51100000000E-03 0. -1.
</event>
<event>
 8    1  0.2929965E+004  0.1043930E+01  0.7957747E-01            NaN
         13   -1    0    0    0    0  0.00000000000E+00  0.00000000000E+00  0.74505805969E-08  0.10566000000E+00  0.10566000000E+00 0.  1.
     999900   -1    0    0    0    0 -0.00000000000E+00 -0.00000000000E+00 -0.74505805969E-08  0.93827000000E+00  0.93827000000E+00 0.  1.
     999902    2    1    2    0    0 -0.16119295545E-01 -0.18092348647E-02  0.38589279021E-03  0.10277048981E+01  0.10275768115E+01 0.  0.
     999903    2    3    3    0    0  0.11764738390E+00 -0.27346006701E-01  0.43834455087E-01  0.13617058643E+00  0.45080573813E-01 0.  0.
         14    1    1    2    0    0  0.16119295545E-01  0.18092348647E-02 -0.38589279021E-03  0.16225101939E-01  0.00000000000E+00 0. -1.
     999901    1    3    3    0    0 -0.13376667945E+00  0.25536771836E-01 -0.43448562297E-01  0.89153431163E+00  0.88000000000E+00 0.  1.
        -11    1    4    4    0    0  0.52039516114E-01  0.10049197999E-01  0.12822142872E-01  0.54532248134E-01  0.51100000000E-03 0.  1.
         11    1    4    4    0    0  0.65607867787E-01 -0.37395204700E-01  0.31012312216E-01  0.81638338298E-01  0.51100000000E-03 0. -1.
</event>
<event>
 8    1  0.2929965E+004  0.1043930E+01  0.7957747E-01            NaN
         13   -1    0    0    0    0  0.00000000000E+00  0.00000000000E+00  0.74505805969E-08  0.10566000000E+00  0.10566000000E+00 0. -1.
     999900   -1    0    0    0    0 -0.00000000000E+00 -0.00000000000E+00 -0.74505805969E-08  0.93827000000E+00  0.93827000000E+00 0.  1.
     999902    2    1    2    0    0 -0.17117182297E-01  0.83717236511E-02 -0.77487537884E-02  0.10233599521E+01  0.10231531970E+01 0.  0.
     999903    2    3    3    0    0  0.69615415074E-01 -0.70694618207E-01 -0.76431473461E-01  0.13291548673E+00  0.44505296527E-01 0.  0.
         14    1    1    2    0    0  0.17117182297E-01 -0.83717236511E-02  0.77487537884E-02  0.20570047932E-01  0.00000000000E+00 0. -1.
     999901    1    3    3    0    0 -0.86732597371E-01  0.79066341858E-01  0.68682719673E-01  0.89044446533E+00  0.88000000000E+00 0.  1.
        -11    1    4    4    0    0  0.62308556612E-01 -0.52370487642E-01 -0.78489387268E-01  0.11307461801E+00  0.51100000000E-03 0. -1.
         11    1    4    4    0    0  0.73068584619E-02 -0.18324130565E-01  0.20579138073E-02  0.19840868726E-01  0.51100000000E-03 0.  1.
</event>
<event>
 8    1  0.2929965E+004  0.1043930E+01  0.7957747E-01            NaN
         13   -1    0    0    0    0  0.00000000000E+00  0.00000000000E+00  0.74505805969E-08  0.10566000000E+00  0.10566000000E+00 0. -1.
     999900   -1    0    0    0    0 -0.00000000000E+00 -0.00000000000E+00 -0.74505805969E-08  0.93827000000E+00  0.93827000000E+00 0.  1.
     999902    2    1    2    0    0  0.43903154340E-02  0.12028392333E-01  0.58383738711E-02  0.10298572000E+01  0.10297610444E+01 0.  0.
     999903    2    3    3    0    0  0.65535290043E-01 -0.40215153925E-01 -0.10616008002E+00  0.13912056675E+00  0.46609405257E-01 0.  0.
         14    1    1    2    0    0 -0.43903154340E-02 -0.12028392333E-01 -0.58383738711E-02  0.14072800048E-01  0.00000000000E+00 0. -1.
     999901    1    3    3    0    0 -0.61144974609E-01  0.52243546258E-01  0.11199845389E+00  0.89073663320E+00  0.88000000000E+00 0. -1.
        -11    1    4    4    0    0  0.48813167310E-01 -0.32686754883E-02 -0.51220371781E-01  0.70832175942E-01  0.51100000000E-03 0. -1.
         11    1    4    4    0    0  0.16722122733E-01 -0.36946478437E-01 -0.54939708238E-01  0.68288390813E-01  0.51100000000E-03 0.  1.
</event>
<event>
 7    1  0.2929965E+004  0.1043930E+01  0.7957747E-01            NaN
         13   -1    0    0    0    0  0.00000000000E+00  0.00000000000E+00  0.74505805969E-08  0.10566000000E+00  0.10566000000E+00 0. -1.
     999900   -1    0    0    0    0 -0.00000000000E+00 -0.00000000000E+00 -0.74505805969E-08  0.93827000000E+00  0.93827000000E+00 0.  1.
     999902    2    1    2    0    0  0.26056612809E-02  0.68685915743E-02  0.12698203320E-01  0.10292599152E+01  0.10291553632E+01 0.  0.
         14    1    1    2    0    0 -0.26056612809E-02 -0.68685915743E-02 -0.12698203320E-01  0.14670084815E-01  0.00000000000E+00 0.  1.
     999901    1    3    3    0    0 -0.39100602552E-01 -0.26564481303E-01 -0.10346479044E+00  0.88732152665E+00  0.88000000000E+00 0.  1.
        -11    1    3    3    0    0  0.81656592399E-02  0.41987721841E-01  0.85879716680E-01  0.95943908791E-01  0.51100000000E-03 0. -1.
         11    1    3    3    0    0  0.33540604593E-01 -0.85546489633E-02  0.30283277084E-01  0.45994479748E-01  0.51100000000E-03 0.  1.
</event>
<event>
 8    1  0.2929965E+004  0.1043930E+01  0.7957747E-01            NaN
         13   -1    0    0    0    0  0.00000000000E+00  0.00000000000E+00  0.74505805969E-08  0.10566000000E+00  0.10566000000E+00 0. -1.
     999900   -1    0    0    0    0 -0.00000000000E+00 -0.00000000000E+00 -0.74505805969E-08  0.93827000000E+00  0.93827000000E+00 0.  1.
     999902    2    1    2    0    0 -0.25340096903E-02  0.44985635755E-02 -0.12604637625E-01  0.10303088705E+01  0.10302188279E+01 0.  0.
     999903    2    3    3    0    0  0.87734654707E-01 -0.59264252748E-01 -0.83040103057E-01  0.14060370399E+00  0.40793646184E-01 0.  0.
         14    1    1    2    0    0  0.25340096903E-02 -0.44985635755E-02  0.12604637625E-01  0.13621129506E-01  0.00000000000E+00 0. -1.
     999901    1    3    3    0    0 -0.90268664397E-01  0.63762816324E-01  0.70435465432E-01  0.88970516651E+00  0.88000000000E+00 0. -1.
        -11    1    4    4    0    0  0.39527810076E-01 -0.37437545055E-01 -0.64781153384E-01  0.84621962303E-01  0.51100000000E-03 0.  1.
         11    1    4    4    0    0  0.48206844630E-01 -0.21826707693E-01 -0.18258949673E-01  0.55981741685E-01  0.51100000000E-03 0. -1.
</event>
<event>
 8    1  0.2929965E+004  0.1043930E+01  0.7957747E-01            NaN
         13   -1    0    0    0    0  0.00000000000E+00  0.00000000000E+00  0.74505805969E-08  0.10566000000E+00  0.10566000000E+00 0.  1.
     999900   -1    0    0    0    0 -0.00000000000E+00 -0.00000000000E+00 -0.74505805969E-08  0.93827000000E+00  0.93827000000E+00 0. -1.
     999902    2    1    2    0    0 -0.44879493166E-02  0.13362698049E-01 -0.15519753891E-02  0.10297486032E+01  0.10296509475E+01 0.  0.
     999903    2    3    3    0    0 -0.80590404953E-01  0.96084788580E-01 -0.47716549666E-01  0.14139861813E+00  0.44604933923E-01 0.  0.
         14    1    1    2    0    0  0.44879493166E-02 -0.13362698049E-01  0.15519753891E-02  0.14181396822E-01  0.00000000000E+00 0.  1.
     999901    1    3    3    0    0  0.76102455636E-01 -0.82722090531E-01  0.46164574276E-01  0.88834998505E+00  0.88000000000E+00 0. -1.
        -11    1    4    4    0    0 -0.56918483627E-01  0.54203166072E-01 -0.50132525136E-01  0.93226756825E-01  0.51100000000E-03 0.  1.
         11    1    4    4    0    0 -0.23671921326E-01  0.41881622507E-01  0.24159754704E-02  0.48171861305E-01  0.51100000000E-03 0. -1.
</event>
<event>
 8    1  0.2929965E+004  0.1043930E+01  0.7957747E-01            NaN
         13   -1    0    0    0    0  0.00000000000E+00  0.00000000000E+00  0.74505805969E-08  0.10566000000E+00  0.10566000000E+00 0.  1.
     999900   -1    0    0    0    0 -0.00000000000E+00 -0.00000000000E+00 -0.74505805969E-08  0.93827000000E+00  0.93827000000E+00 0. -1.
     999902    2    1    2    0    0 -0.10147754641E-01 -0.50291530265E-02  0.64833027471E-02  0.10308799993E+01  0.10307973954E+01 0.  0.
     999903    2    3    3    0    0  0.23478355390E-01 -0.15779333152E-01  0.13104851846E+00  0.14140668623E+00  0.44965722433E-01 0.  0.
         14    1    1    2    0    0  0.10147754641E-01  0.50291530265E-02 -0.64833027471E-02  0.13050000725E-01  0.00000000000E+00 0.  1.
     999901    1    3    3    0    0 -0.33626110030E-01  0.10750180126E-01 -0.12456521571E+00  0.88947331304E+00  0.88000000000E+00 0. -1.
        -11    1    4    4    0    0  0.34055906400E-01 -0.52066672410E-03  0.75322270684E-01  0.82666688796E-01  0.51100000000E-03 0. -1.
         11    1    4    4    0    0 -0.10577551010E-01 -0.15258666428E-01  0.55726247777E-01  0.58739997437E-01  0.51100000000E-03 0.  1.
</event>
<event>
 8    1  0.2929965E+004  0.1043930E+01  0.7957747E-01            NaN
         13   -1    0    0    0    0  0.00000000000E+00  0.00000000000E+00  0.74505805969E-08  0.10566000000E+00  0.10566000000E+00 0. -1.
     999900   -1    0    0    0    0 -0.00000000000E+00 -0.00000000000E+00 -0.74505805969E-08  0.93827000000E+00  0.93827000000E+00 0. -1.
     999902    2    1    2    0    0 -0.25424965656E-02 -0.20434862106E-02 -0.14725000297E-01  0.10288480320E+01  0.10287374822E+01 0.  0.
     999903    2    3    3    0    0  0.10201325809E+00 -0.89788139724E-02  0.76731958515E-01  0.13792470202E+00  0.51459751699E-01 0.  0.
         14    1    1    2    0    0  0.25424965656E-02  0.20434862106E-02  0.14725000297E-01  0.15081967989E-01  0.00000000000E+00 0. -1.
     999901    1    3    3    0    0 -0.10455575465E+00  0.69353277619E-02 -0.91456958812E-01  0.89092332999E+00  0.88000000000E+00 0. -1.
        -11    1    4    4    0    0  0.65717658146E-01 -0.18034531604E-01  0.73716827983E-01  0.10039166684E+00  0.51100000000E-03 0.  1.
         11    1    4    4    0    0  0.36295599939E-01  0.90557176311E-02  0.30151305321E-02  0.37533035181E-01  0.51100000000E-03 0. -1.
</event>
<event>
 8    1  0.2929965E+004  0.1043930E+01  0.7957747E-01            NaN
         13   -1    0    0    0    0  0.00000000000E+00  0.00000000000E+00  0.74505805969E-08  0.10566000000E+00  0.10566000000E+00 0.  1.
     999900   -1    0    0    0    0 -0.00000000000E+00 -0.00000000000E+00 -0.74505805969E-08  0.93827000000E+00  0.93827000000E+00 0. -1.
     999902    2    1    2    0    0  0.41105002437E-02  0.12956497501E-02  0.12610097400E-01  0.10306037298E+01  0.10305175682E+01 0.  0.
     999903    2    3    3    0    0 -0.11651481429E+00  0.74724241662E-02  0.64629210997E-01  0.14083150771E+00  0.45000439774E-01 0.  0.
         14    1    1    2    0    0 -0.41105002437E-02 -0.12956497501E-02 -0.12610097400E-01  0.13326270182E-01  0.00000000000E+00 0. -1.
     999901    1    3    3    0    0  0.12062531453E+00 -0.61767744161E-02 -0.52019113597E-01  0.88977222210E+00  0.88000000000E+00 0. -1.
        -11    1    4    4    0    0 -0.43360139472E-01 -0.16514676207E-01  0.13190140092E-01  0.48239787955E-01  0.51100000000E-03 0.  1.
         11    1    4    4    0    0 -0.73154674815E-01  0.23987100373E-01  0.51439070904E-01  0.92591719760E-01  0.51100000000E-03 0. -1.
</event>
<event>
 8    1  0.2929965E+004  0.1043930E+01  0.7957747E-01            NaN
         13   -1    0    0    0    0  0.00000000000E+00  0.00000000000E+00  0.74505805969E-08  0.10566000000E+00  0.10566000000E+00 0.  1.
     999900   -1    0    0    0    0 -0.00000000000E+00 -0.00000000000E+00 -0.74505805969E-08  0.93827000000E+00  0.93827000000E+00 0. -1.
     999902    2    1    2    0    0 -0.12337554805E-01 -0.35033654594E-02  0.51914239161E-02  0.10300938260E+01  0.10300008984E+01 0.  0.
     999903    2    3    3    0    0 -0.45741590658E-02 -0.82126074067E-01 -0.10415041083E+00  0.13981441064E+00  0.43990298624E-01 0.  0.
         14    1    1    2    0    0  0.12337554805E-01  0.35033654594E-02 -0.51914239161E-02  0.13836173979E-01  0.00000000000E+00 0. -1.
     999901    1    3    3    0    0 -0.77633957393E-02  0.78622708608E-01  0.10934183475E+00  0.89027941538E+00  0.88000000000E+00 0. -1.
        -11    1    4    4    0    0  0.17482402605E-01 -0.49451139583E-01 -0.47294994102E-01  0.70626674812E-01  0.51100000000E-03 0.  1.
         11    1    4    4    0    0 -0.22056561671E-01 -0.32674934485E-01 -0.56855416732E-01  0.69187735829E-01  0.51100000000E-03 0. -1.
</event>
<event>
 8    1  0.2929965E+004  0.1043930E+01  0.7957747E-01            NaN
         13   -1    0    0    0    0  0.00000000000E+00  0.00000000000E+00  0.74505805969E-08  0.10566000000E+00  0.10566000000E+00 0.  1.
     999900   -1    0    0    0    0 -0.00000000000E+00 -0.00000000000E+00 -0.74505805969E-08  0.93827000000E+00  0.93827000000E+00 0.  1.
     999902    2    1    2    0    0  0.92783745617E-02 -0.56960714487E-02 -0.15637337150E-01  0.10248758724E+01  0.10246987333E+01 0.  0.
     999903    2    3    3    0    0 -0.10121718702E+00 -0.12904876959E-01  0.73709728989E-01  0.13344772937E+00  0.44313852567E-01 0.  0.
         14    1    1    2    0    0 -0.92783745617E-02  0.56960714487E-02  0.15637337150E-01  0.19054127574E-01  0.00000000000E+00 0.  1.
     999901    1    3    3    0    0  0.11049556158E+00  0.72088055100E-02 -0.89347066138E-01  0.89142814306E+00  0.88000000000E+00 0.  1.
        -11    1    4    4    0    0 -0.17432051140E-01  0.27047260135E-02  0.36315929062E-01  0.40376970842E-01  0.51100000000E-03 0.  1.
         11    1    4    4    0    0 -0.83785135878E-01 -0.15609602972E-01  0.37393799927E-01  0.93070758528E-01  0.51100000000E-03 0. -1.
</event>
<event>
 8    1  0.2929965E+004  0.1043930E+01  0.7957747E-01            NaN
         13   -1    0    0    0    0  0.00000000000E+00  0.00000000000E+00  0.74505805969E-08  0.10566000000E+00  0.10566000000E+00 0.  1.
     999900   -1    0    0    0    0 -0.00000000000E+00 -0.00000000000E+00 -0.74505805969E-08  0.93827000000E+00  0.93827000000E+00 0. -1.
     999902    2    1    2    0    0 -0.56244655078E-02 -0.80954288547E-02  0.13302559015E-01  0.10273731689E+01  0.10272397478E+01 0.  0.
     999903    2    3    3    0    0  0.70465375123E-01  0.10420766527E+00 -0.26770658608E-01  0.13607775681E+00  0.44450884608E-01 0.  0.
         14    1    1    2    0    0  0.56244655078E-02  0.80954288547E-02 -0.13302559015E-01  0.16556831126E-01  0.00000000000E+00 0. -1.
     999901    1    3    3    0    0 -0.76089840631E-01 -0.11230309413E+00  0.40073217623E-01  0.89129541207E+00  0.88000000000E+00 0. -1.
        -11    1    4    4    0    0  0.51752592593E-01  0.38883813674E-01 -0.20174116496E-01  0.67805146584E-01  0.51100000000E-03 0.  1.
         11    1    4    4    0    0  0.18712782530E-01  0.65323851601E-01 -0.65965421123E-02  0.68272610224E-01  0.51100000000E-03 0. -1.
</event>
<event>
 8    1  0.2929965E+004  0.1043930E+01  0.7957747E-01            NaN
         13   -1    0    0    0    0  0.00000000000E+00  0.00000000000E+00  0.74505805969E-08  0.10566000000E+00  0.10566000000E+00 0. -1.
     999900   -1    0    0    0    0 -0.00000000000E+00 -0.00000000000E+00 -0.74505805969E-08  0.93827000000E+00  0.93827000000E+00 0.  1.
     999902    2    1    2    0    0  0.71566827425E-02 -0.14809869797E-02  0.49259594322E-02  0.10351165724E+01  0.10350790510E+01 0.  0.
     999903    2    3    3    0    0  0.39311541722E-01  0.91096933398E-01  0.95831176239E-01  0.14502199046E+00  0.44762872902E-01 0.  0.
         14    1    1    2    0    0 -0.71566827425E-02  0.14809869797E-02 -0.49259594322E-02  0.88134276328E-02  0.00000000000E+00 0.  1.
     999901    1    3    3    0    0 -0.32154858980E-01 -0.92577920378E-01 -0.90905216807E-01  0.89009458191E+00  0.88000000000E+00 0.  1.
        -11    1    4    4    0    0  0.18603823943E-01  0.83755904144E-01  0.67509131633E-01  0.10917370434E+00  0.51100000000E-03 0.  1.
         11    1    4    4    0    0  0.20707717779E-01  0.73410292543E-02  0.28322044607E-01  0.35848286121E-01  0.51100000000E-03 0. -1.
</event>
<event>
 8    1  0.2929965E+004  0.1043930E+01  0.7957747E-01            NaN
         13   -1    0    0    0    0  0.00000000000E+00  0.00000000000E+00  0.74505805969E-08  0.10566000000E+00  0.10566000000E+00 0.  1.
     999900   -1    0    0    0    0 -0.00000000000E+00 -0.00000000000E+00 -0.74505805969E-08  0.93827000000E+00  0.93827000000E+00 0.  1.
     999902    2    1    2    0    0  0.49065989930E-02  0.55549061434E-02 -0.12989715453E-01  0.10289745861E+01  0.10288658973E+01 0.  0.
     999903    2    3    3    0    0 -0.47058390039E-01 -0.12184352764E+00 -0.93076929767E-03  0.13820180973E+00  0.45150155935E-01 0.  0.
         14    1    1    2    0    0 -0.49065989930E-02 -0.55549061434E-02  0.12989715453E-01  0.14955413852E-01  0.00000000000E+00 0. -1.
     999901    1    3    3    0    0  0.51964989033E-01  0.12739843379E+00 -0.12058946156E-01  0.89077277641E+00  0.88000000000E+00 0.  1.
        -11    1    4    4    0    0 -0.31232114181E-01 -0.65200924166E-01  0.21232125721E-01  0.75350313549E-01  0.51100000000E-03 0. -1.
         11    1    4    4    0    0 -0.15826275858E-01 -0.56642603477E-01 -0.22162895018E-01  0.62851496185E-01  0.51100000000E-03 0.  1.
</event>
<event>
 8    1  0.2929965E+004  0.1043930E+01  0.7957747E-01            NaN
         13   -1    0    0    0    0  0.00000000000E+00  0.00000000000E+00  0.74505805969E-08  0.10566000000E+00  0.10566000000E+00 0.  1.
     999900   -1    0    0    0    0 -0.00000000000E+00 -0.00000000000E+00 -0.74505805969E-08  0.93827000000E+00  0.93827000000E+00 0.  1.
     999902    2    1    2    0    0  0.70875925367E-02 -0.11608851657E-01 -0.21617910560E-02  0.10301578271E+01  0.10300657630E+01 0.  0.
     999903    2    3    3    0    0 -0.13141801043E+00 -0.39480071567E-02 -0.10142440224E-01  0.13925593504E+00  0.44755626732E-01 0.  0.
         14    1    1    2    0    0 -0.70875925367E-02  0.11608851657E-01  0.21617910560E-02  0.13772172861E-01  0.00000000000E+00 0. -1.
     999901    1    3    3    0    0  0.13850560296E+00 -0.76608445001E-02  0.79806491676E-02  0.89090189210E+00  0.88000000000E+00 0.  1.
        -11    1    4    4    0    0 -0.99454769862E-01  0.13765663631E-01 -0.17655426305E-01  0.10194469060E+00  0.51100000000E-03 0.  1.
         11    1    4    4    0    0 -0.31963240565E-01 -0.17713670788E-01  0.75129860812E-02  0.37311244432E-01  0.51100000000E-03 0. -1.
</event>
<event>
 8    1  0.2929965E+004  0.1043930E+01  0.7957747E-01            NaN
         13   -1    0    0    0    0  0.00000000000E+00  0.00000000000E+00  0.74505805969E-08  0.10566000000E+00  0.10566000000E+00 0. -1.
     999900   -1    0    0    0    0 -0.00000000000E+00 -0.00000000000E+00 -0.74505805969E-08  0.93827000000E+00  0.93827000000E+00 0. -1.
     999902    2    1    2    0    0  0.12477329357E-01 -0.73537975390E-02 -0.49094998410E-02  0.10286373457E+01  0.10285236622E+01 0.  0.
     999903    2    3    3    0    0  0.10138424461E-02 -0.11358953135E+00 -0.68240594314E-01  0.13991451480E+00  0.44896361016E-01 0.  0.
         14    1    1    2    0    0 -0.12477329357E-01  0.73537975390E-02  0.49094998410E-02  0.15292654276E-01  0.00000000000E+00 0. -1.
     999901    1    3    3    0    0  0.11463486910E-01  0.10623573381E+00  0.63331094473E-01  0.88872283092E+00  0.88000000000E+00 0.  1.
        -11    1    4    4    0    0  0.76004339855E-02 -0.33297720047E-01 -0.44161039182E-01  0.55829770372E-01  0.51100000000E-03 0. -1.
         11    1    4    4    0    0 -0.65865915394E-02 -0.80291811301E-01 -0.24079555132E-01  0.84084744433E-01  0.51100000000E-03 0.  1.
</event>
<event>
 7    1  0.2929965E+004  0.1043930E+01  0.7957747E-01            NaN
         13   -1    0    0    0    0  0.00000000000E+00  0.00000000000E+00  0.74505805969E-08  0.10566000000E+00  0.10566000000E+00 0. -1.
     999900   -1    0    0    0    0 -0.00000000000E+00 -0.00000000000E+00 -0.74505805969E-08  0.93827000000E+00  0.93827000000E+00 0. -1.
     999903    2    1    2    0    0 -0.11021897111E+00 -0.83562423962E-02  0.82125685759E-03  0.11934516260E+00  0.44994944107E-01 0.  0.
         14    1    1    2    0    0 -0.31343233509E-01  0.71208172121E-02 -0.84638993132E-02  0.33237658103E-01  0.00000000000E+00 0. -1.
     999901    1    1    2    0    0  0.14156220462E+00  0.12354251842E-02  0.76426424556E-02  0.89134717929E+00  0.88000000000E+00 0.  1.
        -11    1    3    3    0    0 -0.83737114785E-01  0.73637386882E-03 -0.17934058665E-01  0.85640750932E-01  0.51100000000E-03 0. -1.
         11    1    3    3    0    0 -0.26481856322E-01 -0.90926162651E-02  0.18755315522E-01  0.33704411671E-01  0.51100000000E-03 0.  1.
</event>
<event>
 8    1  0.2929965E+004  0.1043930E+01  0.7957747E-01            NaN
         13   -1    0    0    0    0  0.00000000000E+00  0.00000000000E+00  0.74505805969E-08  0.10566000000E+00  0.10566000000E+00 0. -1.
     999900   -1    0    0    0    0 -0.00000000000E+00 -0.00000000000E+00 -0.74505805969E-08  0.93827000000E+00  0.93827000000E+00 0.  1.
     999902    2    1    2    0    0 -0.14038818426E-01  0.15417146226E-02  0.33375871057E-02  0.10294177709E+01  0.10293154726E+01 0.  0.
     999903    2    3    3    0    0 -0.50664777659E-01 -0.75382650349E-01  0.96796254783E-01  0.14037708486E+00  0.45680929762E-01 0.  0.
         14    1    1    2    0    0  0.14038818426E-01 -0.15417146226E-02 -0.33375871057E-02  0.14512229135E-01  0.00000000000E+00 0.  1.
     999901    1    3    3    0    0  0.36625959233E-01  0.76924364971E-01 -0.93458667677E-01  0.88904068601E+00  0.88000000000E+00 0.  1.
        -11    1    4    4    0    0 -0.31274687839E-01 -0.14194235306E-01  0.18111553280E-01  0.38831326253E-01  0.51100000000E-03 0.  1.
         11    1    4    4    0    0 -0.19390089819E-01 -0.61188415043E-01  0.78684701502E-01  0.10154575860E+00  0.51100000000E-03 0. -1.
</event>
<event>
 8    1  0.2929965E+004  0.1043930E+01  0.7957747E-01            NaN
         13   -1    0    0    0    0  0.00000000000E+00  0.00000000000E+00  0.74505805969E-08  0.10566000000E+00  0.10566000000E+00 0.  1.
     999900   -1    0    0    0    0 -0.00000000000E+00 -0.00000000000E+00 -0.74505805969E-08  0.93827000000E+00  0.93827000000E+00 0. -1.
     999902    2    1    2    0    0 -0.11063708750E-01 -0.81759471832E-02  0.78707209007E-03  0.10301506224E+01  0.10300584613E+01 0.  0.
     999903    2    3    3    0    0  0.55809524820E-01 -0.56523825314E-02  0.11916402383E+00  0.13970607029E+00  0.46594731560E-01 0.  0.
         14    1    1    2    0    0  0.11063708750E-01  0.81759471832E-02 -0.78707209007E-03  0.13779377566E-01  0.00000000000E+00 0. -1.
     999901    1    3    3    0    0 -0.66873233569E-01 -0.25235646517E-02 -0.11837695174E+00  0.89044455215E+00  0.88000000000E+00 0. -1.
        -11    1    4    4    0    0 -0.44536133721E-02 -0.83465608530E-02  0.34308070567E-01  0.35592198262E-01  0.51100000000E-03 0.  1.
         11    1    4    4    0    0  0.60263138192E-01  0.26941783216E-02  0.84855953268E-01  0.10411387202E+00  0.51100000000E-03 0. -1.
</event>
<event>
 8    1  0.2929965E+004  0.1043930E+01  0.7957747E-01            NaN
         13   -1    0    0    0    0  0.00000000000E+00  0.00000000000E+00  0.74505805969E-08  0.10566000000E+00  0.10566000000E+00 0.  1.
     999900   -1    0    0    0    0 -0.00000000000E+00 -0.00000000000E+00 -0.74505805969E-08  0.93827000000E+00  0.93827000000E+00 0. -1.
     999902    2    1    2    0    0  0.63420136492E-02 -0.10420847582E-01  0.18398708686E-02  0.10315930504E+01  0.10315192782E+01 0.  0.
     999903    2    3    3    0    0  0.61440637410E-01  0.11602462190E+00  0.20140653163E-01  0.14066138423E+00  0.46295942504E-01 0.  0.
         14    1    1    2    0    0 -0.63420136492E-02  0.10420847582E-01 -0.18398708686E-02  0.12336949634E-01  0.00000000000E+00 0.  1.
     999901    1    3    3    0    0 -0.55098623761E-01 -0.12644546948E+00 -0.18300782295E-01  0.89093166614E+00  0.88000000000E+00 0. -1.
        -11    1    4    4    0    0  0.38533630953E-02  0.37135630935E-01 -0.96146023870E-02  0.38556519450E-01  0.51100000000E-03 0. -1.
         11    1    4    4    0    0  0.57587274314E-01  0.78888990961E-01  0.29755255550E-01  0.10210486478E+00  0.51100000000E-03 0.  1.
</event>
<event>
 7    1  0.2929965E+004  0.1043930E+01  0.7957747E-01            NaN
         13   -1    0    0    0    0  0.00000000000E+00  0.00000000000E+00  0.74505805969E-08  0.10566000000E+00  0.10566000000E+00 0. -1.
     999900   -1    0    0    0    0 -0.00000000000E+00 -0.00000000000E+00 -0.74505805969E-08  0.93827000000E+00  0.93827000000E+00 0.  1.
     999903    2    1    2    0    0  0.56784198198E-01 -0.47104504598E-01  0.90955547401E-01  0.12532585471E+00  0.44613660886E-01 0.  0.
         14    1    1    2    0    0  0.12335779571E-01  0.27359461844E-01 -0.11369879994E-01  0.32093391549E-01  0.00000000000E+00 0.  1.
     999901    1    1    2    0    0 -0.69119977769E-01  0.19745042753E-01 -0.79585667406E-01  0.88651075374E+00  0.88000000000E+00 0. -1.
        -11    1    3    3    0    0  0.50928087903E-01 -0.32261930105E-01  0.41071358352E-01  0.72949433647E-01  0.51100000000E-03 0. -1.
         11    1    3    3    0    0  0.58561102950E-02 -0.14842574493E-01  0.49884189049E-01  0.52376421064E-01  0.51100000000E-03 0.  1.
</event>
<event>
 8    1  0.2929965E+004  0.1043930E+01  0.7957747E-01            NaN
         13   -1    0    0    0    0  0.00000000000E+00  0.00000000000E+00  0.74505805969E-08  0.10566000000E+00  0.10566000000E+00 0.  1.
     999900   -1    0    0    0    0 -0.00000000000E+00 -0.00000000000E+00 -0.74505805969E-08  0.93827000000E+00  0.93827000000E+00 0. -1.
     999902    2    1    2    0    0 -0.71871761470E-02  0.13548998998E-02  0.10989337507E-01  0.10307293639E+01  0.10306448296E+01 0.  0.
     999903    2    3    3    0    0 -0.44094132024E-01 -0.52528673093E-01  0.11605806960E+00  0.14207588740E+00  0.44861211371E-01 0.  0.
         14    1    1    2    0    0  0.71871761470E-02 -0.13548998998E-02 -0.10989337507E-01  0.13200636104E-01  0.00000000000E+00 0. -1.
     999901    1    3    3    0    0  0.36906955877E-01  0.53883572993E-01 -0.10506873209E+00  0.88865347650E+00  0.88000000000E+00 0. -1.
        -11    1    4    4    0    0  0.13592968922E-02  0.32006842201E-02  0.28741070876E-01  0.28955178183E-01  0.51100000000E-03 0. -1.
         11    1    4    4    0    0 -0.45453428916E-01 -0.55729357313E-01  0.87316998719E-01  0.11312070921E+00  0.51100000000E-03 0.  1.
</event>
<event>
 8    1  0.2929965E+004  0.1043930E+01  0.7957747E-01            NaN
         13   -1    0    0    0    0  0.00000000000E+00  0.00000000000E+00  0.74505805969E-08  0.10566000000E+00  0.10566000000E+00 0.  1.
     999900   -1    0    0    0    0 -0.00000000000E+00 -0.00000000000E+00 -0.74505805969E-08  0.93827000000E+00  0.93827000000E+00 0.  1.
     999902    2    1    2    0    0  0.18652268739E-02 -0.10807709753E-01 -0.91727173910E-02  0.10296322937E+01  0.10295330183E+01 0.  0.
     999903    2    3    3    0    0  0.11165750535E+00 -0.31483334554E-01  0.63432607991E-01  0.13960231715E+00  0.44794110563E-01 0.  0.
         14    1    1    2    0    0 -0.18652268739E-02  0.10807709753E-01  0.91727173910E-02  0.14297706311E-01  0.00000000000E+00 0.  1.
     999901    1    3    3    0    0 -0.10979227847E+00  0.20675624801E-01 -0.72605325382E-01  0.89002997654E+00  0.88000000000E+00 0.  1.
        -11    1    4    4    0    0  0.86546442104E-01 -0.23571056811E-01  0.68401261895E-01  0.11280458816E+00  0.51100000000E-03 0.  1.
         11    1    4    4    0    0  0.25111063241E-01 -0.79122777432E-02 -0.49686539032E-02  0.26797728986E-01  0.51100000000E-03 0. -1.
</event>
<event>
 8    1  0.2929965E+004  0.1043930E+01  0.7957747E-01            NaN
         13   -1    0    0    0    0  0.00000000000E+00  0.00000000000E+00  0.74505805969E-08  0.10566000000E+00  0.10566000000E+00 0.  1.
     999900   -1    0    0    0    0 -0.00000000000E+00 -0.00000000000E+00 -0.74505805969E-08  0.93827000000E+00  0.93827000000E+00 0. -1.
     999902    2    1    2    0    0 -0.11308805083E-01  0.54234873579E-02  0.43120906068E-02  0.10306673678E+01  0.10305820325E+01 0.  0.
     999903    2    3    3    0    0  0.49389658645E-01  0.92041439513E-01 -0.83534297166E-01  0.13999124205E+00  0.41335264347E-01 0.  0.
         14    1    1    2    0    0  0.11308805083E-01 -0.54234873579E-02 -0.43120906068E-02  0.13262632202E-01  0.00000000000E+00 0. -1.
     999901    1    3    3    0    0 -0.60698463728E-01 -0.86617952155E-01  0.87846387773E-01  0.89067612575E+00  0.88000000000E+00 0.  1.
        -11    1    4    4    0    0  0.10142557750E-02  0.44424609231E-01 -0.31864382585E-01  0.54682489141E-01  0.51100000000E-03 0. -1.
         11    1    4    4    0    0  0.48375402870E-01  0.47616830282E-01 -0.51669914581E-01  0.85308752908E-01  0.51100000000E-03 0.  1.
</event>
<event>
 7    1  0.2929965E+004  0.1043930E+01  0.7957747E-01            NaN
         13   -1    0    0    0    0  0.00000000000E+00  0.00000000000E+00  0.74505805969E-08  0.10566000000E+00  0.10566000000E+00 0. -1.
     999900   -1    0    0    0    0 -0.00000000000E+00 -0.00000000000E+00 -0.74505805969E-08  0.93827000000E+00  0.93827000000E+00 0. -1.
     999903    2    1    2    0    0  0.72976095425E-01  0.78603099637E-02  0.13077015934E-02  0.86385878168E-01  0.45535863747E-01 0.  0.
         14    1    1    2    0    0 -0.75627609619E-01 -0.15628758108E-01 -0.64086151085E-02  0.77491056027E-01  0.00000000000E+00 0. -1.
     999901    1    1    2    0    0  0.26515141940E-02  0.77684481439E-02  0.51009135151E-02  0.88005306580E+00  0.88000000000E+00 0.  1.
        -11    1    3    3    0    0  0.14510630943E-01 -0.46378739854E-02 -0.17972334993E-01  0.23565530581E-01  0.51100000000E-03 0. -1.
         11    1    3    3    0    0  0.58465464482E-01  0.12498183949E-01  0.19280036587E-01  0.62820347586E-01  0.51100000000E-03 0.  1.
</event>
<event>
 8    1  0.2929965E+004  0.1043930E+01  0.7957747E-01            NaN
         13   -1    0    0    0    0  0.00000000000E+00  0.00000000000E+00  0.74505805969E-08  0.10566000000E+00  0.10566000000E+00 0. -1.
     999900   -1    0    0    0    0 -0.00000000000E+00 -0.00000000000E+00 -0.74505805969E-08  0.93827000000E+00  0.93827000000E+00 0. -1.
     999902    2    1    2    0    0  0.10389319103E-01  0.13490169963E-02  0.11963049775E-01  0.10280280392E+01  0.10279050428E+01 0.  0.
     999903    2    3    3    0    0 -0.49706103676E-01 -0.30109587474E-01  0.11787729418E+00  0.13908544777E+00  0.45523854174E-01 0.  0.
         14    1    1    2    0    0 -0.10389319103E-01 -0.13490169963E-02 -0.11963049775E-01  0.15901960829E-01  0.00000000000E+00 0.  1.
     999901    1    3    3    0    0  0.60095422779E-01  0.31458604471E-01 -0.10591424440E+00  0.88894259140E+00  0.88000000000E+00 0. -1.
        -11    1    4    4    0    0 -0.51176745007E-01 -0.14586918975E-01  0.10859114497E+00  0.12093029117E+00  0.51100000000E-03 0.  1.
         11    1    4    4    0    0  0.14706413304E-02 -0.15522668500E-01  0.92861492071E-02  0.18155156606E-01  0.51100000000E-03 0. -1.
</event>
<event>
 8    1  0.2929965E+004  0.1043930E+01  0.7957747E-01            NaN
         13   -1    0    0    0    0  0.00000000000E+00  0.00000000000E+00  0.74505805969E-08  0.10566000000E+00  0.10566000000E+00 0. -1.
     999900   -1    0    0    0    0 -0.00000000000E+00 -0.00000000000E+00 -0.74505805969E-08  0.93827000000E+00  0.93827000000E+00 0.  1.
     999902    2    1    2    0    0  0.64474804088E-02  0.39095068345E-02  0.18084751759E-01  0.10243363150E+01  0.10241489021E+01 0.  0.
     999903    2    3    3    0    0 -0.12969041148E-01 -0.21481986662E-01  0.12697185580E+00  0.13704936550E+00  0.45066668824E-01 0.  0.
         14    1    1    2    0    0 -0.64474804088E-02 -0.39095068345E-02 -0.18084751759E-01  0.19593685042E-01  0.00000000000E+00 0.  1.
     999901    1    3    3    0    0  0.19416521557E-01  0.25391493497E-01 -0.10888710404E+00  0.88728694946E+00  0.88000000000E+00 0.  1.
        -11    1    4    4    0    0  0.55420620121E-02 -0.27358082164E-01  0.46256181170E-01  0.54028460356E-01  0.51100000000E-03 0. -1.
         11    1    4    4    0    0 -0.18511103161E-01  0.58760955019E-02  0.80715674633E-01  0.83020905144E-01  0.51100000000E-03 0.  1.
</event>
<event>
 8    1  0.2929965E+004  0.1043930E+01  0.7957747E-01            NaN
         13   -1    0    0    0    0  0.00000000000E+00  0.00000000000E+00  0.74505805969E-08  0.10566000000E+00  0.10566000000E+00 0. -1.
     999900   -1    0    0    0    0 -0.00000000000E+00 -0.00000000000E+00 -0.74505805969E-08  0.93827000000E+00  0.93827000000E+00 0.  1.
     999902    2    1    2    0    0  0.12387957323E-01 -0.71336597336E-02 -0.19717244005E-02  0.10294995362E+01  0.10293983956E+01 0.  0.
     999903    2    3    3    0    0  0.79122987738E-01 -0.16255800004E-01 -0.10622271346E+00  0.14078977120E+00  0.44875345083E-01 0.  0.
         14    1    1    2    0    0 -0.12387957323E-01  0.71336597336E-02  0.19717244005E-02  0.14430463781E-01  0.00000000000E+00 0. -1.
     999901    1    3    3    0    0 -0.66735030415E-01  0.91221402701E-02  0.10425098906E+00  0.88870976502E+00  0.88000000000E+00 0. -1.
        -11    1    4    4    0    0  0.64973082236E-01 -0.80929923528E-02 -0.50412760498E-01  0.82635981767E-01  0.51100000000E-03 0.  1.
         11    1    4    4    0    0  0.14149905502E-01 -0.81628076510E-02 -0.55809952961E-01  0.58153789429E-01  0.51100000000E-03 0. -1.
</event>
<event>
 8    1  0.2929965E+004  0.1043930E+01  0.7957747E-01            NaN
         13   -1    0    0    0    0  0.00000000000E+00  0.00000000000E+00  0.74505805969E-08  0.10566000000E+00  0.10566000000E+00 0.  1.
     999900   -1    0    0    0    0 -0.00000000000E+00 -0.00000000000E+00 -0.74505805969E-08  0.93827000000E+00  0.93827000000E+00 0.  1.
     999902    2    1    2    0    0  0.12618016110E-01  0.15394941144E-02  0.59772465599E-02  0.10298832264E+01  0.10297874286E+01 0.  0.
     999903    2    3    3    0    0 -0.57588568249E-02 -0.93703822468E-01 -0.93971455621E-01  0.13892938814E+00  0.40708348526E-01 0.  0.
         14    1    1    2    0    0 -0.12618016110E-01 -0.15394941144E-02 -0.59772465599E-02  0.14046773619E-01  0.00000000000E+00 0.  1.
     999901    1    3    3    0    0  0.18376872935E-01  0.95243316582E-01  0.99948702181E-01  0.89095383824E+00  0.88000000000E+00 0. -1.
        -11    1    4    4    0    0 -0.10042422772E-01 -0.64154321422E-02 -0.20669134255E-02  0.12105423446E-01  0.51100000000E-03 0. -1.
         11    1    4    4    0    0  0.42835659472E-02 -0.87288390326E-01 -0.91904542195E-01  0.12682396469E+00  0.51100000000E-03 0.  1.
</event>
<event>
 8    1  0.2929965E+004  0.1043930E+01  0.7957747E-01            NaN
         13   -1    0    0    0    0  0.00000000000E+00  0.00000000000E+00  0.74505805969E-08  0.10566000000E+00  0.10566000000E+00 0.  1.
     999900   -1    0    0    0    0 -0.00000000000E+00 -0.00000000000E+00 -0.74505805969E-08  0.93827000000E+00  0.93827000000E+00 0.  1.
     999902    2    1    2    0    0 -0.47952578530E-02  0.12247841103E-01  0.23923577494E-02  0.10305611001E+01  0.10304743828E+01 0.  0.
     999903    2    3    3    0    0 -0.70853251685E-01 -0.62218800102E-01 -0.92946561421E-01  0.13983193321E+00  0.44972701767E-01 0.  0.
         14    1    1    2    0    0  0.47952578530E-02 -0.12247841103E-01 -0.23923577494E-02  0.13368899924E-01  0.00000000000E+00 0. -1.
     999901    1    3    3    0    0  0.66057993832E-01  0.74466641205E-01  0.95338919170E-01  0.89072916687E+00  0.88000000000E+00 0. -1.
        -11    1    4    4    0    0 -0.16604987425E-03 -0.68970049494E-02 -0.28504757420E-01  0.29332210391E-01  0.51100000000E-03 0. -1.
         11    1    4    4    0    0 -0.70687201811E-01 -0.55321795153E-01 -0.64441804001E-01  0.11049972282E+00  0.51100000000E-03 0.  1.
</event>
<event>
 8    1  0.2929965E+004  0.1043930E+01  0.7957747E-01            NaN
         13   -1    0    0    0    0  0.00000000000E+00  0.00000000000E+00  0.74505805969E-08  0.10566000000E+00  0.10566000000E+00 0. -1.
     999900   -1    0    0    0    0 -0.00000000000E+00 -0.00000000000E+00 -0.74505805969E-08  0.93827000000E+00  0.93827000000E+00 0. -1.
     999902    2    1    2    0    0  0.56576194567E-02 -0.12233198566E-01  0.38482494133E-02  0.10299132661E+01  0.10298178805E+01 0.  0.
     999903    2    3    3    0    0  0.31180736807E-03  0.47948408926E-01  0.12370153491E+00  0.13973619743E+00  0.43874685076E-01 0.  0.
         14    1    1    2    0    0 -0.56576194567E-02  0.12233198566E-01 -0.38482494133E-02  0.14016733878E-01  0.00000000000E+00 0.  1.
     999901    1    3    3    0    0  0.53458120886E-02 -0.60181607492E-01 -0.11985328549E+00  0.89017706870E+00  0.88000000000E+00 0. -1.
        -11    1    4    4    0    0  0.13973789953E-01  0.45970429794E-01  0.11106916741E+00  0.12101722312E+00  0.51100000000E-03 0. -1.
         11    1    4    4    0    0 -0.13661982585E-01  0.19779791328E-02  0.12632367497E-01  0.18718974309E-01  0.51100000000E-03 0.  1.
</event>
<event>
 8    1  0.2929965E+004  0.1043930E+01  0.7957747E-01            NaN
         13   -1    0    0    0    0  0.00000000000E+00  0.00000000000E+00  0.74505805969E-08  0.10566000000E+00  0.10566000000E+00 0. -1.
     999900   -1    0    0    0    0 -0.00000000000E+00 -0.00000000000E+00 -0.74505805969E-08  0.93827000000E+00  0.93827000000E+00 0.  1.
     999902    2    1    2    0    0 -0.35252152147E-02  0.22555581344E-02  0.12678988231E-01  0.10305781676E+01  0.10304916730E+01 0.  0.
     999903    2    3    3    0    0  0.63681619765E-01  0.37871250525E-02 -0.11493958581E+00  0.13883515264E+00  0.44658708095E-01 0.  0.
         14    1    1    2    0    0  0.35252152147E-02 -0.22555581344E-02 -0.12678988231E-01  0.13351832360E-01  0.00000000000E+00 0.  1.
     999901    1    3    3    0    0 -0.67206834980E-01 -0.15315669181E-02  0.12761857404E+00  0.89174301500E+00  0.88000000000E+00 0. -1.
        -11    1    4    4    0    0  0.19735112581E-01  0.13247246505E-01 -0.12269188250E-01  0.26753659748E-01  0.51100000000E-03 0. -1.
         11    1    4    4    0    0  0.43946507184E-01 -0.94601214527E-02 -0.10267039756E+00  0.11208149289E+00  0.51100000000E-03 0.  1.
</event>
<event>
 8    1  0.2929965E+004  0.1043930E+01  0.7957747E-01            NaN
         13   -1    0    0    0    0  0.00000000000E+00  0.00000000000E+00  0.74505805969E-08  0.10566000000E+00  0.10566000000E+00 0.  1.
     999900   -1    0    0    0    0 -0.00000000000E+00 -0.00000000000E+00 -0.74505805969E-08  0.93827000000E+00  0.93827000000E+00 0.  1.
     999902    2    1    2    0    0  0.31655529625E-02 -0.11823054611E-01 -0.91952954898E-03  0.10316560080E+01  0.10315829913E+01 0.  0.
     999903    2    3    3    0    0  0.12585202979E+00  0.36593710105E-01  0.27435262554E-01  0.14137506976E+00  0.45347367016E-01 0.  0.
         14    1    1    2    0    0 -0.31655529625E-02  0.11823054611E-01  0.91952954898E-03  0.12273992035E-01  0.00000000000E+00 0.  1.
     999901    1    3    3    0    0 -0.12268647683E+00 -0.48416764716E-01 -0.28354792103E-01  0.89028093821E+00  0.88000000000E+00 0.  1.
        -11    1    4    4    0    0  0.74904175997E-01  0.17198486774E-01  0.38169197718E-01  0.85811259777E-01  0.51100000000E-03 0.  1.
         11    1    4    4    0    0  0.50947853795E-01  0.19395223331E-01 -0.10733935163E-01  0.55563809980E-01  0.51100000000E-03 0. -1.
</event>
<event>
 8    1  0.2929965E+004  0.1043930E+01  0.7957747E-01            NaN
         13   -1    0    0    0    0  0.00000000000E+00  0.00000000000E+00  0.74505805969E-08  0.10566000000E+00  0.10566000000E+00 0.  1.
     999900   -1    0    0    0    0 -0.00000000000E+00 -0.00000000000E+00 -0.74505805969E-08  0.93827000000E+00  0.93827000000E+00 0.  1.
     999902    2    1    2    0    0  0.20090420827E-01  0.33465700956E-02 -0.17950576438E-01  0.10167813769E+01  0.10164188707E+01 0.  0.
     999903    2    3    3    0    0  0.73642693755E-01  0.74437197903E-01 -0.64481176094E-01  0.13106877117E+00  0.45354800510E-01 0.  0.
         14    1    1    2    0    0 -0.20090420827E-01 -0.33465700956E-02  0.17950576438E-01  0.27148623074E-01  0.00000000000E+00 0.  1.
     999901    1    3    3    0    0 -0.53552272928E-01 -0.71090627807E-01  0.46530599656E-01  0.88571260576E+00  0.88000000000E+00 0. -1.
        -11    1    4    4    0    0  0.16940338769E-01  0.47070980141E-01 -0.19528147707E-01  0.53705324903E-01  0.51100000000E-03 0.  1.
         11    1    4    4    0    0  0.56702354985E-01  0.27366217762E-01 -0.44953028387E-01  0.77363446263E-01  0.51100000000E-03 0. -1.
</event>
<event>
 8    1  0.2929965E+004  0.1043930E+01  0.7957747E-01            NaN
         13   -1    0    0    0    0  0.00000000000E+00  0.00000000000E+00  0.74505805969E-08  0.10566000000E+00  0.10566000000E+00 0. -1.
     999900   -1    0    0    0    0 -0.00000000000E+00 -0.00000000000E+00 -0.74505805969E-08  0.93827000000E+00  0.93827000000E+00 0.  1.
     999902    2    1    2    0    0 -0.10395670403E-01  0.86379610779E-02 -0.60175942008E-04  0.10304137891E+01  0.10303251375E+01 0.  0.
     999903    2    3    3    0    0 -0.57829964218E-01 -0.50025344462E-01 -0.10774169258E+00  0.14064600783E+00  0.48230564455E-01 0.  0.
         14    1    1    2    0    0  0.10395670403E-01 -0.86379610779E-02  0.60175942008E-04  0.13516210854E-01  0.00000000000E+00 0. -1.
     999901    1    3    3    0    0  0.47434293815E-01  0.58663305540E-01  0.10768151664E+00  0.88976778132E+00  0.88000000000E+00 0. -1.
        -11    1    4    4    0    0 -0.42161892142E-01 -0.21637908707E-01 -0.94305445396E-01  0.10554431484E+00  0.51100000000E-03 0.  1.
         11    1    4    4    0    0 -0.15668072077E-01 -0.28387435755E-01 -0.13436247184E-01  0.35101692990E-01  0.51100000000E-03 0. -1.
</event>
<event>
 8    1  0.2929965E+004  0.1043930E+01  0.7957747E-01            NaN
         13   -1    0    0    0    0  0.00000000000E+00  0.00000000000E+00  0.74505805969E-08  0.10566000000E+00  0.10566000000E+00 0.  1.
     999900   -1    0    0    0    0 -0.00000000000E+00 -0.00000000000E+00 -0.74505805969E-08  0.93827000000E+00  0.93827000000E+00 0.  1.
     999902    2    1    2    0    0 -0.68421832463E-02  0.10673085540E-02  0.11564727881E-01  0.10304504766E+01  0.10303623087E+01 0.  0.
     999903    2    3    3    0    0 -0.40943590402E-01 -0.26791414867E-01 -0.12221656767E+00  0.13925103236E+00  0.45385053645E-01 0.  0.
         14    1    1    2    0    0  0.68421832463E-02 -0.10673085540E-02 -0.11564727881E-01  0.13479523363E-01  0.00000000000E+00 0. -1.
     999901    1    3    3    0    0  0.34101407156E-01  0.27858723421E-01  0.13378129555E+00  0.89119944428E+00  0.88000000000E+00 0. -1.
        -11    1    4    4    0    0 -0.11231809369E-01  0.12925007400E-01 -0.32055283753E-01  0.36345724583E-01  0.51100000000E-03 0. -1.
         11    1    4    4    0    0 -0.29711781033E-01 -0.39716422267E-01 -0.90161283918E-01  0.10290530778E+00  0.51100000000E-03 0.  1.
</event>
<event>
 8    1  0.2929965E+004  0.1043930E+01  0.7957747E-01            NaN
         13   -1    0    0    0    0  0.00000000000E+00  0.00000000000E+00  0.74505805969E-08  0.10566000000E+00  0.10566000000E+00 0.  1.
     999900   -1    0    0    0    0 -0.00000000000E+00 -0.00000000000E+00 -0.74505805969E-08  0.93827000000E+00  0.93827000000E+00 0.  1.
     999902    2    1    2    0    0  0.10099911224E-01 -0.88040658446E-02  0.32491356465E-02  0.10301431706E+01  0.10300509091E+01 0.  0.
     999903    2    3    3    0    0  0.12287963468E+00 -0.29793820706E-01  0.45085716928E-01  0.14171189282E+00  0.45414340520E-01 0.  0.
         14    1    1    2    0    0 -0.10099911224E-01  0.88040658446E-02 -0.32491356465E-02  0.13786829388E-01  0.00000000000E+00 0. -1.
     999901    1    3    3    0    0 -0.11277972345E+00  0.20989754861E-01 -0.41836581281E-01  0.88843127779E+00  0.88000000000E+00 0.  1.
        -11    1    4    4    0    0  0.75244011297E-02 -0.11504889167E-02 -0.84222323566E-02  0.11363773844E-01  0.51100000000E-03 0.  1.
         11    1    4    4    0    0  0.11535523355E+00 -0.28643331789E-01  0.53507949284E-01  0.13034811897E+00  0.51100000000E-03 0. -1.
</event>
<event>
 8    1  0.2929965E+004  0.1043930E+01  0.7957747E-01            NaN
         13   -1    0    0    0    0  0.00000000000E+00  0.00000000000E+00  0.74505805969E-08  0.10566000000E+00  0.10566000000E+00 0. -1.
     999900   -1    0    0    0    0 -0.00000000000E+00 -0.00000000000E+00 -0.74505805969E-08  0.93827000000E+00  0.93827000000E+00 0.  1.
     999902    2    1    2    0    0 -0.67529838962E-02 -0.12864885789E-01 -0.27919834868E-02  0.10291346207E+01  0.10290282621E+01 0.  0.
     999903    2    3    3    0    0 -0.23753007333E-01 -0.10217524911E-01 -0.12982382455E+00  0.13984664821E+00  0.45102731866E-01 0.  0.
         14    1    1    2    0    0  0.67529838962E-02  0.12864885789E-01  0.27919834868E-02  0.14795379335E-01  0.00000000000E+00 0. -1.
     999901    1    3    3    0    0  0.17000023436E-01 -0.26473608775E-02  0.12703184106E+00  0.88928797246E+00  0.88000000000E+00 0. -1.
        -11    1    4    4    0    0 -0.34046544389E-01 -0.18400919929E-01 -0.92513160162E-01  0.10028313399E+00  0.51100000000E-03 0. -1.
         11    1    4    4    0    0  0.10293537056E-01  0.81833950170E-02 -0.37310664386E-01  0.39563514215E-01  0.51100000000E-03 0.  1.
</event>
<event>
 8    1  0.2929965E+004  0.1043930E+01  0.7957747E-01            NaN
         13   -1    0    0    0    0  0.00000000000E+00  0.00000000000E+00  0.74505805969E-08  0.10566000000E+00  0.10566000000E+00 0. -1.
     999900   -1    0    0    0    0 -0.00000000000E+00 -0.00000000000E+00 -0.74505805969E-08  0.93827000000E+00  0.93827000000E+00 0. -1.
     999902    2    1    2    0    0  0.42907941260E-02 -0.10899466270E-01 -0.66324328983E-02  0.10304690028E+01  0.10303810787E+01 0.  0.
     999903    2    3    3    0    0 -0.10281332425E+00 -0.49411425226E-01  0.67470564891E-01  0.14005015899E+00  0.45273627202E-01 0.  0.
         14    1    1    2    0    0 -0.42907941260E-02  0.10899466270E-01  0.66324328983E-02  0.13460997190E-01  0.00000000000E+00 0. -1.
     999901    1    3    3    0    0  0.10710411837E+00  0.38511958956E-01 -0.74102997790E-01  0.89041884382E+00  0.88000000000E+00 0.  1.
        -11    1    4    4    0    0 -0.25622113339E-01 -0.35005757977E-01  0.16411056467E-01  0.46384045521E-01  0.51100000000E-03 0. -1.
         11    1    4    4    0    0 -0.77191210907E-01 -0.14405667248E-01  0.51059508425E-01  0.93666113466E-01  0.51100000000E-03 0.  1.
</event>
<event>
 8    1  0.2929965E+004  0.1043930E+01  0.7957747E-01            NaN
         13   -1    0    0    0    0  0.00000000000E+00  0.00000000000E+00  0.74505805969E-08  0.10566000000E+00  0.10566000000E+00 0.  1.
     999900   -1    0    0    0    0 -0.00000000000E+00 -0.00000000000E+00 -0.74505805969E-08  0.93827000000E+00  0.93827000000E+00 0. -1.
     999902    2    1    2    0    0 -0.23769854473E-02 -0.13584544813E-01 -0.17141929490E-05  0.10301390638E+01  0.10300467469E+01 0.  0.
     999903    2    3    3    0    0  0.89245631241E-01 -0.99686542586E-01  0.55295297806E-02  0.14118526718E+00  0.44727111478E-01 0.  0.
         14    1    1    2    0    0  0.23769854473E-02  0.13584544813E-01  0.17141929490E-05  0.13790936174E-01  0.00000000000E+00 0. -1.
     999901    1    3    3    0    0 -0.91622616689E-01  0.86101997773E-01 -0.55312439736E-02  0.88895379664E+00  0.88000000000E+00 0. -1.
        -11    1    4    4    0    0  0.45212088921E-01 -0.56984387558E-01 -0.18900275408E-01  0.75158731638E-01  0.51100000000E-03 0. -1.
         11    1    4    4    0    0  0.44033542320E-01 -0.42702155028E-01  0.24429805189E-01  0.66026535544E-01  0.51100000000E-03 0.  1.
</event>
<event>
 8    1  0.2929965E+004  0.1043930E+01  0.7957747E-01            NaN
         13   -1    0    0    0    0  0.00000000000E+00  0.00000000000E+00  0.74505805969E-08  0.10566000000E+00  0.10566000000E+00 0. -1.
     999900   -1    0    0    0    0 -0.00000000000E+00 -0.00000000000E+00 -0.74505805969E-08  0.93827000000E+00  0.93827000000E+00 0.  1.
     999902    2    1    2    0    0  0.70314560466E-02 -0.21076005483E-02 -0.80092325831E-02  0.10330657853E+01  0.10330086571E+01 0.  0.
     999903    2    3    3    0    0 -0.93494313927E-01 -0.40493909786E-01 -0.90288041546E-01  0.14270139835E+00  0.42788026113E-01 0.  0.
         14    1    1    2    0    0 -0.70314560466E-02  0.21076005483E-02  0.80092325831E-02  0.10864214688E-01  0.00000000000E+00 0. -1.
     999901    1    3    3    0    0  0.10052576997E+00  0.38386309237E-01  0.82278808963E-01  0.89036438696E+00  0.88000000000E+00 0.  1.
        -11    1    4    4    0    0 -0.80855149489E-01 -0.35067985064E-01 -0.52736879756E-01  0.10270714865E+00  0.51100000000E-03 0. -1.
         11    1    4    4    0    0 -0.12639164438E-01 -0.54259247217E-02 -0.37551161789E-01  0.39994249705E-01  0.51100000000E-03 0.  1.
</event>
<event>
 8    1  0.2929965E+004  0.1043930E+01  0.7957747E-01            NaN
         13   -1    0    0    0    0  0.00000000000E+00  0.00000000000E+00  0.74505805969E-08  0.10566000000E+00  0.10566000000E+00 0. -1.
     999900   -1    0    0    0    0 -0.00000000000E+00 -0.00000000000E+00 -0.74505805969E-08  0.93827000000E+00  0.93827000000E+00 0. -1.
     999902    2    1    2    0    0 -0.90769509933E-02  0.24566955885E-02 -0.97831949832E-02  0.10303602802E+01  0.10302709205E+01 0.  0.
     999903    2    3    3    0    0  0.64956526714E-01 -0.62902119283E-01 -0.97734476121E-01  0.14047930027E+00  0.44792622269E-01 0.  0.
         14    1    1    2    0    0  0.90769509933E-02 -0.24566955885E-02  0.97831949832E-02  0.13569719843E-01  0.00000000000E+00 0. -1.
     999901    1    3    3    0    0 -0.74033477707E-01  0.65358814871E-01  0.87951281138E-01  0.88988097988E+00  0.88000000000E+00 0.  1.
        -11    1    4    4    0    0  0.60276527078E-01 -0.34933772696E-01 -0.83493075194E-01  0.10874273731E+00  0.51100000000E-03 0.  1.
         11    1    4    4    0    0  0.46799996365E-02 -0.27968346587E-01 -0.14241400927E-01  0.31736562964E-01  0.51100000000E-03 0. -1.
</event>
<event>
 8    1  0.2929965E+004  0.1043930E+01  0.7957747E-01            NaN
         13   -1    0    0    0    0  0.00000000000E+00  0.00000000000E+00  0.74505805969E-08  0.10566000000E+00  0.10566000000E+00 0.  1.
     999900   -1    0    0    0    0 -0.00000000000E+00 -0.00000000000E+00 -0.74505805969E-08  0.93827000000E+00  0.93827000000E+00 0. -1.
     999902    2    1    2    0    0 -0.12872068684E-01 -0.39356985846E-02  0.24577309258E-02  0.10302471525E+01  0.10301562866E+01 0.  0.
     999903    2    3    3    0    0  0.66981808255E-01  0.33893707257E-02 -0.11491166805E+00  0.13884046967E+00  0.39672838240E-01 0.  0.
         14    1    1    2    0    0  0.12872068684E-01  0.39356985846E-02 -0.24577309258E-02  0.13682847542E-01  0.00000000000E+00 0.  1.
     999901    1    3    3    0    0 -0.79853876939E-01 -0.73250693103E-02  0.11736939897E+00  0.89140668279E+00  0.88000000000E+00 0.  1.
        -11    1    4    4    0    0  0.40285604756E-01 -0.16483910866E-01 -0.53342683631E-01  0.68850216310E-01  0.51100000000E-03 0. -1.
         11    1    4    4    0    0  0.26696203499E-01  0.19873281591E-01 -0.61568984416E-01  0.69990253360E-01  0.51100000000E-03 0.  1.
</event>
<event>
 8    1  0.2929965E+004  0.1043930E+01  0.7957747E-01            NaN
         13   -1    0    0    0    0  0.00000000000E+00  0.00000000000E+00  0.74505805969E-08  0.10566000000E+00  0.10566000000E+00 0.  1.
     999900   -1    0    0    0    0 -0.00000000000E+00 -0.00000000000E+00 -0.74505805969E-08  0.93827000000E+00  0.93827000000E+00 0.  1.
     999902    2    1    2    0    0  0.37697256812E-02 -0.38071985105E-02  0.12677786993E-01  0.10301665747E+01  0.10300746283E+01 0.  0.
     999903    2    3    3    0    0  0.12203447442E+00 -0.53911084795E-01 -0.76118440303E-02  0.14061128171E+00  0.43758134810E-01 0.  0.
         14    1    1    2    0    0 -0.37697256812E-02  0.38071985105E-02 -0.12677786993E-01  0.13763425273E-01  0.00000000000E+00 0. -1.
     999901    1    3    3    0    0 -0.11826474874E+00  0.50103886285E-01  0.20289631023E-01  0.88955529302E+00  0.88000000000E+00 0. -1.
        -11    1    4    4    0    0  0.26167446034E-01 -0.26446335813E-01 -0.16067281992E-01  0.40528540333E-01  0.51100000000E-03 0.  1.
         11    1    4    4    0    0  0.95867028388E-01 -0.27464748982E-01  0.84554379617E-02  0.10008274137E+00  0.51100000000E-03 0. -1.
</event>
<event>
 8    1  0.2929965E+004  0.1043930E+01  0.7957747E-01            NaN
         13   -1    0    0    0    0  0.00000000000E+00  0.00000000000E+00  0.74505805969E-08  0.10566000000E+00  0.10566000000E+00 0. -1.
     999900   -1    0    0    0    0 -0.00000000000E+00 -0.00000000000E+00 -0.74505805969E-08  0.93827000000E+00  0.93827000000E+00 0.  1.
     999902    2    1    2    0    0  0.13302007168E-01  0.11872681787E-02  0.43960680837E-03  0.10305678799E+01  0.10304812510E+01 0.  0.
     999903    2    3    3    0    0 -0.90522553227E-01 -0.92474897429E-01  0.24157104091E-01  0.13921236141E+00  0.45283292646E-01 0.  0.
         14    1    1    2    0    0 -0.13302007168E-01 -0.11872681787E-02 -0.43960680837E-03  0.13362120137E-01  0.00000000000E+00 0. -1.
     999901    1    3    3    0    0  0.10382456039E+00  0.93662165607E-01 -0.23717497282E-01  0.89135551846E+00  0.88000000000E+00 0.  1.
        -11    1    4    4    0    0 -0.40837560373E-01 -0.27964270517E-01 -0.10695150118E-01  0.50639452207E-01  0.51100000000E-03 0.  1.
         11    1    4    4    0    0 -0.49684992853E-01 -0.64510626912E-01  0.34852254208E-01  0.88572909198E-01  0.51100000000E-03 0. -1.
</event>
<event>
 8    1  0.2929965E+004  0.1043930E+01  0.7957747E-01            NaN
         13   -1    0    0    0    0  0.00000000000E+00  0.00000000000E+00  0.74505805969E-08  0.10566000000E+00  0.10566000000E+00 0.  1.
     999900   -1    0    0    0    0 -0.00000000000E+00 -0.00000000000E+00 -0.74505805969E-08  0.93827000000E+00  0.93827000000E+00 0.  1.
     999902    2    1    2    0    0 -0.40338904223E-02  0.11352900130E-01 -0.10014179262E-01  0.10282633348E+01  0.10281439788E+01 0.  0.
     999903    2    3    3    0    0 -0.40361024851E-01 -0.11090905814E+00 -0.52820487694E-01  0.13803862876E+00  0.48320053871E-01 0.  0.
         14    1    1    2    0    0  0.40338904223E-02 -0.11352900130E-01  0.10014179262E-01  0.15666665236E-01  0.00000000000E+00 0.  1.
     999901    1    3    3    0    0  0.36327134429E-01  0.12226195827E+00  0.42806308432E-01  0.89022470600E+00  0.88000000000E+00 0.  1.
        -11    1    4    4    0    0 -0.13099091398E-01 -0.28924104884E-01 -0.39396505639E-01  0.50601737286E-01  0.51100000000E-03 0.  1.
         11    1    4    4    0    0 -0.27261933453E-01 -0.81984953255E-01 -0.13423982054E-01  0.87436891476E-01  0.51100000000E-03 0. -1.
</event>
<event>
 8    1  0.2929965E+004  0.1043930E+01  0.7957747E-01            NaN
         13   -1    0    0    0    0  0.00000000000E+00  0.00000000000E+00  0.74505805969E-08  0.10566000000E+00  0.10566000000E+00 0.  1.
     999900   -1    0    0    0    0 -0.00000000000E+00 -0.00000000000E+00 -0.74505805969E-08  0.93827000000E+00  0.93827000000E+00 0.  1.
     999902    2    1    2    0    0  0.67460281819E-02 -0.82954178896E-02  0.72518032162E-02  0.10310105765E+01  0.10309296277E+01 0.  0.
     999903    2    3    3    0    0 -0.21669885651E-01  0.79192002562E-02 -0.13032154985E+00  0.13972117035E+00  0.44788407125E-01 0.  0.
         14    1    1    2    0    0 -0.67460281819E-02  0.82954178896E-02 -0.72518032162E-02  0.12919423520E-01  0.00000000000E+00 0. -1.
     999901    1    3    3    0    0  0.28415913833E-01 -0.16214618146E-01  0.13757335307E+00  0.89128940613E+00  0.88000000000E+00 0. -1.
        -11    1    4    4    0    0 -0.13402096623E-01  0.24753384214E-01 -0.10149041239E+00  0.10532288997E+00  0.51100000000E-03 0. -1.
         11    1    4    4    0    0 -0.82677890284E-02 -0.16834183958E-01 -0.28831137457E-01  0.34398280378E-01  0.51100000000E-03 0.  1.
</event>
<event>
 8    1  0.2929965E+004  0.1043930E+01  0.7957747E-01            NaN
         13   -1    0    0    0    0  0.00000000000E+00  0.00000000000E+00  0.74505805969E-08  0.10566000000E+00  0.10566000000E+00 0. -1.
     999900   -1    0    0    0    0 -0.00000000000E+00 -0.00000000000E+00 -0.74505805969E-08  0.93827000000E+00  0.93827000000E+00 0. -1.
     999902    2    1    2    0    0 -0.90333510050E-02  0.47307321367E-02  0.54151047110E-02  0.10323842382E+01  0.10323196746E+01 0.  0.
     999903    2    3    3    0    0  0.64159648463E-01 -0.85556325717E-01  0.81227967433E-01  0.14151019650E+00  0.44618467692E-01 0.  0.
         14    1    1    2    0    0  0.90333510050E-02 -0.47307321367E-02 -0.54151047110E-02  0.11545761818E-01  0.00000000000E+00 0.  1.
     999901    1    3    3    0    0 -0.73192999468E-01  0.90287057854E-01 -0.75812862722E-01  0.89087404168E+00  0.88000000000E+00 0. -1.
        -11    1    4    4    0    0  0.45386280962E-01 -0.24921300960E-01  0.29275814293E-01  0.59483780685E-01  0.51100000000E-03 0.  1.
         11    1    4    4    0    0  0.18773367502E-01 -0.60635024757E-01  0.51952153141E-01  0.82026415816E-01  0.51100000000E-03 0. -1.
</event>
<event>
 8    1  0.2929965E+004  0.1043930E+01  0.7957747E-01            NaN
         13   -1    0    0    0    0  0.00000000000E+00  0.00000000000E+00  0.74505805969E-08  0.10566000000E+00  0.10566000000E+00 0.  1.
     999900   -1    0    0    0    0 -0.00000000000E+00 -0.00000000000E+00 -0.74505805969E-08  0.93827000000E+00  0.93827000000E+00 0. -1.
     999902    2    1    2    0    0 -0.35644562488E-02 -0.12827104634E-01 -0.18895475311E-02  0.10304834260E+01  0.10303956915E+01 0.  0.
     999903    2    3    3    0    0  0.59991144956E-01  0.93718477356E-01 -0.70180552419E-01  0.13916140968E+00  0.45370668221E-01 0.  0.
         14    1    1    2    0    0  0.35644562488E-02  0.12827104634E-01  0.18895475311E-02  0.13446573969E-01  0.00000000000E+00 0.  1.
     999901    1    3    3    0    0 -0.63555601205E-01 -0.10654558199E+00  0.68291004888E-01  0.89132201635E+00  0.88000000000E+00 0.  1.
        -11    1    4    4    0    0  0.22431496509E-01  0.64168742345E-01 -0.22382781858E-01  0.71568495684E-01  0.51100000000E-03 0.  1.
         11    1    4    4    0    0  0.37559648447E-01  0.29549735011E-01 -0.47797770561E-01  0.67592913995E-01  0.51100000000E-03 0. -1.
</event>
<event>
 8    1  0.2929965E+004  0.1043930E+01  0.7957747E-01            NaN
         13   -1    0    0    0    0  0.00000000000E+00  0.00000000000E+00  0.74505805969E-08  0.10566000000E+00  0.10566000000E+00 0.  1.
     999900   -1    0    0    0    0 -0.00000000000E+00 -0.00000000000E+00 -0.74505805969E-08  0.93827000000E+00  0.93827000000E+00 0. -1.
     999902    2    1    2    0    0  0.15016371753E-01  0.29535592059E-02 -0.42347164949E-02  0.10280508389E+01  0.10279281977E+01 0.  0.
     999903    2    3    3    0    0  0.92881195144E-01  0.61526469549E-01 -0.66014313694E-01  0.14052031259E+00  0.54549480032E-01 0.  0.
         14    1    1    2    0    0 -0.15016371753E-01 -0.29535592059E-02  0.42347164949E-02  0.15879161073E-01  0.00000000000E+00 0. -1.
     999901    1    3    3    0    0 -0.77864823391E-01 -0.58572910343E-01  0.61779597199E-01  0.88753052634E+00  0.88000000000E+00 0.  1.
        -11    1    4    4    0    0  0.48697944018E-01  0.13108127957E-02 -0.19151665602E-01  0.52347448821E-01  0.51100000000E-03 0. -1.
         11    1    4    4    0    0  0.44183251126E-01  0.60215656753E-01 -0.46862648092E-01  0.88172863770E-01  0.51100000000E-03 0.  1.
</event>
<event>
 8    1  0.2929965E+004  0.1043930E+01  0.7957747E-01            NaN
         13   -1    0    0    0    0  0.00000000000E+00  0.00000000000E+00  0.74505805969E-08  0.10566000000E+00  0.10566000000E+00 0.  1.
     999900   -1    0    0    0    0 -0.00000000000E+00 -0.00000000000E+00 -0.74505805969E-08  0.93827000000E+00  0.93827000000E+00 0.  1.
     999902    2    1    2    0    0  0.14428315972E-01  0.19591205005E-01 -0.28062873157E-02  0.10194378204E+01  0.10191435633E+01 0.  0.
     999903    2    3    3    0    0  0.10874685135E+00 -0.58752680116E-01 -0.81737305843E-02  0.13092076374E+00  0.42375481207E-01 0.  0.
         14    1    1    2    0    0 -0.14428315972E-01 -0.19591205005E-01  0.28062873157E-02  0.24492179646E-01  0.00000000000E+00 0.  1.
     999901    1    3    3    0    0 -0.94318535374E-01  0.78343885121E-01  0.53674432685E-02  0.88851705662E+00  0.88000000000E+00 0.  1.
        -11    1    4    4    0    0  0.68648958319E-01 -0.27046250129E-01 -0.23690514379E-01  0.77496327118E-01  0.51100000000E-03 0.  1.
         11    1    4    4    0    0  0.40097893027E-01 -0.31706429987E-01  0.15516783795E-01  0.53424436619E-01  0.51100000000E-03 0. -1.
</event>
<event>
 8    1  0.2929965E+004  0.1043930E+01  0.7957747E-01            NaN
         13   -1    0    0    0    0  0.00000000000E+00  0.00000000000E+00  0.74505805969E-08  0.10566000000E+00  0.10566000000E+00 0.  1.
     999900   -1    0    0    0    0 -0.00000000000E+00 -0.00000000000E+00 -0.74505805969E-08  0.93827000000E+00  0.93827000000E+00 0.  1.
     999902    2    1    2    0    0 -0.78656266276E-02  0.85962612671E-02 -0.79923034317E-02  0.10298005731E+01  0.10297036368E+01 0.  0.
     999903    2    3    3    0    0 -0.31522944126E-01  0.50185959477E-02 -0.13011452887E+00  0.14104509138E+00  0.44102662812E-01 0.  0.
         14    1    1    2    0    0  0.78656266276E-02 -0.85962612671E-02  0.79923034317E-02  0.14129426887E-01  0.00000000000E+00 0.  1.
     999901    1    3    3    0    0  0.23657317498E-01  0.35776653195E-02  0.12212222544E+00  0.88875548173E+00  0.88000000000E+00 0. -1.
        -11    1    4    4    0    0 -0.75994007801E-03 -0.79180648916E-02 -0.82576359764E-01  0.82960168596E-01  0.51100000000E-03 0.  1.
         11    1    4    4    0    0 -0.30763004048E-01  0.12936660839E-01 -0.47538169110E-01  0.58084922785E-01  0.51100000000E-03 0. -1.
</event>
<event>
 8    1  0.2929965E+004  0.1043930E+01  0.7957747E-01            NaN
         13   -1    0    0    0    0  0.00000000000E+00  0.00000000000E+00  0.74505805969E-08  0.10566000000E+00  0.10566000000E+00 0. -1.
     999900   -1    0    0    0    0 -0.00000000000E+00 -0.00000000000E+00 -0.74505805969E-08  0.93827000000E+00  0.93827000000E+00 0.  1.
     999902    2    1    2    0    0 -0.92184821368E-02 -0.63002527514E-02  0.72904957639E-02  0.10305948987E+01  0.10305086222E+01 0.  0.
     999903    2    3    3    0    0 -0.10184701467E+00  0.85401358907E-01 -0.13644272047E-01  0.14074800452E+00  0.44245091423E-01 0.  0.
         14    1    1    2    0    0  0.92184821368E-02  0.63002527514E-02 -0.72904957639E-02  0.13335101279E-01  0.00000000000E+00 0.  1.
     999901    1    3    3    0    0  0.92628532536E-01 -0.91701611659E-01  0.20934767811E-01  0.88984689420E+00  0.88000000000E+00 0. -1.
        -11    1    4    4    0    0 -0.46164159896E-01  0.29913878882E-01 -0.26552656455E-01  0.61084159113E-01  0.51100000000E-03 0. -1.
         11    1    4    4    0    0 -0.55682854776E-01  0.55487480026E-01  0.12908384408E-01  0.79663845405E-01  0.51100000000E-03 0.  1.
</event>
<event>
 8    1  0.2929965E+004  0.1043930E+01  0.7957747E-01            NaN
         13   -1    0    0    0    0  0.00000000000E+00  0.00000000000E+00  0.74505805969E-08  0.10566000000E+00  0.10566000000E+00 0. -1.
     999900   -1    0    0    0    0 -0.00000000000E+00 -0.00000000000E+00 -0.74505805969E-08  0.93827000000E+00  0.93827000000E+00 0. -1.
     999902    2    1    2    0    0 -0.28459341068E-02  0.10361057950E-01 -0.96776548357E-02  0.10294694376E+01  0.10293678716E+01 0.  0.
     999903    2    3    3    0    0 -0.94040816614E-01  0.91106934705E-01 -0.26385010652E-01  0.14092256826E+00  0.44931644954E-01 0.  0.
         14    1    1    2    0    0  0.28459341068E-02 -0.10361057950E-01  0.96776548357E-02  0.14460562433E-01  0.00000000000E+00 0. -1.
     999901    1    3    3    0    0  0.91194882507E-01 -0.80745876756E-01  0.16707355816E-01  0.88854686930E+00  0.88000000000E+00 0.  1.
        -11    1    4    4    0    0 -0.23517465911E-02 -0.30361004527E-03 -0.10150810296E-01  0.10436616394E-01  0.51100000000E-03 0.  1.
         11    1    4    4    0    0 -0.91689070023E-01  0.91410544751E-01 -0.16234200356E-01  0.13048595187E+00  0.51100000000E-03 0. -1.
</event>
<event>
 8    1  0.2929965E+004  0.1043930E+01  0.7957747E-01            NaN
         13   -1    0    0    0    0  0.00000000000E+00  0.00000000000E+00  0.74505805969E-08  0.10566000000E+00  0.10566000000E+00 0.  1.
     999900   -1    0    0    0    0 -0.00000000000E+00 -0.00000000000E+00 -0.74505805969E-08  0.93827000000E+00  0.93827000000E+00 0. -1.
     999902    2    1    2    0    0  0.61909725511E-02  0.53818306001E-02 -0.74237968213E-02  0.10328663206E+01  0.10328070639E+01 0.  0.
     999903    2    3    3    0    0  0.54064743079E-02 -0.13170652204E+00  0.26032922730E-01  0.14162382617E+00  0.44763346167E-01 0.  0.
         14    1    1    2    0    0 -0.61909725511E-02 -0.53818306001E-02  0.74237968213E-02  0.11063679360E-01  0.00000000000E+00 0.  1.
     999901    1    3    3    0    0  0.78449824321E-03  0.13708835264E+00 -0.33456719551E-01  0.89124249447E+00  0.88000000000E+00 0. -1.
        -11    1    4    4    0    0  0.32679698075E-02 -0.71724705045E-01 -0.86202973383E-02  0.72316551270E-01  0.51100000000E-03 0.  1.
         11    1    4    4    0    0  0.21385045004E-02 -0.59981816997E-01  0.34653220068E-01  0.69307274899E-01  0.51100000000E-03 0. -1.
</event>
<event>
 8    1  0.2929965E+004  0.1043930E+01  0.7957747E-01            NaN
         13   -1    0    0    0    0  0.00000000000E+00  0.00000000000E+00  0.74505805969E-08  0.10566000000E+00  0.10566000000E+00 0.  1.
     999900   -1    0    0    0    0 -0.00000000000E+00 -0.00000000000E+00 -0.74505805969E-08  0.93827000000E+00  0.93827000000E+00 0. -1.
     999902    2    1    2    0    0  0.99482547686E-02 -0.10885885434E-01 -0.24960391204E-02  0.10289733799E+01  0.10288646733E+01 0.  0.
     999903    2    3    3    0    0 -0.10053492270E+00  0.67059264629E-01 -0.45583720331E-01  0.13760447352E+00  0.47464722895E-01 0.  0.
         14    1    1    2    0    0 -0.99482547686E-02  0.10885885434E-01  0.24960391204E-02  0.14956620137E-01  0.00000000000E+00 0. -1.
     999901    1    3    3    0    0  0.11048317747E+00 -0.77945150063E-01  0.43087681210E-01  0.89136890634E+00  0.88000000000E+00 0.  1.
        -11    1    4    4    0    0 -0.29206065229E-01 -0.31483958680E-02 -0.60654769888E-02  0.29999296239E-01  0.51100000000E-03 0. -1.
         11    1    4    4    0    0 -0.71328857468E-01  0.70207660497E-01 -0.39518243342E-01  0.10760517728E+00  0.51100000000E-03 0.  1.
</event>
<event>
 8    1  0.2929965E+004  0.1043930E+01  0.7957747E-01            NaN
         13   -1    0    0    0    0  0.00000000000E+00  0.00000000000E+00  0.74505805969E-08  0.10566000000E+00  0.10566000000E+00 0. -1.
     999900   -1    0    0    0    0 -0.00000000000E+00 -0.00000000000E+00 -0.74505805969E-08  0.93827000000E+00  0.93827000000E+00 0. -1.
     999902    2    1    2    0    0  0.16617376042E-01  0.13973330476E-02 -0.86316436725E-02  0.10251524869E+01  0.10249805005E+01 0.  0.
     999903    2    3    3    0    0 -0.27428740332E-01  0.93082454256E-01 -0.84101142438E-01  0.13608451026E+00  0.45047893262E-01 0.  0.
         14    1    1    2    0    0 -0.16617376042E-01 -0.13973330476E-02  0.86316436725E-02  0.18777513112E-01  0.00000000000E+00 0. -1.
     999901    1    3    3    0    0  0.44046116374E-01 -0.91685121208E-01  0.75469498765E-01  0.88906797663E+00  0.88000000000E+00 0. -1.
        -11    1    4    4    0    0 -0.74969228749E-02  0.39512946315E-01 -0.63813129633E-01  0.75431117012E-01  0.51100000000E-03 0. -1.
         11    1    4    4    0    0 -0.19931817457E-01  0.53569507941E-01 -0.20288012805E-01  0.60653393250E-01  0.51100000000E-03 0.  1.
</event>
<event>
 8    1  0.2929965E+004  0.1043930E+01  0.7957747E-01            NaN
         13   -1    0    0    0    0  0.00000000000E+00  0.00000000000E+00  0.74505805969E-08  0.10566000000E+00  0.10566000000E+00 0.  1.
     999900   -1    0    0    0    0 -0.00000000000E+00 -0.00000000000E+00 -0.74505805969E-08  0.93827000000E+00  0.93827000000E+00 0.  1.
     999902    2    1    2    0    0  0.18589657424E-03  0.24971416771E-02 -0.13811258163E-01  0.10298935786E+01  0.10297979229E+01 0.  0.
     999903    2    3    3    0    0  0.34709246108E-01  0.10259697085E+00 -0.78782906355E-01  0.14116800084E+00  0.44618246672E-01 0.  0.
         14    1    1    2    0    0 -0.18589657424E-03 -0.24971416771E-02  0.13811258163E-01  0.14036421415E-01  0.00000000000E+00 0.  1.
     999901    1    3    3    0    0 -0.34523349534E-01 -0.10009982917E+00  0.64971648192E-01  0.88872557774E+00  0.88000000000E+00 0.  1.
        -11    1    4    4    0    0  0.82683749989E-02  0.84217057435E-01 -0.52379961587E-01  0.99522863127E-01  0.51100000000E-03 0. -1.
         11    1    4    4    0    0  0.26440871109E-01  0.18379913412E-01 -0.26402944768E-01  0.41645137717E-01  0.51100000000E-03 0.  1.
</event>
<event>
 8    1  0.2929965E+004  0.1043930E+01  0.7957747E-01            NaN
         13   -1    0    0    0    0  0.00000000000E+00  0.00000000000E+00  0.74505805969E-08  0.10566000000E+00  0.10566000000E+00 0. -1.
     999900   -1    0    0    0    0 -0.00000000000E+00 -0.00000000000E+00 -0.74505805969E-08  0.93827000000E+00  0.93827000000E+00 0. -1.
     999902    2    1    2    0    0  0.71344149324E-02  0.17792590240E-02  0.52112156577E-04  0.10365768813E+01  0.10365508007E+01 0.  0.
     999903    2    3    3    0    0 -0.40784819123E-01 -0.86269557637E-01 -0.99699543831E-01  0.14528610944E+00  0.45411634090E-01 0.  0.
         14    1    1    2    0    0 -0.71344149324E-02 -0.17792590240E-02 -0.52112156577E-04  0.73531187111E-02  0.00000000000E+00 0. -1.
     999901    1    3    3    0    0  0.47919234055E-01  0.88048816661E-01  0.99751655988E-01  0.89129077185E+00  0.88000000000E+00 0.  1.
        -11    1    4    4    0    0 -0.32371744477E-03 -0.38994830527E-01 -0.19002049846E-01  0.43382492092E-01  0.51100000000E-03 0.  1.
         11    1    4    4    0    0 -0.40461101678E-01 -0.47274727110E-01 -0.80697493986E-01  0.10190361735E+00  0.51100000000E-03 0. -1.
</event>
<event>
 8    1  0.2929965E+004  0.1043930E+01  0.7957747E-01            NaN
         13   -1    0    0    0    0  0.00000000000E+00  0.00000000000E+00  0.74505805969E-08  0.10566000000E+00  0.10566000000E+00 0. -1.
     999900   -1    0    0    0    0 -0.00000000000E+00 -0.00000000000E+00 -0.74505805969E-08  0.93827000000E+00  0.93827000000E+00 0. -1.
     999902    2    1    2    0    0 -0.20134999416E-02 -0.47451734815E-02  0.11876413673E-01  0.10309831836E+01  0.10309018890E+01 0.  0.
     999903    2    3    3    0    0  0.33921020779E-01  0.70316087429E-01 -0.10610915292E+00  0.13921747636E+00  0.45026276648E-01 0.  0.
         14    1    1    2    0    0  0.20134999416E-02  0.47451734815E-02 -0.11876413673E-01  0.12946816409E-01  0.00000000000E+00 0.  1.
     999901    1    3    3    0    0 -0.35934520721E-01 -0.75061260910E-01  0.11798556659E+00  0.89176570723E+00  0.88000000000E+00 0.  1.
        -11    1    4    4    0    0  0.43718215437E-01  0.53208582863E-01 -0.70766699384E-01  0.98745240462E-01  0.51100000000E-03 0.  1.
         11    1    4    4    0    0 -0.97971946578E-02  0.17107504565E-01 -0.35342453536E-01  0.40472235898E-01  0.51100000000E-03 0. -1.
</event>
<event>
 8    1  0.2929965E+004  0.1043930E+01  0.7957747E-01            NaN
         13   -1    0    0    0    0  0.00000000000E+00  0.00000000000E+00  0.74505805969E-08  0.10566000000E+00  0.10566000000E+00 0. -1.
     999900   -1    0    0    0    0 -0.00000000000E+00 -0.00000000000E+00 -0.74505805969E-08  0.93827000000E+00  0.93827000000E+00 0. -1.
     999902    2    1    2    0    0  0.43991328963E-03  0.37790201668E-02  0.11930191948E-01  0.10314078597E+01  0.10313318424E+01 0.  0.
     999903    2    3    3    0    0 -0.77076680734E-01 -0.42909712347E-01  0.10225257066E+00  0.14216841380E+00  0.44432100427E-01 0.  0.
         14    1    1    2    0    0 -0.43991328963E-03 -0.37790201668E-02 -0.11930191948E-01  0.12522140274E-01  0.00000000000E+00 0.  1.
     999901    1    3    3    0    0  0.77516594024E-01  0.46688732514E-01 -0.90322378717E-01  0.88923944593E+00  0.88000000000E+00 0. -1.
        -11    1    4    4    0    0 -0.31393293691E-01 -0.40970670100E-01  0.42106167087E-01  0.66613250370E-01  0.51100000000E-03 0.  1.
         11    1    4    4    0    0 -0.45683387044E-01 -0.19390422474E-02  0.60146403578E-01  0.75555163431E-01  0.51100000000E-03 0. -1.
</event>
<event>
 8    1  0.2929965E+004  0.1043930E+01  0.7957747E-01            NaN
         13   -1    0    0    0    0  0.00000000000E+00  0.00000000000E+00  0.74505805969E-08  0.10566000000E+00  0.10566000000E+00 0. -1.
     999900   -1    0    0    0    0 -0.00000000000E+00 -0.00000000000E+00 -0.74505805969E-08  0.93827000000E+00  0.93827000000E+00 0.  1.
     999902    2    1    2    0    0 -0.21559668337E-02 -0.67640423549E-02 -0.13241869475E-01  0.10289051017E+01  0.10287953930E+01 0.  0.
     999903    2    3    3    0    0  0.95410049718E-01  0.66282456488E-01 -0.62103620852E-01  0.13916222348E+00  0.44864497058E-01 0.  0.
         14    1    1    2    0    0  0.21559668337E-02  0.67640423549E-02  0.13241869475E-01  0.15024898308E-01  0.00000000000E+00 0. -1.
     999901    1    3    3    0    0 -0.97566016551E-01 -0.73046498843E-01  0.48861751377E-01  0.88974287821E+00  0.88000000000E+00 0.  1.
        -11    1    4    4    0    0  0.11024482580E-01  0.25199026111E-01 -0.28131175018E-01  0.39346591491E-01  0.51100000000E-03 0.  1.
         11    1    4    4    0    0  0.84385567138E-01  0.41083430378E-01 -0.33972445834E-01  0.99815631991E-01  0.51100000000E-03 0. -1.
</event>
<event>
 8    1  0.2929965E+004  0.1043930E+01  0.7957747E-01            NaN
         13   -1    0    0    0    0  0.00000000000E+00  0.00000000000E+00  0.74505805969E-08  0.10566000000E+00  0.10566000000E+00 0.  1.
     999900   -1    0    0    0    0 -0.00000000000E+00 -0.00000000000E+00 -0.74505805969E-08  0.93827000000E+00  0.93827000000E+00 0.  1.
     999902    2    1    2    0    0  0.11700443502E-01  0.52718644343E-02  0.90512288718E-02  0.10282259344E+01  0.10281060035E+01 0.  0.
     999903    2    3    3    0    0 -0.73284607187E-02  0.48520161283E-01 -0.11964972595E+00  0.13761016417E+00  0.47038154476E-01 0.  0.
         14    1    1    2    0    0 -0.11700443502E-01 -0.52718644343E-02 -0.90512288718E-02  0.15704065615E-01  0.00000000000E+00 0. -1.
     999901    1    3    3    0    0  0.19028904221E-01 -0.43248296849E-01  0.12870095482E+00  0.89061577021E+00  0.88000000000E+00 0. -1.
        -11    1    4    4    0    0  0.16076801616E-01  0.26447794172E-01 -0.33323087767E-01  0.45482289587E-01  0.51100000000E-03 0.  1.
         11    1    4    4    0    0 -0.23405262335E-01  0.22072367111E-01 -0.86326638183E-01  0.92127874586E-01  0.51100000000E-03 0. -1.
</event>
<event>
 8    1  0.2929965E+004  0.1043930E+01  0.7957747E-01            NaN
         13   -1    0    0    0    0  0.00000000000E+00  0.00000000000E+00  0.74505805969E-08  0.10566000000E+00  0.10566000000E+00 0.  1.
     999900   -1    0    0    0    0 -0.00000000000E+00 -0.00000000000E+00 -0.74505805969E-08  0.93827000000E+00  0.93827000000E+00 0. -1.
     999902    2    1    2    0    0 -0.85284958954E-02  0.10280973319E-01 -0.52090126906E-02  0.10295923758E+01  0.10294925414E+01 0.  0.
     999903    2    3    3    0    0 -0.34901895981E-01 -0.27043431937E-01  0.12383976523E+00  0.13900703202E+00  0.45135107672E-01 0.  0.
         14    1    1    2    0    0  0.85284958954E-02 -0.10280973319E-01  0.52090126906E-02  0.14337624205E-01  0.00000000000E+00 0.  1.
     999901    1    3    3    0    0  0.26373400086E-01  0.37324405256E-01 -0.12904877792E+00  0.89058534377E+00  0.88000000000E+00 0. -1.
        -11    1    4    4    0    0  0.95802797261E-02  0.44452428803E-03  0.30993558925E-01  0.32447514193E-01  0.51100000000E-03 0. -1.
         11    1    4    4    0    0 -0.44482175707E-01 -0.27487956225E-01  0.92846206308E-01  0.10655951783E+00  0.51100000000E-03 0.  1.
</event>
<event>
 8    1  0.2929965E+004  0.1043930E+01  0.7957747E-01            NaN
         13   -1    0    0    0    0  0.00000000000E+00  0.00000000000E+00  0.74505805969E-08  0.10566000000E+00  0.10566000000E+00 0. -1.
     999900   -1    0    0    0    0 -0.00000000000E+00 -0.00000000000E+00 -0.74505805969E-08  0.93827000000E+00  0.93827000000E+00 0.  1.
     999902    2    1    2    0    0  0.85116946956E-02 -0.66063227909E-02  0.78725164492E-02  0.10305857517E+01  0.10304993560E+01 0.  0.
     999903    2    3    3    0    0 -0.50700811308E-01  0.98076614301E-01 -0.70914918576E-01  0.13891759700E+00  0.45602396215E-01 0.  0.
         14    1    1    2    0    0 -0.85116946956E-02  0.66063227909E-02 -0.78725164492E-02  0.13344248298E-01  0.00000000000E+00 0.  1.
     999901    1    3    3    0    0  0.59212506004E-01 -0.10468293709E+00  0.78787435025E-01  0.89166815470E+00  0.88000000000E+00 0. -1.
        -11    1    4    4    0    0  0.91462720495E-04  0.19474698230E-01  0.29366322261E-02  0.19701704657E-01  0.51100000000E-03 0. -1.
         11    1    4    4    0    0 -0.50792274029E-01  0.78601916071E-01 -0.73851550802E-01  0.11921589235E+00  0.51100000000E-03 0.  1.
</event>
<event>
 8    1  0.2929965E+004  0.1043930E+01  0.7957747E-01            NaN
         13   -1    0    0    0    0  0.00000000000E+00  0.00000000000E+00  0.74505805969E-08  0.10566000000E+00  0.10566000000E+00 0. -1.
     999900   -1    0    0    0    0 -0.00000000000E+00 -0.00000000000E+00 -0.74505805969E-08  0.93827000000E+00  0.93827000000E+00 0.  1.
     999902    2    1    2    0    0  0.62333862000E-02  0.15478474425E-02  0.12619829510E-01  0.10297698082E+01  0.10296724464E+01 0.  0.
     999903    2    3    3    0    0  0.97901742444E-01  0.75523880228E-01  0.49811597384E-01  0.14114234487E+00  0.46382740587E-01 0.  0.
         14    1    1    2    0    0 -0.62333862000E-02 -0.15478474425E-02 -0.12619829510E-01  0.14160191810E-01  0.00000000000E+00 0. -1.
     999901    1    3    3    0    0 -0.91668356244E-01 -0.73976032785E-01 -0.37191767873E-01  0.88862746332E+00  0.88000000000E+00 0. -1.
        -11    1    4    4    0    0  0.59939915405E-01  0.22275130174E-01  0.10399521704E-01  0.64787236828E-01  0.51100000000E-03 0.  1.
         11    1    4    4    0    0  0.37961827038E-01  0.53248750053E-01  0.39412075679E-01  0.76355108046E-01  0.51100000000E-03 0. -1.
</event>
<event>
 7    1  0.2929965E+004  0.1043930E+01  0.7957747E-01            NaN
         13   -1    0    0    0    0  0.00000000000E+00  0.00000000000E+00  0.74505805969E-08  0.10566000000E+00  0.10566000000E+00 0.  1.
     999900   -1    0    0    0    0 -0.00000000000E+00 -0.00000000000E+00 -0.74505805969E-08  0.93827000000E+00  0.93827000000E+00 0.  1.
     999903    2    1    2    0    0 -0.18622144448E-01 -0.54105707528E-01 -0.50654960571E-01  0.88820144659E-01  0.45264569100E-01 0.  0.
         14    1    1    2    0    0 -0.16225183503E-01 -0.60338571834E-01 -0.16060164762E-01  0.64513012043E-01  0.00000000000E+00 0. -1.
     999901    1    1    2    0    0  0.34847327951E-01  0.11444427936E+00  0.66715125333E-01  0.89059684330E+00  0.88000000000E+00 0.  1.
        -11    1    3    3    0    0  0.74481749482E-03 -0.32268586166E-01 -0.23338604282E-02  0.32365482103E-01  0.51100000000E-03 0.  1.
         11    1    3    3    0    0 -0.19366961943E-01 -0.21837121362E-01 -0.48321100143E-01  0.56454662556E-01  0.51100000000E-03 0. -1.
</event>
<event>
 8    1  0.2929965E+004  0.1043930E+01  0.7957747E-01            NaN
         13   -1    0    0    0    0  0.00000000000E+00  0.00000000000E+00  0.74505805969E-08  0.10566000000E+00  0.10566000000E+00 0. -1.
     999900   -1    0    0    0    0 -0.00000000000E+00 -0.00000000000E+00 -0.74505805969E-08  0.93827000000E+00  0.93827000000E+00 0. -1.
     999902    2    1    2    0    0  0.50458437712E-02  0.84252817327E-02 -0.10307292302E-01  0.10296932101E+01  0.10295947847E+01 0.  0.
     999903    2    3    3    0    0  0.11076455859E+00 -0.63787312275E-01  0.34695110058E-01  0.13929087318E+00  0.43134534217E-01 0.  0.
         14    1    1    2    0    0 -0.50458437712E-02 -0.84252817327E-02  0.10307292302E-01  0.14236789885E-01  0.00000000000E+00 0. -1.
     999901    1    3    3    0    0 -0.10571871482E+00  0.72212594008E-01 -0.45002402359E-01  0.89040233693E+00  0.88000000000E+00 0.  1.
        -11    1    4    4    0    0  0.82983351275E-01 -0.45831935049E-01  0.44585889867E-01  0.10476146980E+00  0.51100000000E-03 0.  1.
         11    1    4    4    0    0  0.27781207319E-01 -0.17955377226E-01 -0.98907798097E-02  0.34529403378E-01  0.51100000000E-03 0. -1.
</event>
<event>
 8    1  0.2929965E+004  0.1043930E+01  0.7957747E-01            NaN
         13   -1    0    0    0    0  0.00000000000E+00  0.00000000000E+00  0.74505805969E-08  0.10566000000E+00  0.10566000000E+00 0.  1.
     999900   -1    0    0    0    0 -0.00000000000E+00 -0.00000000000E+00 -0.74505805969E-08  0.93827000000E+00  0.93827000000E+00 0. -1.
     999902    2    1    2    0    0  0.35599306056E-03  0.12151902176E-01  0.72067491873E-02  0.10297973183E+01  0.10297003371E+01 0.  0.
     999903    2    3    3    0    0 -0.95555346054E-01 -0.34980370437E-02  0.91848526911E-01  0.14041093654E+00  0.46217083214E-01 0.  0.
         14    1    1    2    0    0 -0.35599306056E-03 -0.12151902176E-01 -0.72067491873E-02  0.14132681678E-01  0.00000000000E+00 0. -1.
     999901    1    3    3    0    0  0.95911339115E-01  0.15649939220E-01 -0.84641777724E-01  0.88938638179E+00  0.88000000000E+00 0. -1.
        -11    1    4    4    0    0 -0.75574879276E-01  0.16039411725E-01  0.75531901239E-01  0.10804700057E+00  0.51100000000E-03 0.  1.
         11    1    4    4    0    0 -0.19980466778E-01 -0.19537448769E-01  0.16316625672E-01  0.32363935969E-01  0.51100000000E-03 0. -1.
</event>
<event>
 8    1  0.2929965E+004  0.1043930E+01  0.7957747E-01            NaN
         13   -1    0    0    0    0  0.00000000000E+00  0.00000000000E+00  0.74505805969E-08  0.10566000000E+00  0.10566000000E+00 0. -1.
     999900   -1    0    0    0    0 -0.00000000000E+00 -0.00000000000E+00 -0.74505805969E-08  0.93827000000E+00  0.93827000000E+00 0.  1.
     999902    2    1    2    0    0 -0.15629315295E-02  0.14347703147E-01 -0.48605961059E-02  0.10287009247E+01  0.10285881915E+01 0.  0.
     999903    2    3    3    0    0 -0.64245928661E-01  0.71174608578E-01  0.91172157708E-01  0.13944238797E+00  0.44027865786E-01 0.  0.
         14    1    1    2    0    0  0.15629315295E-02 -0.14347703147E-01  0.48605961059E-02  0.15229075319E-01  0.00000000000E+00 0. -1.
     999901    1    3    3    0    0  0.62682997131E-01 -0.56826905431E-01 -0.96032753814E-01  0.88925853671E+00  0.88000000000E+00 0.  1.
        -11    1    4    4    0    0 -0.16275871304E-02  0.30579674421E-01  0.31003723916E-01  0.43580472063E-01  0.51100000000E-03 0. -1.
         11    1    4    4    0    0 -0.62618341530E-01  0.40594934157E-01  0.60168433793E-01  0.95861915907E-01  0.51100000000E-03 0.  1.
</event>
<event>
 8    1  0.2929965E+004  0.1043930E+01  0.7957747E-01            NaN
         13   -1    0    0    0    0  0.00000000000E+00  0.00000000000E+00  0.74505805969E-08  0.10566000000E+00  0.10566000000E+00 0.  1.
     999900   -1    0    0    0    0 -0.00000000000E+00 -0.00000000000E+00 -0.74505805969E-08  0.93827000000E+00  0.93827000000E+00 0. -1.
     999902    2    1    2    0    0  0.11228447829E-01 -0.56210051108E-02  0.53220685527E-02  0.10302918860E+01  0.10302016173E+01 0.  0.
     999903    2    3    3    0    0  0.52992122977E-01 -0.12984549019E-01  0.12315377169E+00  0.14142590254E+00  0.43100705523E-01 0.  0.
         14    1    1    2    0    0 -0.11228447829E-01  0.56210051108E-02 -0.53220685527E-02  0.13638113975E-01  0.00000000000E+00 0. -1.
     999901    1    3    3    0    0 -0.41763675148E-01  0.73635439077E-02 -0.11783170313E+00  0.88886598349E+00  0.88000000000E+00 0. -1.
        -11    1    4    4    0    0  0.46405372736E-01 -0.26539461790E-01  0.85169429082E-01  0.10055791576E+00  0.51100000000E-03 0. -1.
         11    1    4    4    0    0  0.65867502405E-02  0.13554912771E-01  0.37984342605E-01  0.40867986776E-01  0.51100000000E-03 0.  1.
</event>
<event>
 8    1  0.2929965E+004  0.1043930E+01  0.7957747E-01            NaN
         13   -1    0    0    0    0  0.00000000000E+00  0.00000000000E+00  0.74505805969E-08  0.10566000000E+00  0.10566000000E+00 0.  1.
     999900   -1    0    0    0    0 -0.00000000000E+00 -0.00000000000E+00 -0.74505805969E-08  0.93827000000E+00  0.93827000000E+00 0.  1.
     999902    2    1    2    0    0 -0.38232241032E-02 -0.52642939093E-02 -0.12540934759E-01  0.10298018410E+01  0.10297049222E+01 0.  0.
     999903    2    3    3    0    0  0.44772503247E-01  0.64379141970E-01 -0.10795904824E+00  0.14057950136E+00  0.44251430936E-01 0.  0.
         14    1    1    2    0    0  0.38232241032E-02  0.52642939093E-02  0.12540934759E-01  0.14128159029E-01  0.00000000000E+00 0.  1.
     999901    1    3    3    0    0 -0.48595727350E-01 -0.69643435879E-01  0.95418113476E-01  0.88922233961E+00  0.88000000000E+00 0. -1.
        -11    1    4    4    0    0  0.10535182796E-01 -0.92408720739E-03 -0.36096849821E-01  0.37617651464E-01  0.51100000000E-03 0.  1.
         11    1    4    4    0    0  0.34237320451E-01  0.65303229178E-01 -0.71862198415E-01  0.10296184990E+00  0.51100000000E-03 0. -1.
</event>
<event>
 8    1  0.2929965E+004  0.1043930E+01  0.7957747E-01            NaN
         13   -1    0    0    0    0  0.00000000000E+00  0.00000000000E+00  0.74505805969E-08  0.10566000000E+00  0.10566000000E+00 0.  1.
     999900   -1    0    0    0    0 -0.00000000000E+00 -0.00000000000E+00 -0.74505805969E-08  0.93827000000E+00  0.93827000000E+00 0.  1.
     999902    2    1    2    0    0 -0.39744339153E-02  0.12897473593E-01  0.25299158426E-02  0.10301989613E+01  0.10301074499E+01 0.  0.
     999903    2    3    3    0    0  0.18464661421E-01 -0.11652254817E+00 -0.57116022725E-01  0.13845309333E+00  0.44593396895E-01 0.  0.
         14    1    1    2    0    0  0.39744339153E-02 -0.12897473593E-01 -0.25299158426E-02  0.13731038715E-01  0.00000000000E+00 0. -1.
     999901    1    3    3    0    0 -0.22439095337E-01  0.12942002176E+00  0.59645938568E-01  0.89174586796E+00  0.88000000000E+00 0. -1.
        -11    1    4    4    0    0  0.27061092725E-01 -0.51611077806E-01 -0.40280000943E-01  0.70843106148E-01  0.51100000000E-03 0.  1.
         11    1    4    4    0    0 -0.85964313036E-02 -0.64911470363E-01 -0.16836021782E-01  0.67609987179E-01  0.51100000000E-03 0. -1.
</event>
<event>
 8    1  0.2929965E+004  0.1043930E+01  0.7957747E-01            NaN
         13   -1    0    0    0    0  0.00000000000E+00  0.00000000000E+00  0.74505805969E-08  0.10566000000E+00  0.10566000000E+00 0.  1.
     999900   -1    0    0    0    0 -0.00000000000E+00 -0.00000000000E+00 -0.74505805969E-08  0.93827000000E+00  0.93827000000E+00 0. -1.
     999902    2    1    2    0    0  0.14601496587E-01 -0.85506677362E-02 -0.41471811882E-02  0.10265082684E+01  0.10263604183E+01 0.  0.
     999903    2    3    3    0    0 -0.80242563343E-01 -0.55165033808E-01 -0.85130006317E-01  0.13649337366E+00  0.43603591035E-01 0.  0.
         14    1    1    2    0    0 -0.14601496587E-01  0.85506677362E-02  0.41471811882E-02  0.17421731634E-01  0.00000000000E+00 0.  1.
     999901    1    3    3    0    0  0.94844059931E-01  0.46614366072E-01  0.80982825129E-01  0.89001489470E+00  0.88000000000E+00 0.  1.
        -11    1    4    4    0    0 -0.20555578941E-01 -0.27865181153E-01 -0.53261279668E-01  0.63529718866E-01  0.51100000000E-03 0. -1.
         11    1    4    4    0    0 -0.59686984402E-01 -0.27299852656E-01 -0.31868726649E-01  0.72963654796E-01  0.51100000000E-03 0.  1.
</event>
<event>
 8    1  0.2929965E+004  0.1043930E+01  0.7957747E-01            NaN
         13   -1    0    0    0    0  0.00000000000E+00  0.00000000000E+00  0.74505805969E-08  0.10566000000E+00  0.10566000000E+00 0.  1.
     999900   -1    0    0    0    0 -0.00000000000E+00 -0.00000000000E+00 -0.74505805969E-08  0.93827000000E+00  0.93827000000E+00 0.  1.
     999902    2    1    2    0    0 -0.32963912847E-02  0.13333289959E-01  0.29308987590E-02  0.10298860339E+01  0.10297902747E+01 0.  0.
     999903    2    3    3    0    0 -0.10533182440E+00 -0.73959270894E-01  0.28019566941E-01  0.13934649964E+00  0.45470692169E-01 0.  0.
         14    1    1    2    0    0  0.32963912847E-02 -0.13333289959E-01 -0.29308987590E-02  0.14043966112E-01  0.00000000000E+00 0. -1.
     999901    1    3    3    0    0  0.10203543312E+00  0.87292560853E-01 -0.25088668182E-01  0.89053953425E+00  0.88000000000E+00 0.  1.
        -11    1    4    4    0    0 -0.80331960343E-01 -0.44002691876E-01  0.37847406687E-01  0.99106750824E-01  0.51100000000E-03 0.  1.
         11    1    4    4    0    0 -0.24999864060E-01 -0.29956579018E-01 -0.98278397464E-02  0.40239748813E-01  0.51100000000E-03 0. -1.
</event>
<event>
 8    1  0.2929965E+004  0.1043930E+01  0.7957747E-01            NaN
         13   -1    0    0    0    0  0.00000000000E+00  0.00000000000E+00  0.74505805969E-08  0.10566000000E+00  0.10566000000E+00 0. -1.
     999900   -1    0    0    0    0 -0.00000000000E+00 -0.00000000000E+00 -0.74505805969E-08  0.93827000000E+00  0.93827000000E+00 0.  1.
     999902    2    1    2    0    0 -0.15061122777E-01  0.54659845180E-02  0.23959851853E-02  0.10277295324E+01  0.10276018376E+01 0.  0.
     999903    2    3    3    0    0  0.98716746884E-01 -0.72073126105E-01  0.41225707809E-01  0.13617725424E+00  0.43648069439E-01 0.  0.
         14    1    1    2    0    0  0.15061122777E-01 -0.54659845180E-02 -0.23959851853E-02  0.16200467619E-01  0.00000000000E+00 0.  1.
     999901    1    3    3    0    0 -0.11377786966E+00  0.77539110623E-01 -0.38829722624E-01  0.89155227814E+00  0.88000000000E+00 0.  1.
        -11    1    4    4    0    0  0.57192997440E-01 -0.39090367014E-01  0.45643587675E-01  0.82962003148E-01  0.51100000000E-03 0.  1.
         11    1    4    4    0    0  0.41523749445E-01 -0.32982759091E-01 -0.44178798658E-02  0.53215251091E-01  0.51100000000E-03 0. -1.
</event>
<event>
 8    1  0.2929965E+004  0.1043930E+01  0.7957747E-01            NaN
         13   -1    0    0    0    0  0.00000000000E+00  0.00000000000E+00  0.74505805969E-08  0.10566000000E+00  0.10566000000E+00 0.  1.
     999900   -1    0    0    0    0 -0.00000000000E+00 -0.00000000000E+00 -0.74505805969E-08  0.93827000000E+00  0.93827000000E+00 0. -1.
     999902    2    1    2    0    0 -0.10398721171E-01  0.83649558491E-02  0.33487756900E-02  0.10301706328E+01  0.10300787409E+01 0.  0.
     999903    2    3    3    0    0 -0.27095304996E-01 -0.10220973961E+00  0.79676665888E-01  0.13981593601E+00  0.44934824494E-01 0.  0.
         14    1    1    2    0    0  0.10398721171E-01 -0.83649558491E-02 -0.33487756900E-02  0.13759367245E-01  0.00000000000E+00 0. -1.
     999901    1    3    3    0    0  0.16696583825E-01  0.11057469546E+00 -0.76327890198E-01  0.89035469674E+00  0.88000000000E+00 0.  1.
        -11    1    4    4    0    0 -0.32053590436E-01 -0.95124853150E-01  0.56761944870E-01  0.11531847143E+00  0.51100000000E-03 0.  1.
         11    1    4    4    0    0  0.49582854396E-02 -0.70848864607E-02  0.22914721019E-01  0.24497464584E-01  0.51100000000E-03 0. -1.
</event>
<event>
 8    1  0.2929965E+004  0.1043930E+01  0.7957747E-01            NaN
         13   -1    0    0    0    0  0.00000000000E+00  0.00000000000E+00  0.74505805969E-08  0.10566000000E+00  0.10566000000E+00 0.  1.
     999900   -1    0    0    0    0 -0.00000000000E+00 -0.00000000000E+00 -0.74505805969E-08  0.93827000000E+00  0.93827000000E+00 0.  1.
     999902    2    1    2    0    0  0.30261666620E-03  0.14149393697E-01 -0.14238457798E-02  0.10297059269E+01  0.10296076785E+01 0.  0.
     999903    2    3    3    0    0 -0.67022923108E-01  0.24669921998E-01  0.11237251277E+00  0.13976602947E+00  0.42500401084E-01 0.  0.
         14    1    1    2    0    0 -0.30261666620E-03 -0.14149393697E-01  0.14238457798E-02  0.14224073103E-01  0.00000000000E+00 0.  1.
     999901    1    3    3    0    0  0.67325539775E-01 -0.10520528301E-01 -0.11379635855E+00  0.88993989743E+00  0.88000000000E+00 0.  1.
        -11    1    4    4    0    0 -0.23590100568E-01 -0.10913785214E-01  0.26165494146E-01  0.36884925883E-01  0.51100000000E-03 0.  1.
         11    1    4    4    0    0 -0.43432822541E-01  0.35583707212E-01  0.86207018626E-01  0.10288110358E+00  0.51100000000E-03 0. -1.
</event>
<event>
 8    1  0.2929965E+004  0.1043930E+01  0.7957747E-01            NaN
         13   -1    0    0    0    0  0.00000000000E+00  0.00000000000E+00  0.74505805969E-08  0.10566000000E+00  0.10566000000E+00 0.  1.
     999900   -1    0    0    0    0 -0.00000000000E+00 -0.00000000000E+00 -0.74505805969E-08  0.93827000000E+00  0.93827000000E+00 0.  1.
     999902    2    1    2    0    0  0.51315897578E-03 -0.12398405379E-01  0.67808964844E-02  0.10297891250E+01  0.10296920305E+01 0.  0.
     999903    2    3    3    0    0 -0.92689991502E-01 -0.88319887152E-01 -0.37058847533E-01  0.14053504333E+00  0.44552252816E-01 0.  0.
         14    1    1    2    0    0 -0.51315897578E-03  0.12398405379E-01 -0.67808964844E-02  0.14140874980E-01  0.00000000000E+00 0. -1.
     999901    1    3    3    0    0  0.93203150478E-01  0.75921481773E-01  0.43839744018E-01  0.88925408169E+00  0.88000000000E+00 0.  1.
        -11    1    4    4    0    0 -0.83271362947E-01 -0.58484099390E-01 -0.16482484100E-01  0.10308464081E+00  0.51100000000E-03 0.  1.
         11    1    4    4    0    0 -0.94186285551E-02 -0.29835787762E-01 -0.20576363433E-01  0.37450402513E-01  0.51100000000E-03 0. -1.
</event>
<event>
 8    1  0.2929965E+004  0.1043930E+01  0.7957747E-01            NaN
         13   -1    0    0    0    0  0.00000000000E+00  0.00000000000E+00  0.74505805969E-08  0.10566000000E+00  0.10566000000E+00 0.  1.
     999900   -1    0    0    0    0 -0.00000000000E+00 -0.00000000000E+00 -0.74505805969E-08  0.93827000000E+00  0.93827000000E+00 0. -1.
     999902    2    1    2    0    0  0.97872094093E-02  0.78995702450E-02  0.38355117148E-02  0.10307807100E+01  0.10306968362E+01 0.  0.
     999903    2    3    3    0    0 -0.11896550630E+00  0.28796290776E-01  0.50712876275E-01  0.13993200114E+00  0.45023894446E-01 0.  0.
         14    1    1    2    0    0 -0.97872094093E-02 -0.78995702450E-02 -0.38355117148E-02  0.13149290026E-01  0.00000000000E+00 0. -1.
     999901    1    3    3    0    0  0.12875271571E+00 -0.20896720531E-01 -0.46877364560E-01  0.89084870884E+00  0.88000000000E+00 0. -1.
        -11    1    4    4    0    0 -0.74229488451E-01  0.36583664145E-01  0.44893049723E-01  0.94148969577E-01  0.51100000000E-03 0.  1.
         11    1    4    4    0    0 -0.44736017845E-01 -0.77873733689E-02  0.58198265517E-02  0.45783031559E-01  0.51100000000E-03 0. -1.
</event>
<event>
 8    1  0.2929965E+004  0.1043930E+01  0.7957747E-01            NaN
         13   -1    0    0    0    0  0.00000000000E+00  0.00000000000E+00  0.74505805969E-08  0.10566000000E+00  0.10566000000E+00 0. -1.
     999900   -1    0    0    0    0 -0.00000000000E+00 -0.00000000000E+00 -0.74505805969E-08  0.93827000000E+00  0.93827000000E+00 0. -1.
     999902    2    1    2    0    0 -0.10066252505E-02  0.16453943632E-01 -0.31692103749E-02  0.10271434146E+01  0.10270062340E+01 0.  0.
     999903    2    3    3    0    0  0.78364368196E-01 -0.32995069104E-01  0.96822385828E-01  0.13655749578E+00  0.45207593047E-01 0.  0.
         14    1    1    2    0    0  0.10066252505E-02 -0.16453943632E-01  0.31692103749E-02  0.16786585413E-01  0.00000000000E+00 0. -1.
     999901    1    3    3    0    0 -0.79370993447E-01  0.49449012736E-01 -0.99991596203E-01  0.89058591880E+00  0.88000000000E+00 0. -1.
        -11    1    4    4    0    0  0.35662535291E-01 -0.27927688633E-01  0.22238486213E-01  0.50463686010E-01  0.51100000000E-03 0.  1.
         11    1    4    4    0    0  0.42701832905E-01 -0.50673804718E-02  0.74583899615E-01  0.86093809772E-01  0.51100000000E-03 0. -1.
</event>
<event>
 8    1  0.2929965E+004  0.1043930E+01  0.7957747E-01            NaN
         13   -1    0    0    0    0  0.00000000000E+00  0.00000000000E+00  0.74505805969E-08  0.10566000000E+00  0.10566000000E+00 0.  1.
     999900   -1    0    0    0    0 -0.00000000000E+00 -0.00000000000E+00 -0.74505805969E-08  0.93827000000E+00  0.93827000000E+00 0.  1.
     999902    2    1    2    0    0 -0.55325442006E-02 -0.12301769125E-01  0.96263164789E-03  0.10304070851E+01  0.10303183448E+01 0.  0.
     999903    2    3    3    0    0 -0.12998668757E-01 -0.11440946534E-01 -0.12918501647E+00  0.14080330002E+00  0.53262934304E-01 0.  0.
         14    1    1    2    0    0  0.55325442006E-02  0.12301769125E-01 -0.96263164789E-03  0.13522914946E-01  0.00000000000E+00 0. -1.
     999901    1    3    3    0    0  0.74661245561E-02 -0.86082259166E-03  0.13014764812E+00  0.88960378503E+00  0.88000000000E+00 0. -1.
        -11    1    4    4    0    0 -0.30222505348E-02 -0.30874961925E-01 -0.51693752453E-01  0.60290152064E-01  0.51100000000E-03 0. -1.
         11    1    4    4    0    0 -0.99764182219E-02  0.19434015392E-01 -0.77491264014E-01  0.80513147959E-01  0.51100000000E-03 0.  1.
</event>
<event>
 8    1  0.2929965E+004  0.1043930E+01  0.7957747E-01            NaN
         13   -1    0    0    0    0  0.00000000000E+00  0.00000000000E+00  0.74505805969E-08  0.10566000000E+00  0.10566000000E+00 0.  1.
     999900   -1    0    0    0    0 -0.00000000000E+00 -0.00000000000E+00 -0.74505805969E-08  0.93827000000E+00  0.93827000000E+00 0.  1.
     999902    2    1    2    0    0 -0.76663720351E-02 -0.11188899866E-01  0.46542498462E-03  0.10303586566E+01  0.10302692754E+01 0.  0.
     999903    2    3    3    0    0 -0.12477734301E+00  0.44813301041E-01 -0.14365748259E-01  0.14071199097E+00  0.44898467678E-01 0.  0.
         14    1    1    2    0    0  0.76663720351E-02  0.11188899866E-01 -0.46542498462E-03  0.13571343368E-01  0.00000000000E+00 0. -1.
     999901    1    3    3    0    0  0.11711097098E+00 -0.56002200907E-01  0.14831173244E-01  0.88964666567E+00  0.88000000000E+00 0. -1.
        -11    1    4    4    0    0 -0.42904807644E-01  0.38561216301E-01 -0.24682261591E-02  0.57742039996E-01  0.51100000000E-03 0.  1.
         11    1    4    4    0    0 -0.81872535367E-01  0.62520847401E-02 -0.11897522100E-01  0.82969950971E-01  0.51100000000E-03 0. -1.
</event>
<event>
 8    1  0.2929965E+004  0.1043930E+01  0.7957747E-01            NaN
         13   -1    0    0    0    0  0.00000000000E+00  0.00000000000E+00  0.74505805969E-08  0.10566000000E+00  0.10566000000E+00 0.  1.
     999900   -1    0    0    0    0 -0.00000000000E+00 -0.00000000000E+00 -0.74505805969E-08  0.93827000000E+00  0.93827000000E+00 0. -1.
     999902    2    1    2    0    0 -0.14226533282E-01 -0.12325776073E-02 -0.48136261690E-03  0.10296420608E+01  0.10295429220E+01 0.  0.
     999903    2    3    3    0    0 -0.12757406693E+00 -0.33923764216E-01  0.23549848813E-01  0.14144508028E+00  0.45012787369E-01 0.  0.
         14    1    1    2    0    0  0.14226533282E-01  0.12325776073E-02  0.48136261690E-03  0.14287939206E-01  0.00000000000E+00 0.  1.
     999901    1    3    3    0    0  0.11334753364E+00  0.32691186609E-01 -0.24031211430E-01  0.88819698051E+00  0.88000000000E+00 0. -1.
        -11    1    4    4    0    0 -0.10847348781E+00 -0.30354322757E-01  0.23267666003E-02  0.11266568879E+00  0.51100000000E-03 0.  1.
         11    1    4    4    0    0 -0.19100579116E-01 -0.35694414594E-02  0.21223082213E-01  0.28779391489E-01  0.51100000000E-03 0. -1.
</event>
<event>
 8    1  0.2929965E+004  0.1043930E+01  0.7957747E-01            NaN
         13   -1    0    0    0    0  0.00000000000E+00  0.00000000000E+00  0.74505805969E-08  0.10566000000E+00  0.10566000000E+00 0. -1.
     999900   -1    0    0    0    0 -0.00000000000E+00 -0.00000000000E+00 -0.74505805969E-08  0.93827000000E+00  0.93827000000E+00 0.  1.
     999902    2    1    2    0    0  0.72073153497E-02  0.13006484190E-02 -0.13498977707E-01  0.10285722827E+01  0.10284576225E+01 0.  0.
     999903    2    3    3    0    0  0.22589692616E-01  0.26322237833E-01  0.12486840890E+00  0.13727646699E+00  0.45272004924E-01 0.  0.
         14    1    1    2    0    0 -0.72073153497E-02 -0.13006484190E-02  0.13498977707E-01  0.15357717278E-01  0.00000000000E+00 0. -1.
     999901    1    3    3    0    0 -0.15382377266E-01 -0.25021589414E-01 -0.13836738661E+00  0.89129581573E+00  0.88000000000E+00 0.  1.
        -11    1    4    4    0    0  0.22937940482E-01  0.37501237334E-01  0.82845938462E-01  0.93788072567E-01  0.51100000000E-03 0. -1.
         11    1    4    4    0    0 -0.34824786569E-03 -0.11178999501E-01  0.42022470440E-01  0.43488394421E-01  0.51100000000E-03 0.  1.
</event>
<event>
 8    1  0.2929965E+004  0.1043930E+01  0.7957747E-01            NaN
         13   -1    0    0    0    0  0.00000000000E+00  0.00000000000E+00  0.74505805969E-08  0.10566000000E+00  0.10566000000E+00 0.  1.
     999900   -1    0    0    0    0 -0.00000000000E+00 -0.00000000000E+00 -0.74505805969E-08  0.93827000000E+00  0.93827000000E+00 0.  1.
     999902    2    1    2    0    0  0.36443865979E-02  0.14069658673E-01  0.80323368348E-05  0.10293960083E+01  0.10292934009E+01 0.  0.
     999903    2    3    3    0    0 -0.65037313880E-01  0.22913541720E-01  0.11239860855E+00  0.13954937444E+00  0.45669443962E-01 0.  0.
         14    1    1    2    0    0 -0.36443865979E-02 -0.14069658673E-01 -0.80323368349E-05  0.14533991653E-01  0.00000000000E+00 0.  1.
     999901    1    3    3    0    0  0.68681700478E-01 -0.88438830464E-02 -0.11239057622E+00  0.88984663390E+00  0.88000000000E+00 0.  1.
        -11    1    4    4    0    0 -0.46175014082E-01  0.16039202977E-01  0.10862186762E+00  0.11911489916E+00  0.51100000000E-03 0. -1.
         11    1    4    4    0    0 -0.18862299798E-01  0.68743387431E-02  0.37767409383E-02  0.20434475279E-01  0.51100000000E-03 0.  1.
</event>
<event>
 8    1  0.2929965E+004  0.1043930E+01  0.7957747E-01            NaN
         13   -1    0    0    0    0  0.00000000000E+00  0.00000000000E+00  0.74505805969E-08  0.10566000000E+00  0.10566000000E+00 0.  1.
     999900   -1    0    0    0    0 -0.00000000000E+00 -0.00000000000E+00 -0.74505805969E-08  0.93827000000E+00  0.93827000000E+00 0. -1.
     999902    2    1    2    0    0  0.12447337198E-01  0.33643199936E-02  0.15316350423E-02  0.10309453645E+01  0.10308635913E+01 0.  0.
     999903    2    3    3    0    0 -0.36601687735E-02  0.66926267762E-01 -0.11536950717E+00  0.14079624781E+00  0.44954844684E-01 0.  0.
         14    1    1    2    0    0 -0.12447337198E-01 -0.33643199936E-02 -0.15316350423E-02  0.12984635468E-01  0.00000000000E+00 0. -1.
     999901    1    3    3    0    0  0.16107505972E-01 -0.63561947769E-01  0.11690114221E+00  0.89014911672E+00  0.88000000000E+00 0.  1.
        -11    1    4    4    0    0  0.27302686451E-02  0.44165857031E-01 -0.33284406393E-01  0.55373189578E-01  0.51100000000E-03 0. -1.
         11    1    4    4    0    0 -0.63904374186E-02  0.22760410731E-01 -0.82085100775E-01  0.85423058230E-01  0.51100000000E-03 0.  1.
</event>
<event>
 8    1  0.2929965E+004  0.1043930E+01  0.7957747E-01            NaN
         13   -1    0    0    0    0  0.00000000000E+00  0.00000000000E+00  0.74505805969E-08  0.10566000000E+00  0.10566000000E+00 0. -1.
     999900   -1    0    0    0    0 -0.00000000000E+00 -0.00000000000E+00 -0.74505805969E-08  0.93827000000E+00  0.93827000000E+00 0. -1.
     999902    2    1    2    0    0  0.79044649982E-02 -0.11723333538E-01  0.22677964531E-02  0.10296100832E+01  0.10295104970E+01 0.  0.
     999903    2    3    3    0    0 -0.11134057439E+00  0.65883011975E-01  0.14332530172E-01  0.13810142813E+00  0.46144211527E-01 0.  0.
         14    1    1    2    0    0 -0.79044649982E-02  0.11723333538E-01 -0.22677964531E-02  0.14319916791E-01  0.00000000000E+00 0.  1.
     999901    1    3    3    0    0  0.11924503939E+00 -0.77606345513E-01 -0.12064733719E-01  0.89150865508E+00  0.88000000000E+00 0.  1.
        -11    1    4    4    0    0 -0.94168338298E-01  0.62711081857E-01 -0.34239111498E-02  0.11319160752E+00  0.51100000000E-03 0.  1.
         11    1    4    4    0    0 -0.17172236093E-01  0.31719301186E-02  0.17756441322E-01  0.24909820604E-01  0.51100000000E-03 0. -1.
</event>
<event>
 8    1  0.2929965E+004  0.1043930E+01  0.7957747E-01            NaN
         13   -1    0    0    0    0  0.00000000000E+00  0.00000000000E+00  0.74505805969E-08  0.10566000000E+00  0.10566000000E+00 0. -1.
     999900   -1    0    0    0    0 -0.00000000000E+00 -0.00000000000E+00 -0.74505805969E-08  0.93827000000E+00  0.93827000000E+00 0. -1.
     999902    2    1    2    0    0  0.11599291111E-01 -0.72701620229E-02  0.38536336861E-02  0.10297085619E+01  0.10296103501E+01 0.  0.
     999903    2    3    3    0    0  0.44203538927E-01 -0.18715454371E-01  0.12474664924E+00  0.14077147022E+00  0.44166268168E-01 0.  0.
         14    1    1    2    0    0 -0.11599291111E-01  0.72701620229E-02 -0.38536336861E-02  0.14221438137E-01  0.00000000000E+00 0.  1.
     999901    1    3    3    0    0 -0.32604247816E-01  0.11445292348E-01 -0.12089301556E+00  0.88893709165E+00  0.88000000000E+00 0. -1.
        -11    1    4    4    0    0  0.20378071940E-01  0.55792691715E-02  0.88761701339E-01  0.91243053467E-01  0.51100000000E-03 0. -1.
         11    1    4    4    0    0  0.23825466986E-01 -0.24294723542E-01  0.35984947904E-01  0.49528416750E-01  0.51100000000E-03 0.  1.
</event>
<event>
 8    1  0.2929965E+004  0.1043930E+01  0.7957747E-01            NaN
         13   -1    0    0    0    0  0.00000000000E+00  0.00000000000E+00  0.74505805969E-08  0.10566000000E+00  0.10566000000E+00 0. -1.
     999900   -1    0    0    0    0 -0.00000000000E+00 -0.00000000000E+00 -0.74505805969E-08  0.93827000000E+00  0.93827000000E+00 0.  1.
     999902    2    1    2    0    0  0.10051036815E-02 -0.13324058035E-01 -0.13937450721E-02  0.10304955934E+01  0.10304080186E+01 0.  0.
     999903    2    3    3    0    0  0.49318635022E-01 -0.81596999670E-01 -0.94492357189E-01  0.14164085640E+00  0.45198766790E-01 0.  0.
         14    1    1    2    0    0 -0.10051036815E-02  0.13324058035E-01  0.13937450721E-02  0.13434406621E-01  0.00000000000E+00 0. -1.
     999901    1    3    3    0    0 -0.48313531340E-01  0.68272941636E-01  0.93098612117E-01  0.88885473698E+00  0.88000000000E+00 0. -1.
        -11    1    4    4    0    0  0.24085412308E-01 -0.10677140716E-01 -0.43019413342E-01  0.50448384169E-01  0.51100000000E-03 0.  1.
         11    1    4    4    0    0  0.25233222714E-01 -0.70919858954E-01 -0.51472943847E-01  0.91192472233E-01  0.51100000000E-03 0. -1.
</event>
<event>
 8    1  0.2929965E+004  0.1043930E+01  0.7957747E-01            NaN
         13   -1    0    0    0    0  0.00000000000E+00  0.00000000000E+00  0.74505805969E-08  0.10566000000E+00  0.10566000000E+00 0.  1.
     999900   -1    0    0    0    0 -0.00000000000E+00 -0.00000000000E+00 -0.74505805969E-08  0.93827000000E+00  0.93827000000E+00 0. -1.
     999902    2    1    2    0    0 -0.11472510793E-02  0.41715741193E-02 -0.52373742483E-02  0.10371367456E+01  0.10371144975E+01 0.  0.
     999903    2    3    3    0    0 -0.12355839140E+00 -0.63661153810E-01 -0.50461681151E-03  0.14606538754E+00  0.44893476228E-01 0.  0.
         14    1    1    2    0    0  0.11472510793E-02 -0.41715741193E-02  0.52373742483E-02  0.67932543518E-02  0.00000000000E+00 0.  1.
     999901    1    3    3    0    0  0.12241114032E+00  0.67832727929E-01 -0.47327574368E-02  0.89107135811E+00  0.88000000000E+00 0. -1.
        -11    1    4    4    0    0 -0.11551407017E+00 -0.51908205553E-01  0.11862019159E-01  0.12719642617E+00  0.51100000000E-03 0. -1.
         11    1    4    4    0    0 -0.80443212310E-02 -0.11752948257E-01 -0.12366635970E-01  0.18868961365E-01  0.51100000000E-03 0.  1.
</event>
<event>
 8    1  0.2929965E+004  0.1043930E+01  0.7957747E-01            NaN
         13   -1    0    0    0    0  0.00000000000E+00  0.00000000000E+00  0.74505805969E-08  0.10566000000E+00  0.10566000000E+00 0.  1.
     999900   -1    0    0    0    0 -0.00000000000E+00 -0.00000000000E+00 -0.74505805969E-08  0.93827000000E+00  0.93827000000E+00 0.  1.
     999902    2    1    2    0    0  0.42023039079E-02 -0.13239294366E-01 -0.19466719056E-02  0.10299040311E+01  0.10298085188E+01 0.  0.
     999903    2    3    3    0    0 -0.12107886753E-01  0.93703404535E-01  0.90776398041E-01  0.13844436799E+00  0.44716435944E-01 0.  0.
         14    1    1    2    0    0 -0.42023039079E-02  0.13239294366E-01  0.19466719056E-02  0.14025968948E-01  0.00000000000E+00 0.  1.
     999901    1    3    3    0    0  0.16310190661E-01 -0.10694269890E+00 -0.92723069947E-01  0.89145966306E+00  0.88000000000E+00 0.  1.
        -11    1    4    4    0    0 -0.42346395166E-02  0.79600246239E-01  0.92596330853E-01  0.12218213037E+00  0.51100000000E-03 0.  1.
         11    1    4    4    0    0 -0.78732472361E-02  0.14103158296E-01 -0.18199328118E-02  0.16262237620E-01  0.51100000000E-03 0. -1.
</event>
<event>
 8    1  0.2929965E+004  0.1043930E+01  0.7957747E-01            NaN
         13   -1    0    0    0    0  0.00000000000E+00  0.00000000000E+00  0.74505805969E-08  0.10566000000E+00  0.10566000000E+00 0. -1.
     999900   -1    0    0    0    0 -0.00000000000E+00 -0.00000000000E+00 -0.74505805969E-08  0.93827000000E+00  0.93827000000E+00 0. -1.
     999902    2    1    2    0    0 -0.13386197673E-01  0.20751022666E-02  0.31779177503E-02  0.10300161400E+01  0.10299221588E+01 0.  0.
     999903    2    3    3    0    0 -0.15097545075E-01 -0.12405560716E+00 -0.43165629729E-01  0.13981413546E+00  0.45464176567E-01 0.  0.
         14    1    1    2    0    0  0.13386197673E-01 -0.20751022666E-02 -0.31779177503E-02  0.13913859953E-01  0.00000000000E+00 0.  1.
     999901    1    3    3    0    0  0.17113474022E-02  0.12613070943E+00  0.46343547479E-01  0.89020200458E+00  0.88000000000E+00 0. -1.
        -11    1    4    4    0    0 -0.85192494122E-02 -0.10760110869E+00 -0.18615978989E-01  0.10953260700E+00  0.51100000000E-03 0. -1.
         11    1    4    4    0    0 -0.65782956629E-02 -0.16454498473E-01 -0.24549650740E-01  0.30281528467E-01  0.51100000000E-03 0.  1.
</event>
<event>
 8    1  0.2929965E+004  0.1043930E+01  0.7957747E-01            NaN
         13   -1    0    0    0    0  0.00000000000E+00  0.00000000000E+00  0.74505805969E-08  0.10566000000E+00  0.10566000000E+00 0. -1.
     999900   -1    0    0    0    0 -0.00000000000E+00 -0.00000000000E+00 -0.74505805969E-08  0.93827000000E+00  0.93827000000E+00 0. -1.
     999902    2    1    2    0    0 -0.30149667438E-02 -0.89236662916E-02  0.10872413933E-01  0.10295448956E+01  0.10294443942E+01 0.  0.
     999903    2    3    3    0    0 -0.81169114329E-01  0.10340674415E+00 -0.47715393321E-02  0.13883117885E+00  0.44384105005E-01 0.  0.
         14    1    1    2    0    0  0.30149667438E-02  0.89236662916E-02 -0.10872413933E-01  0.14385104424E-01  0.00000000000E+00 0. -1.
     999901    1    3    3    0    0  0.78154147585E-01 -0.11233041044E+00  0.15643953265E-01  0.89071371673E+00  0.88000000000E+00 0. -1.
        -11    1    4    4    0    0 -0.58862935747E-01  0.48183499925E-01  0.11866222913E-01  0.76990669805E-01  0.51100000000E-03 0. -1.
         11    1    4    4    0    0 -0.22306178581E-01  0.55223244220E-01 -0.16637762246E-01  0.61840509043E-01  0.51100000000E-03 0.  1.
</event>
<event>
 8    1  0.2929965E+004  0.1043930E+01  0.7957747E-01            NaN
         13   -1    0    0    0    0  0.00000000000E+00  0.00000000000E+00  0.74505805969E-08  0.10566000000E+00  0.10566000000E+00 0.  1.
     999900   -1    0    0    0    0 -0.00000000000E+00 -0.00000000000E+00 -0.74505805969E-08  0.93827000000E+00  0.93827000000E+00 0.  1.
     999902    2    1    2    0    0  0.80070113451E-02 -0.79041542549E-02 -0.17380368627E-01  0.10232257710E+01  0.10230162820E+01 0.  0.
     999903    2    3    3    0    0  0.50995597748E-01  0.39251575795E-01 -0.11083120576E+00  0.13598017906E+00  0.45451245691E-01 0.  0.
         14    1    1    2    0    0 -0.80070113451E-02  0.79041542549E-02  0.17380368627E-01  0.20704229007E-01  0.00000000000E+00 0.  1.
     999901    1    3    3    0    0 -0.42988586403E-01 -0.47155730050E-01  0.93450837137E-01  0.88724559193E+00  0.88000000000E+00 0. -1.
        -11    1    4    4    0    0  0.29724880019E-01  0.46971941160E-01 -0.85787961733E-01  0.10222410307E+00  0.51100000000E-03 0. -1.
         11    1    4    4    0    0  0.21270717729E-01 -0.77203653651E-02 -0.25043244031E-01  0.33756075997E-01  0.51100000000E-03 0.  1.
</event>
<event>
 8    1  0.2929965E+004  0.1043930E+01  0.7957747E-01            NaN
         13   -1    0    0    0    0  0.00000000000E+00  0.00000000000E+00  0.74505805969E-08  0.10566000000E+00  0.10566000000E+00 0.  1.
     999900   -1    0    0    0    0 -0.00000000000E+00 -0.00000000000E+00 -0.74505805969E-08  0.93827000000E+00  0.93827000000E+00 0. -1.
     999902    2    1    2    0    0 -0.20424161051E-02 -0.11905643327E-01  0.10987121828E-01  0.10276011099E+01  0.10274713662E+01 0.  0.
     999903    2    3    3    0    0  0.12239358993E+00  0.28205640776E-01 -0.35553958701E-01  0.13672552547E+00  0.40669845211E-01 0.  0.
         14    1    1    2    0    0  0.20424161051E-02  0.11905643327E-01 -0.10987121828E-01  0.16328890123E-01  0.00000000000E+00 0. -1.
     999901    1    3    3    0    0 -0.12443600603E+00 -0.40111284104E-01  0.46541080528E-01  0.89087558440E+00  0.88000000000E+00 0. -1.
        -11    1    4    4    0    0  0.11177475647E+00  0.27826615233E-01 -0.18555147350E-01  0.11667249596E+00  0.51100000000E-03 0.  1.
         11    1    4    4    0    0  0.10618833461E-01  0.37902554371E-03 -0.16998811351E-01  0.20053029517E-01  0.51100000000E-03 0. -1.
</event>
<event>
 8    1  0.2929965E+004  0.1043930E+01  0.7957747E-01            NaN
         13   -1    0    0    0    0  0.00000000000E+00  0.00000000000E+00  0.74505805969E-08  0.10566000000E+00  0.10566000000E+00 0.  1.
     999900   -1    0    0    0    0 -0.00000000000E+00 -0.00000000000E+00 -0.74505805969E-08  0.93827000000E+00  0.93827000000E+00 0.  1.
     999902    2    1    2    0    0 -0.46150823575E-02 -0.37513838983E-02 -0.12701979323E-01  0.10299045893E+01  0.10298090847E+01 0.  0.
     999903    2    3    3    0    0  0.41342042801E-01 -0.12638832398E+00 -0.81092259464E-02  0.14020072295E+00  0.43672763035E-01 0.  0.
         14    1    1    2    0    0  0.46150823575E-02  0.37513838983E-02  0.12701979323E-01  0.14025410691E-01  0.00000000000E+00 0.  1.
     999901    1    3    3    0    0 -0.45957125158E-01  0.12263694008E+00 -0.45927533766E-02  0.88970386636E+00  0.88000000000E+00 0.  1.
        -11    1    4    4    0    0  0.34771094060E-01 -0.84342079903E-01  0.13907030821E-01  0.92283704151E-01  0.51100000000E-03 0. -1.
         11    1    4    4    0    0  0.65709487411E-02 -0.42046244072E-01 -0.22016256768E-01  0.47917018803E-01  0.51100000000E-03 0.  1.
</event>
<event>
 8    1  0.2929965E+004  0.1043930E+01  0.7957747E-01            NaN
         13   -1    0    0    0    0  0.00000000000E+00  0.00000000000E+00  0.74505805969E-08  0.10566000000E+00  0.10566000000E+00 0.  1.
     999900   -1    0    0    0    0 -0.00000000000E+00 -0.00000000000E+00 -0.74505805969E-08  0.93827000000E+00  0.93827000000E+00 0. -1.
     999902    2    1    2    0    0 -0.76193856307E-02 -0.10485509909E-01 -0.57034863405E-02  0.10297691133E+01  0.10296717419E+01 0.  0.
     999903    2    3    3    0    0 -0.56598324456E-01  0.11644557068E+00  0.23264979954E-01  0.13884284941E+00  0.44419998607E-01 0.  0.
         14    1    1    2    0    0  0.76193856307E-02  0.10485509909E-01  0.57034863405E-02  0.14160886691E-01  0.00000000000E+00 0. -1.
     999901    1    3    3    0    0  0.48978938825E-01 -0.12693108059E+00 -0.28968466295E-01  0.89092626390E+00  0.88000000000E+00 0. -1.
        -11    1    4    4    0    0 -0.77349957343E-02  0.65678538501E-01  0.68187315929E-02  0.66485011847E-01  0.51100000000E-03 0.  1.
         11    1    4    4    0    0 -0.48863328721E-01  0.50767032183E-01  0.16446248361E-01  0.72357837562E-01  0.51100000000E-03 0. -1.
</event>
<event>
 8    1  0.2929965E+004  0.1043930E+01  0.7957747E-01            NaN
         13   -1    0    0    0    0  0.00000000000E+00  0.00000000000E+00  0.74505805969E-08  0.10566000000E+00  0.10566000000E+00 0.  1.
     999900   -1    0    0    0    0 -0.00000000000E+00 -0.00000000000E+00 -0.74505805969E-08  0.93827000000E+00  0.93827000000E+00 0. -1.
     999902    2    1    2    0    0 -0.85689987678E-02  0.98999306768E-02 -0.46975086913E-02  0.10300194660E+01  0.10299255301E+01 0.  0.
     999903    2    3    3    0    0 -0.12281822414E+00  0.30477370608E-01  0.43873899219E-01  0.14106755609E+00  0.44293905326E-01 0.  0.
         14    1    1    2    0    0  0.85689987678E-02 -0.98999306768E-02  0.46975086913E-02  0.13910533965E-01  0.00000000000E+00 0. -1.
     999901    1    3    3    0    0  0.11424922537E+00 -0.20577439931E-01 -0.48571407910E-01  0.88895190995E+00  0.88000000000E+00 0. -1.
        -11    1    4    4    0    0 -0.57615684844E-01  0.11796243395E-01 -0.25591509634E-02  0.58868742750E-01  0.51100000000E-03 0.  1.
         11    1    4    4    0    0 -0.65202539291E-01  0.18681127214E-01  0.46433050183E-01  0.82198813339E-01  0.51100000000E-03 0. -1.
</event>
<event>
 8    1  0.2929965E+004  0.1043930E+01  0.7957747E-01            NaN
         13   -1    0    0    0    0  0.00000000000E+00  0.00000000000E+00  0.74505805969E-08  0.10566000000E+00  0.10566000000E+00 0.  1.
     999900   -1    0    0    0    0 -0.00000000000E+00 -0.00000000000E+00 -0.74505805969E-08  0.93827000000E+00  0.93827000000E+00 0.  1.
     999902    2    1    2    0    0 -0.56773912486E-02 -0.12847330100E-01  0.57002183850E-03  0.10298725612E+01  0.10297766169E+01 0.  0.
     999903    2    3    3    0    0 -0.59904121425E-01 -0.57310755553E-01 -0.10503270737E+00  0.14078906064E+00  0.43779715774E-01 0.  0.
         14    1    1    2    0    0  0.56773912486E-02  0.12847330100E-01 -0.57002183850E-03  0.14057438849E-01  0.00000000000E+00 0. -1.
     999901    1    3    3    0    0  0.54226730176E-01  0.44463425452E-01  0.10560272920E+00  0.88908350051E+00  0.88000000000E+00 0. -1.
        -11    1    4    4    0    0 -0.33700013379E-01 -0.54496687747E-01 -0.89886779984E-01  0.11038783544E+00  0.51100000000E-03 0. -1.
         11    1    4    4    0    0 -0.26204108046E-01 -0.28140678060E-02 -0.15145927381E-01  0.30401225195E-01  0.51100000000E-03 0.  1.
</event>
<event>
 8    1  0.2929965E+004  0.1043930E+01  0.7957747E-01            NaN
         13   -1    0    0    0    0  0.00000000000E+00  0.00000000000E+00  0.74505805969E-08  0.10566000000E+00  0.10566000000E+00 0.  1.
     999900   -1    0    0    0    0 -0.00000000000E+00 -0.00000000000E+00 -0.74505805969E-08  0.93827000000E+00  0.93827000000E+00 0. -1.
     999902    2    1    2    0    0  0.54801281467E-02 -0.11475261069E-01 -0.35581859926E-02  0.10307249211E+01  0.10306403295E+01 0.  0.
     999903    2    3    3    0    0 -0.97237494655E-01  0.18832784526E-01 -0.87432360262E-01  0.14027314545E+00  0.47141633114E-01 0.  0.
         14    1    1    2    0    0 -0.54801281467E-02  0.11475261069E-01  0.35581859926E-02  0.13205078896E-01  0.00000000000E+00 0. -1.
     999901    1    3    3    0    0  0.10271762280E+00 -0.30308045594E-01  0.83874174270E-01  0.89045177566E+00  0.88000000000E+00 0.  1.
        -11    1    4    4    0    0 -0.59185248577E-03  0.12485502352E-01 -0.13655373206E-01  0.18519405950E-01  0.51100000000E-03 0. -1.
         11    1    4    4    0    0 -0.96645642169E-01  0.63472821741E-02 -0.73776987057E-01  0.12175373950E+00  0.51100000000E-03 0.  1.
</event>
<event>
 8    1  0.2929965E+004  0.1043930E+01  0.7957747E-01            NaN
         13   -1    0    0    0    0  0.00000000000E+00  0.00000000000E+00  0.74505805969E-08  0.10566000000E+00  0.10566000000E+00 0. -1.
     999900   -1    0    0    0    0 -0.00000000000E+00 -0.00000000000E+00 -0.74505805969E-08  0.93827000000E+00  0.93827000000E+00 0. -1.
     999902    2    1    2    0    0  0.28036939908E-02 -0.10071291069E-01 -0.88955594250E-02  0.10302032895E+01  0.10301118362E+01 0.  0.
     999903    2    3    3    0    0 -0.46518041493E-02 -0.68743225873E-01  0.11296375132E+00  0.13983950317E+00  0.45243863109E-01 0.  0.
         14    1    1    2    0    0 -0.28036939908E-02  0.10071291069E-01  0.88955594250E-02  0.13726710504E-01  0.00000000000E+00 0. -1.
     999901    1    3    3    0    0  0.74554981400E-02  0.58671934804E-01 -0.12185931075E+00  0.89036378633E+00  0.88000000000E+00 0. -1.
        -11    1    4    4    0    0  0.12396638808E-01 -0.26600916519E-02  0.28873208632E-01  0.31538485047E-01  0.51100000000E-03 0.  1.
         11    1    4    4    0    0 -0.17048442958E-01 -0.66083134221E-01  0.84090542688E-01  0.10830101812E+00  0.51100000000E-03 0. -1.
</event>
<event>
 8    1  0.2929965E+004  0.1043930E+01  0.7957747E-01            NaN
         13   -1    0    0    0    0  0.00000000000E+00  0.00000000000E+00  0.74505805969E-08  0.10566000000E+00  0.10566000000E+00 0.  1.
     999900   -1    0    0    0    0 -0.00000000000E+00 -0.00000000000E+00 -0.74505805969E-08  0.93827000000E+00  0.93827000000E+00 0.  1.
     999902    2    1    2    0    0  0.67624841851E-02  0.53204859475E-03 -0.12032871493E-01  0.10301168083E+01  0.10300241912E+01 0.  0.
     999903    2    3    3    0    0 -0.32784395071E-02  0.13115111358E+00  0.26098539928E-01  0.13960225772E+00  0.39953645859E-01 0.  0.
         14    1    1    2    0    0 -0.67624841851E-02 -0.53204859475E-03  0.12032871493E-01  0.13813191681E-01  0.00000000000E+00 0. -1.
     999901    1    3    3    0    0  0.10040923692E-01 -0.13061906498E+00 -0.38131411420E-01  0.89051455060E+00  0.88000000000E+00 0.  1.
        -11    1    4    4    0    0 -0.60886393096E-02  0.15657653154E-03  0.96431633848E-03  0.61876547943E-02  0.51100000000E-03 0.  1.
         11    1    4    4    0    0  0.28101998025E-02  0.13099453704E+00  0.25134223589E-01  0.13341460293E+00  0.51100000000E-03 0. -1.
</event>
<event>
 8    1  0.2929965E+004  0.1043930E+01  0.7957747E-01            NaN
         13   -1    0    0    0    0  0.00000000000E+00  0.00000000000E+00  0.74505805969E-08  0.10566000000E+00  0.10566000000E+00 0.  1.
     999900   -1    0    0    0    0 -0.00000000000E+00 -0.00000000000E+00 -0.74505805969E-08  0.93827000000E+00  0.93827000000E+00 0.  1.
     999902    2    1    2    0    0  0.10157106694E-01  0.86008845078E-02  0.26602365467E-02  0.10303572741E+01  0.10302678746E+01 0.  0.
     999903    2    3    3    0    0  0.99463194725E-01  0.46772651905E-01 -0.74926525611E-01  0.14162088635E+00  0.48599209257E-01 0.  0.
         14    1    1    2    0    0 -0.10157106694E-01 -0.86008845078E-02 -0.26602365467E-02  0.13572725931E-01  0.00000000000E+00 0.  1.
     999901    1    3    3    0    0 -0.89306088031E-01 -0.38171767397E-01  0.77586762158E-01  0.88873638771E+00  0.88000000000E+00 0.  1.
        -11    1    4    4    0    0  0.13168740198E-01 -0.75658059769E-02 -0.21966426882E-01  0.26710338250E-01  0.51100000000E-03 0.  1.
         11    1    4    4    0    0  0.86294454527E-01  0.54338457882E-01 -0.52960098729E-01  0.11491054810E+00  0.51100000000E-03 0. -1.
</event>
<event>
 8    1  0.2929965E+004  0.1043930E+01  0.7957747E-01            NaN
         13   -1    0    0    0    0  0.00000000000E+00  0.00000000000E+00  0.74505805969E-08  0.10566000000E+00  0.10566000000E+00 0. -1.
     999900   -1    0    0    0    0 -0.00000000000E+00 -0.00000000000E+00 -0.74505805969E-08  0.93827000000E+00  0.93827000000E+00 0. -1.
     999902    2    1    2    0    0  0.91623181220E-02 -0.10385158727E-01  0.14240913339E-02  0.10300078008E+01  0.10299137061E+01 0.  0.
     999903    2    3    3    0    0 -0.65378770176E-01  0.91980794039E-01 -0.66200196211E-01  0.13837547386E+00  0.45060578405E-01 0.  0.
         14    1    1    2    0    0 -0.91623181220E-02  0.10385158727E-01 -0.14240913339E-02  0.13922199226E-01  0.00000000000E+00 0. -1.
     999901    1    3    3    0    0  0.74541088298E-01 -0.10236595277E+00  0.67624287545E-01  0.89163232691E+00  0.88000000000E+00 0. -1.
        -11    1    4    4    0    0 -0.42489465218E-03  0.34616511378E-01 -0.15108298587E-01  0.37775722397E-01  0.51100000000E-03 0.  1.
         11    1    4    4    0    0 -0.64953875524E-01  0.57364282661E-01 -0.51091897624E-01  0.10059975146E+00  0.51100000000E-03 0. -1.
</event>
<event>
 8    1  0.2929965E+004  0.1043930E+01  0.7957747E-01            NaN
         13   -1    0    0    0    0  0.00000000000E+00  0.00000000000E+00  0.74505805969E-08  0.10566000000E+00  0.10566000000E+00 0. -1.
     999900   -1    0    0    0    0 -0.00000000000E+00 -0.00000000000E+00 -0.74505805969E-08  0.93827000000E+00  0.93827000000E+00 0. -1.
     999902    2    1    2    0    0  0.37581001286E-02  0.13221395207E-01 -0.16182536194E-03  0.10301839171E+01  0.10300922038E+01 0.  0.
     999903    2    3    3    0    0  0.73654567235E-01  0.11168869389E+00  0.13996609256E-01  0.14182487578E+00  0.44933625502E-01 0.  0.
         14    1    1    2    0    0 -0.37581001286E-02 -0.13221395207E-01  0.16182536194E-03  0.13746082905E-01  0.00000000000E+00 0. -1.
     999901    1    3    3    0    0 -0.69896467106E-01 -0.98467298682E-01 -0.14158434618E-01  0.88835904132E+00  0.88000000000E+00 0.  1.
        -11    1    4    4    0    0  0.58082882071E-01  0.48236867165E-01  0.12057165801E-01  0.76459485427E-01  0.51100000000E-03 0. -1.
         11    1    4    4    0    0  0.15571685164E-01  0.63451826724E-01  0.19394434545E-02  0.65365390348E-01  0.51100000000E-03 0.  1.
</event>
<event>
 8    1  0.2929965E+004  0.1043930E+01  0.7957747E-01            NaN
         13   -1    0    0    0    0  0.00000000000E+00  0.00000000000E+00  0.74505805969E-08  0.10566000000E+00  0.10566000000E+00 0. -1.
     999900   -1    0    0    0    0 -0.00000000000E+00 -0.00000000000E+00 -0.74505805969E-08  0.93827000000E+00  0.93827000000E+00 0. -1.
     999902    2    1    2    0    0 -0.57469406243E-02  0.10547864586E-01  0.79578195878E-02  0.10295212642E+01  0.10294204301E+01 0.  0.
     999903    2    3    3    0    0  0.57914314747E-01 -0.11509524807E+00 -0.18896974448E-01  0.13791589909E+00  0.45417128887E-01 0.  0.
         14    1    1    2    0    0  0.57469406243E-02 -0.10547864586E-01 -0.79578195878E-02  0.14408735769E-01  0.00000000000E+00 0.  1.
     999901    1    3    3    0    0 -0.63661255371E-01  0.12564311266E+00  0.26854794036E-01  0.89160536515E+00  0.88000000000E+00 0. -1.
        -11    1    4    4    0    0 -0.21450491256E-03 -0.62411384716E-02 -0.12930012431E-01  0.14368164957E-01  0.51100000000E-03 0.  1.
         11    1    4    4    0    0  0.58128819659E-01 -0.10885410960E+00 -0.59669620168E-02  0.12354773413E+00  0.51100000000E-03 0. -1.
</event>
<event>
 8    1  0.2929965E+004  0.1043930E+01  0.7957747E-01            NaN
         13   -1    0    0    0    0  0.00000000000E+00  0.00000000000E+00  0.74505805969E-08  0.10566000000E+00  0.10566000000E+00 0. -1.
     999900   -1    0    0    0    0 -0.00000000000E+00 -0.00000000000E+00 -0.74505805969E-08  0.93827000000E+00  0.93827000000E+00 0.  1.
     999902    2    1    2    0    0 -0.14692188392E-01  0.91814031440E-03 -0.14954431338E-02  0.10291333878E+01  0.10290270114E+01 0.  0.
     999903    2    3    3    0    0 -0.70167722275E-01 -0.10517752984E+00  0.40477796171E-01  0.14003520490E+00  0.44559898959E-01 0.  0.
         14    1    1    2    0    0  0.14692188392E-01 -0.91814031440E-03  0.14954431338E-02  0.14796612164E-01  0.00000000000E+00 0. -1.
     999901    1    3    3    0    0  0.55475533883E-01  0.10609567016E+00 -0.41973239305E-01  0.88909818294E+00  0.88000000000E+00 0.  1.
        -11    1    4    4    0    0 -0.34412695457E-01 -0.20206272479E-01  0.14801663108E-02  0.39937189053E-01  0.51100000000E-03 0. -1.
         11    1    4    4    0    0 -0.35755026818E-01 -0.84971257362E-01  0.38997629860E-01  0.10009801585E+00  0.51100000000E-03 0.  1.
</event>
<event>
 8    1  0.2929965E+004  0.1043930E+01  0.7957747E-01            NaN
         13   -1    0    0    0    0  0.00000000000E+00  0.00000000000E+00  0.74505805969E-08  0.10566000000E+00  0.10566000000E+00 0.  1.
     999900   -1    0    0    0    0 -0.00000000000E+00 -0.00000000000E+00 -0.74505805969E-08  0.93827000000E+00  0.93827000000E+00 0.  1.
     999902    2    1    2    0    0 -0.12897124265E-01  0.17708265435E-02 -0.58754702607E-02  0.10296473955E+01  0.10295483312E+01 0.  0.
     999903    2    3    3    0    0 -0.93260706279E-02 -0.10193977592E+00 -0.84261661582E-01  0.14008961969E+00  0.45236936496E-01 0.  0.
         14    1    1    2    0    0  0.12897124265E-01 -0.17708265435E-02  0.58754702607E-02  0.14282604515E-01  0.00000000000E+00 0.  1.
     999901    1    3    3    0    0 -0.35710536366E-02  0.10371060247E+00  0.78386191321E-01  0.88955777580E+00  0.88000000000E+00 0. -1.
        -11    1    4    4    0    0 -0.17300069586E-01 -0.51588075809E-01 -0.66894719179E-01  0.86231006885E-01  0.51100000000E-03 0.  1.
         11    1    4    4    0    0  0.79739989580E-02 -0.50351700115E-01 -0.17366942403E-01  0.53858612805E-01  0.51100000000E-03 0. -1.
</event>
<event>
 8    1  0.2929965E+004  0.1043930E+01  0.7957747E-01            NaN
         13   -1    0    0    0    0  0.00000000000E+00  0.00000000000E+00  0.74505805969E-08  0.10566000000E+00  0.10566000000E+00 0. -1.
     999900   -1    0    0    0    0 -0.00000000000E+00 -0.00000000000E+00 -0.74505805969E-08  0.93827000000E+00  0.93827000000E+00 0. -1.
     999902    2    1    2    0    0  0.71399499623E-02  0.25639825847E-02  0.11817483694E-01  0.10298870013E+01  0.10297912554E+01 0.  0.
     999903    2    3    3    0    0 -0.41519268381E-01  0.94473230784E-01 -0.80929246082E-01  0.13892292495E+00  0.45836614433E-01 0.  0.
         14    1    1    2    0    0 -0.71399499623E-02 -0.25639825847E-02 -0.11817483694E-01  0.14042998718E-01  0.00000000000E+00 0.  1.
     999901    1    3    3    0    0  0.48659218344E-01 -0.91909248199E-01  0.92746729776E-01  0.89096407633E+00  0.88000000000E+00 0.  1.
        -11    1    4    4    0    0 -0.42225814913E-01  0.81971004210E-01 -0.48564278574E-01  0.10421619476E+00  0.51100000000E-03 0. -1.
         11    1    4    4    0    0  0.70654653191E-03  0.12502226574E-01 -0.32364967508E-01  0.34706730185E-01  0.51100000000E-03 0.  1.
</event>
<event>
 8    1  0.2929965E+004  0.1043930E+01  0.7957747E-01            NaN
         13   -1    0    0    0    0  0.00000000000E+00  0.00000000000E+00  0.74505805969E-08  0.10566000000E+00  0.10566000000E+00 0. -1.
     999900   -1    0    0    0    0 -0.00000000000E+00 -0.00000000000E+00 -0.74505805969E-08  0.93827000000E+00  0.93827000000E+00 0.  1.
     999902    2    1    2    0    0  0.13884863901E-01  0.13827797742E-02 -0.35566298228E-02  0.10295303076E+01  0.10294296009E+01 0.  0.
     999903    2    3    3    0    0  0.43807663219E-01 -0.93122803208E-02 -0.12520173074E+00  0.14059426445E+00  0.45666660662E-01 0.  0.
         14    1    1    2    0    0 -0.13884863901E-01 -0.13827797742E-02  0.35566298228E-02  0.14399692398E-01  0.00000000000E+00 0.  1.
     999901    1    3    3    0    0 -0.29922799318E-01  0.10695060095E-01  0.12164510092E+00  0.88893604315E+00  0.88000000000E+00 0. -1.
        -11    1    4    4    0    0  0.14148311139E-01  0.17420049558E-01 -0.60866033431E-01  0.64873476716E-01  0.51100000000E-03 0. -1.
         11    1    4    4    0    0  0.29659352080E-01 -0.26732329879E-01 -0.64335697308E-01  0.75720787738E-01  0.51100000000E-03 0.  1.
</event>
<event>
 8    1  0.2929965E+004  0.1043930E+01  0.7957747E-01            NaN
         13   -1    0    0    0    0  0.00000000000E+00  0.00000000000E+00  0.74505805969E-08  0.10566000000E+00  0.10566000000E+00 0. -1.
     999900   -1    0    0    0    0 -0.00000000000E+00 -0.00000000000E+00 -0.74505805969E-08  0.93827000000E+00  0.93827000000E+00 0.  1.
     999902    2    1    2    0    0  0.62866229285E-02 -0.84099648848E-03 -0.11827360439E-01  0.10305092937E+01  0.10304218986E+01 0.  0.
     999903    2    3    3    0    0 -0.22658027446E-01 -0.34955547712E-02  0.13145751616E+00  0.13844685455E+00  0.36889671572E-01 0.  0.
         14    1    1    2    0    0 -0.62866229285E-02  0.84099648848E-03  0.11827360439E-01  0.13420706312E-01  0.00000000000E+00 0. -1.
     999901    1    3    3    0    0  0.28944650374E-01  0.26545582827E-02 -0.14328487660E+00  0.89206243914E+00  0.88000000000E+00 0.  1.
        -11    1    4    4    0    0 -0.62605702371E-02 -0.18998673171E-01  0.75543668796E-01  0.78148904906E-01  0.51100000000E-03 0.  1.
         11    1    4    4    0    0 -0.16397457209E-01  0.15503118400E-01  0.55913847363E-01  0.60297949641E-01  0.51100000000E-03 0. -1.
</event>
<event>
 8    1  0.2929965E+004  0.1043930E+01  0.7957747E-01            NaN
         13   -1    0    0    0    0  0.00000000000E+00  0.00000000000E+00  0.74505805969E-08  0.10566000000E+00  0.10566000000E+00 0. -1.
     999900   -1    0    0    0    0 -0.00000000000E+00 -0.00000000000E+00 -0.74505805969E-08  0.93827000000E+00  0.93827000000E+00 0.  1.
     999902    2    1    2    0    0  0.12854513538E-01 -0.15564415798E-04 -0.47725982722E-02  0.10302180908E+01  0.10301268359E+01 0.  0.
     999903    2    3    3    0    0 -0.10219703697E+00 -0.42598874773E-01  0.70187876738E-01  0.13855152169E+00  0.44847381459E-01 0.  0.
         14    1    1    2    0    0 -0.12854513538E-01  0.15564415798E-04  0.47725982722E-02  0.13711909233E-01  0.00000000000E+00 0.  1.
     999901    1    3    3    0    0  0.11505155051E+00  0.42583310358E-01 -0.74960475010E-01  0.89166656908E+00  0.88000000000E+00 0.  1.
        -11    1    4    4    0    0 -0.75271125688E-01 -0.28034719255E-01  0.25295838254E-01  0.84212994247E-01  0.51100000000E-03 0. -1.
         11    1    4    4    0    0 -0.26925911284E-01 -0.14564155518E-01  0.44892038484E-01  0.54338527443E-01  0.51100000000E-03 0.  1.
</event>
<event>
 8    1  0.2929965E+004  0.1043930E+01  0.7957747E-01            NaN
         13   -1    0    0    0    0  0.00000000000E+00  0.00000000000E+00  0.74505805969E-08  0.10566000000E+00  0.10566000000E+00 0. -1.
     999900   -1    0    0    0    0 -0.00000000000E+00 -0.00000000000E+00 -0.74505805969E-08  0.93827000000E+00  0.93827000000E+00 0. -1.
     999902    2    1    2    0    0  0.10503104396E-01  0.75045828442E-02  0.49612167479E-02  0.10301007687E+01  0.10300079350E+01 0.  0.
     999903    2    3    3    0    0 -0.32829099808E-02 -0.97550506834E-02  0.13270856871E+00  0.14060240726E+00  0.45293864995E-01 0.  0.
         14    1    1    2    0    0 -0.10503104396E-01 -0.75045828442E-02 -0.49612167479E-02  0.13829231260E-01  0.00000000000E+00 0.  1.
     999901    1    3    3    0    0  0.13786014376E-01  0.17259633528E-01 -0.12774735196E+00  0.88949836148E+00  0.88000000000E+00 0. -1.
        -11    1    4    4    0    0  0.19924391573E-02  0.16554357335E-01  0.76735248499E-01  0.78527549585E-01  0.51100000000E-03 0. -1.
         11    1    4    4    0    0 -0.52753491381E-02 -0.26309408019E-01  0.55973320212E-01  0.62074857675E-01  0.51100000000E-03 0.  1.
</event>
<event>
 8    1  0.2929965E+004  0.1043930E+01  0.7957747E-01            NaN
         13   -1    0    0    0    0  0.00000000000E+00  0.00000000000E+00  0.74505805969E-08  0.10566000000E+00  0.10566000000E+00 0.  1.
     999900   -1    0    0    0    0 -0.00000000000E+00 -0.00000000000E+00 -0.74505805969E-08  0.93827000000E+00  0.93827000000E+00 0.  1.
     999902    2    1    2    0    0  0.73672145023E-02 -0.28688077931E-02  0.92822347708E-02  0.10317371418E+01  0.10316650930E+01 0.  0.
     999903    2    3    3    0    0  0.16694208391E-01 -0.36389297310E-01  0.12889641308E+00  0.14296373558E+00  0.47132439286E-01 0.  0.
         14    1    1    2    0    0 -0.73672145023E-02  0.28688077931E-02 -0.92822347708E-02  0.12192858156E-01  0.00000000000E+00 0. -1.
     999901    1    3    3    0    0 -0.93269938891E-02  0.33520489517E-01 -0.11961417831E+00  0.88877340627E+00  0.88000000000E+00 0.  1.
        -11    1    4    4    0    0  0.88395988361E-02 -0.10219475262E-01  0.26316085140E-02  0.13775437074E-01  0.51100000000E-03 0.  1.
         11    1    4    4    0    0  0.78546095553E-02 -0.26169822048E-01  0.12626480457E+00  0.12918829850E+00  0.51100000000E-03 0. -1.
</event>
<event>
 8    1  0.2929965E+004  0.1043930E+01  0.7957747E-01            NaN
         13   -1    0    0    0    0  0.00000000000E+00  0.00000000000E+00  0.74505805969E-08  0.10566000000E+00  0.10566000000E+00 0.  1.
     999900   -1    0    0    0    0 -0.00000000000E+00 -0.00000000000E+00 -0.74505805969E-08  0.93827000000E+00  0.93827000000E+00 0.  1.
     999902    2    1    2    0    0 -0.41651475837E-03 -0.68611143969E-02  0.13653695024E-01  0.10286436740E+01  0.10285300852E+01 0.  0.
     999903    2    3    3    0    0  0.63619342678E-01 -0.37123741144E-01  0.11081719319E+00  0.14046736097E+00  0.45000403042E-01 0.  0.
         14    1    1    2    0    0  0.41651475837E-03  0.68611143969E-02 -0.13653695024E-01  0.15286326018E-01  0.00000000000E+00 0. -1.
     999901    1    3    3    0    0 -0.64035857436E-01  0.30262626747E-01 -0.97163498161E-01  0.88817631301E+00  0.88000000000E+00 0.  1.
        -11    1    4    4    0    0  0.23683676491E-01 -0.37006977013E-01  0.41346534982E-01  0.60334318226E-01  0.51100000000E-03 0. -1.
         11    1    4    4    0    0  0.39935666187E-01 -0.11676413050E-03  0.69470658203E-01  0.80133042747E-01  0.51100000000E-03 0.  1.
</event>
<event>
 8    1  0.2929965E+004  0.1043930E+01  0.7957747E-01            NaN
         13   -1    0    0    0    0  0.00000000000E+00  0.00000000000E+00  0.74505805969E-08  0.10566000000E+00  0.10566000000E+00 0. -1.
     999900   -1    0    0    0    0 -0.00000000000E+00 -0.00000000000E+00 -0.74505805969E-08  0.93827000000E+00  0.93827000000E+00 0.  1.
     999902    2    1    2    0    0 -0.89822909775E-02 -0.54126188504E-02 -0.10034083996E-01  0.10294158402E+01  0.10293135145E+01 0.  0.
     999903    2    3    3    0    0 -0.12910076051E+00 -0.24333308677E-01  0.20628636311E-01  0.14052515980E+00  0.45416556724E-01 0.  0.
         14    1    1    2    0    0  0.89822909775E-02  0.54126188504E-02  0.10034083996E-01  0.14514159833E-01  0.00000000000E+00 0. -1.
     999901    1    3    3    0    0  0.12011846953E+00  0.18920689827E-01 -0.30662720307E-01  0.88889068037E+00  0.88000000000E+00 0.  1.
        -11    1    4    4    0    0 -0.54158312604E-01 -0.20090679150E-01  0.29630881691E-01  0.64923096688E-01  0.51100000000E-03 0.  1.
         11    1    4    4    0    0 -0.74942447908E-01 -0.42426295272E-02 -0.90022453802E-02  0.75602063111E-01  0.51100000000E-03 0. -1.
</event>
<event>
 8    1  0.2929965E+004  0.1043930E+01  0.7957747E-01            NaN
         13   -1    0    0    0    0  0.00000000000E+00  0.00000000000E+00  0.74505805969E-08  0.10566000000E+00  0.10566000000E+00 0. -1.
     999900   -1    0    0    0    0 -0.00000000000E+00 -0.00000000000E+00 -0.74505805969E-08  0.93827000000E+00  0.93827000000E+00 0.  1.
     999902    2    1    2    0    0 -0.13755017654E-01  0.54193923343E-02 -0.18376924723E-02  0.10290320996E+01  0.10289242511E+01 0.  0.
     999903    2    3    3    0    0 -0.56117178599E-01  0.88744288231E-01  0.81054096246E-01  0.14020779769E+00  0.45428774881E-01 0.  0.
         14    1    1    2    0    0  0.13755017654E-01 -0.54193923343E-02  0.18376924723E-02  0.14897900441E-01  0.00000000000E+00 0. -1.
     999901    1    3    3    0    0  0.42362160945E-01 -0.83324895897E-01 -0.82891788718E-01  0.88882430187E+00  0.88000000000E+00 0.  1.
        -11    1    4    4    0    0 -0.18608142452E-01  0.54002931263E-02  0.22208875316E-02  0.19509474462E-01  0.51100000000E-03 0. -1.
         11    1    4    4    0    0 -0.37509036147E-01  0.83343995105E-01  0.78833208715E-01  0.12069832323E+00  0.51100000000E-03 0.  1.
</event>
<event>
 8    1  0.2929965E+004  0.1043930E+01  0.7957747E-01            NaN
         13   -1    0    0    0    0  0.00000000000E+00  0.00000000000E+00  0.74505805969E-08  0.10566000000E+00  0.10566000000E+00 0.  1.
     999900   -1    0    0    0    0 -0.00000000000E+00 -0.00000000000E+00 -0.74505805969E-08  0.93827000000E+00  0.93827000000E+00 0.  1.
     999902    2    1    2    0    0 -0.11524411265E-03 -0.13447513608E-01  0.10505816919E-02  0.10304410184E+01  0.10303527259E+01 0.  0.
     999903    2    3    3    0    0  0.12594069777E+00  0.39267294555E-01 -0.10720319895E-01  0.13981904155E+00  0.45071713332E-01 0.  0.
         14    1    1    2    0    0  0.11524411265E-03  0.13447513608E-01 -0.10505816919E-02  0.13488981627E-01  0.00000000000E+00 0.  1.
     999901    1    3    3    0    0 -0.12605594189E+00 -0.52714808162E-01  0.11770901587E-01  0.89062197683E+00  0.88000000000E+00 0. -1.
        -11    1    4    4    0    0  0.15320841750E-01  0.22617284476E-01 -0.52197527982E-02  0.27816841828E-01  0.51100000000E-03 0.  1.
         11    1    4    4    0    0  0.11061985602E+00  0.16650010079E-01 -0.55005670969E-02  0.11200219972E+00  0.51100000000E-03 0. -1.
</event>
<event>
 8    1  0.2929965E+004  0.1043930E+01  0.7957747E-01            NaN
         13   -1    0    0    0    0  0.00000000000E+00  0.00000000000E+00  0.74505805969E-08  0.10566000000E+00  0.10566000000E+00 0.  1.
     999900   -1    0    0    0    0 -0.00000000000E+00 -0.00000000000E+00 -0.74505805969E-08  0.93827000000E+00  0.93827000000E+00 0. -1.
     999902    2    1    2    0    0 -0.48555992050E-02 -0.93742567309E-02  0.80804203118E-02  0.10306353874E+01  0.10305496373E+01 0.  0.
     999903    2    3    3    0    0  0.32618090610E-02  0.88596245329E-01  0.99945800826E-01  0.14040880961E+00  0.43191858361E-01 0.  0.
         14    1    1    2    0    0  0.48555992050E-02  0.93742567309E-02 -0.80804203118E-02  0.13294612642E-01  0.00000000000E+00 0. -1.
     999901    1    3    3    0    0 -0.81174082660E-02 -0.97970502060E-01 -0.91865380514E-01  0.89022657775E+00  0.88000000000E+00 0. -1.
        -11    1    4    4    0    0 -0.34217375664E-03  0.47728151403E-01  0.22507844740E-01  0.52772698577E-01  0.51100000000E-03 0. -1.
         11    1    4    4    0    0  0.36039828176E-02  0.40868093926E-01  0.77437956086E-01  0.87636111033E-01  0.51100000000E-03 0.  1.
</event>
<event>
 8    1  0.2929965E+004  0.1043930E+01  0.7957747E-01            NaN
         13   -1    0    0    0    0  0.00000000000E+00  0.00000000000E+00  0.74505805969E-08  0.10566000000E+00  0.10566000000E+00 0.  1.
     999900   -1    0    0    0    0 -0.00000000000E+00 -0.00000000000E+00 -0.74505805969E-08  0.93827000000E+00  0.93827000000E+00 0. -1.
     999902    2    1    2    0    0 -0.55389670231E-02  0.22298697406E-02  0.13412730706E-01  0.10292482488E+01  0.10291435292E+01 0.  0.
     999903    2    3    3    0    0 -0.60708281210E-01 -0.97857302599E-01  0.66559286938E-01  0.14026812989E+00  0.44536080936E-01 0.  0.
         14    1    1    2    0    0  0.55389670231E-02 -0.22298697406E-02 -0.13412730706E-01  0.14681751249E-01  0.00000000000E+00 0. -1.
     999901    1    3    3    0    0  0.55169314187E-01  0.10008717234E+00 -0.53146556233E-01  0.88898011886E+00  0.88000000000E+00 0.  1.
        -11    1    4    4    0    0 -0.33013499536E-01 -0.56871132699E-01  0.12404380009E-01  0.66920450166E-01  0.51100000000E-03 0. -1.
         11    1    4    4    0    0 -0.27694781674E-01 -0.40986169900E-01  0.54154906929E-01  0.73347679722E-01  0.51100000000E-03 0.  1.
</event>
<event>
 8    1  0.2929965E+004  0.1043930E+01  0.7957747E-01            NaN
         13   -1    0    0    0    0  0.00000000000E+00  0.00000000000E+00  0.74505805969E-08  0.10566000000E+00  0.10566000000E+00 0. -1.
     999900   -1    0    0    0    0 -0.00000000000E+00 -0.00000000000E+00 -0.74505805969E-08  0.93827000000E+00  0.93827000000E+00 0.  1.
     999902    2    1    2    0    0 -0.48461008717E-02 -0.13787738614E-01  0.16516394548E-01  0.10218760271E+01  0.10216380167E+01 0.  0.
     999903    2    3    3    0    0  0.99473472993E-01 -0.19049296178E-01  0.74538868170E-01  0.13380121897E+00  0.45704220973E-01 0.  0.
         14    1    1    2    0    0  0.48461008717E-02  0.13787738614E-01 -0.16516394548E-01  0.22053972854E-01  0.00000000000E+00 0.  1.
     999901    1    3    3    0    0 -0.10431957386E+00  0.52615575635E-02 -0.58022473621E-01  0.88807480818E+00  0.88000000000E+00 0. -1.
        -11    1    4    4    0    0  0.18175152484E-01 -0.12415405820E-01  0.39084547442E-01  0.44859128828E-01  0.51100000000E-03 0.  1.
         11    1    4    4    0    0  0.81298320509E-01 -0.66338903576E-02  0.35454320728E-01  0.88942090138E-01  0.51100000000E-03 0. -1.
</event>
<event>
 8    1  0.2929965E+004  0.1043930E+01  0.7957747E-01            NaN
         13   -1    0    0    0    0  0.00000000000E+00  0.00000000000E+00  0.74505805969E-08  0.10566000000E+00  0.10566000000E+00 0.  1.
     999900   -1    0    0    0    0 -0.00000000000E+00 -0.00000000000E+00 -0.74505805969E-08  0.93827000000E+00  0.93827000000E+00 0. -1.
     999902    2    1    2    0    0 -0.32625444256E-02 -0.12439206036E-01  0.42051977098E-02  0.10303999693E+01  0.10303111350E+01 0.  0.
     999903    2    3    3    0    0 -0.17584215868E-01 -0.87214785643E-01 -0.10001852662E+00  0.14098494678E+00  0.44242808080E-01 0.  0.
         14    1    1    2    0    0  0.32625444256E-02  0.12439206036E-01 -0.42051977098E-02  0.13530030699E-01  0.00000000000E+00 0. -1.
     999901    1    3    3    0    0  0.14321671442E-01  0.74775579606E-01  0.10422372433E+00  0.88941502252E+00  0.88000000000E+00 0.  1.
        -11    1    4    4    0    0 -0.26426696592E-01 -0.38562620101E-01 -0.31064071987E-01  0.56130950920E-01  0.51100000000E-03 0. -1.
         11    1    4    4    0    0  0.88424807242E-02 -0.48652165542E-01 -0.68954454638E-01  0.84853995856E-01  0.51100000000E-03 0.  1.
</event>
<event>
 8    1  0.2929965E+004  0.1043930E+01  0.7957747E-01            NaN
         13   -1    0    0    0    0  0.00000000000E+00  0.00000000000E+00  0.74505805969E-08  0.10566000000E+00  0.10566000000E+00 0.  1.
     999900   -1    0    0    0    0 -0.00000000000E+00 -0.00000000000E+00 -0.74505805969E-08  0.93827000000E+00  0.93827000000E+00 0. -1.
     999902    2    1    2    0    0 -0.78514725043E-02 -0.19057815236E-01 -0.15974782823E-01  0.10178524306E+01  0.10175183196E+01 0.  0.
     999903    2    3    3    0    0  0.74844574301E-01 -0.93504373864E-01 -0.26262465052E-01  0.13078605048E+00  0.45502699871E-01 0.  0.
         14    1    1    2    0    0  0.78514725043E-02  0.19057815236E-01  0.15974782823E-01  0.26077569448E-01  0.00000000000E+00 0.  1.
     999901    1    3    3    0    0 -0.82696046806E-01  0.74446558627E-01  0.10287682229E-01  0.88706638007E+00  0.88000000000E+00 0. -1.
        -11    1    4    4    0    0  0.31842741509E-01 -0.11285722777E-01  0.18392985688E-02  0.33837432905E-01  0.51100000000E-03 0. -1.
         11    1    4    4    0    0  0.43001832793E-01 -0.82218651087E-01 -0.28101763621E-01  0.96948617575E-01  0.51100000000E-03 0.  1.
</event>
<event>
 8    1  0.2929965E+004  0.1043930E+01  0.7957747E-01            NaN
         13   -1    0    0    0    0  0.00000000000E+00  0.00000000000E+00  0.74505805969E-08  0.10566000000E+00  0.10566000000E+00 0. -1.
     999900   -1    0    0    0    0 -0.00000000000E+00 -0.00000000000E+00 -0.74505805969E-08  0.93827000000E+00  0.93827000000E+00 0. -1.
     999902    2    1    2    0    0  0.10858864300E-01 -0.43868642017E-03  0.81763911400E-02  0.10303299724E+01  0.10302402104E+01 0.  0.
     999903    2    3    3    0    0  0.82242547824E-01  0.91188650769E-01 -0.55563121958E-01  0.14041204091E+00  0.39358277512E-01 0.  0.
         14    1    1    2    0    0 -0.10858864300E-01  0.43868642017E-03 -0.81763911400E-02  0.13600027637E-01  0.00000000000E+00 0. -1.
     999901    1    3    3    0    0 -0.71383683524E-01 -0.91627337190E-01  0.63739513098E-01  0.88991793145E+00  0.88000000000E+00 0.  1.
        -11    1    4    4    0    0  0.46377849584E-01  0.72434167453E-01 -0.24624812993E-01  0.89466508161E-01  0.51100000000E-03 0. -1.
         11    1    4    4    0    0  0.35864698240E-01  0.18754483317E-01 -0.30938308965E-01  0.50945532748E-01  0.51100000000E-03 0.  1.
</event>
<event>
 8    1  0.2929965E+004  0.1043930E+01  0.7957747E-01            NaN
         13   -1    0    0    0    0  0.00000000000E+00  0.00000000000E+00  0.74505805969E-08  0.10566000000E+00  0.10566000000E+00 0.  1.
     999900   -1    0    0    0    0 -0.00000000000E+00 -0.00000000000E+00 -0.74505805969E-08  0.93827000000E+00  0.93827000000E+00 0. -1.
     999902    2    1    2    0    0 -0.11470616950E-01  0.74014654994E-02 -0.50942421296E-02  0.10293592057E+01  0.10292560742E+01 0.  0.
     999903    2    3    3    0    0 -0.87613067963E-01  0.10069569078E+00 -0.58976395773E-02  0.14115757835E+00  0.45552255181E-01 0.  0.
         14    1    1    2    0    0  0.11470616950E-01 -0.74014654994E-02  0.50942421296E-02  0.14570794338E-01  0.00000000000E+00 0.  1.
     999901    1    3    3    0    0  0.76142451013E-01 -0.93294225284E-01  0.80339744779E-03  0.88820162731E+00  0.88000000000E+00 0.  1.
        -11    1    4    4    0    0 -0.87051120433E-01  0.97017032811E-01  0.41678056336E-02  0.13041408647E+00  0.51100000000E-03 0.  1.
         11    1    4    4    0    0 -0.56194753085E-03  0.36786579718E-02 -0.10065445211E-01  0.10743491881E-01  0.51100000000E-03 0. -1.
</event>
<event>
 8    1  0.2929965E+004  0.1043930E+01  0.7957747E-01            NaN
         13   -1    0    0    0    0  0.00000000000E+00  0.00000000000E+00  0.74505805969E-08  0.10566000000E+00  0.10566000000E+00 0. -1.
     999900   -1    0    0    0    0 -0.00000000000E+00 -0.00000000000E+00 -0.74505805969E-08  0.93827000000E+00  0.93827000000E+00 0. -1.
     999902    2    1    2    0    0  0.28313398922E-02  0.98177859445E-02 -0.90420493070E-02  0.10302858048E+01  0.10301954550E+01 0.  0.
     999903    2    3    3    0    0  0.22609172114E-02  0.13439831969E+00 -0.86776777498E-02  0.14151093595E+00  0.43382286938E-01 0.  0.
         14    1    1    2    0    0 -0.28313398922E-02 -0.98177859445E-02  0.90420493070E-02  0.13644195180E-01  0.00000000000E+00 0. -1.
     999901    1    3    3    0    0  0.57042268078E-03 -0.12458053375E+00 -0.36437155722E-03  0.88877486887E+00  0.88000000000E+00 0. -1.
        -11    1    4    4    0    0  0.14219546474E-01  0.72621048042E-01 -0.21973915173E-01  0.77195376737E-01  0.51100000000E-03 0.  1.
         11    1    4    4    0    0 -0.11958629263E-01  0.61777271648E-01  0.13296237423E-01  0.64315559212E-01  0.51100000000E-03 0. -1.
</event>
<event>
 8    1  0.2929965E+004  0.1043930E+01  0.7957747E-01            NaN
         13   -1    0    0    0    0  0.00000000000E+00  0.00000000000E+00  0.74505805969E-08  0.10566000000E+00  0.10566000000E+00 0. -1.
     999900   -1    0    0    0    0 -0.00000000000E+00 -0.00000000000E+00 -0.74505805969E-08  0.93827000000E+00  0.93827000000E+00 0.  1.
     999902    2    1    2    0    0  0.10459693737E-01  0.99634974546E-02 -0.41150031612E-02  0.10289096896E+01  0.10288000484E+01 0.  0.
     999903    2    3    3    0    0  0.43132548600E-01  0.30848976651E-02 -0.12540623293E+00  0.13996290094E+00  0.44642547421E-01 0.  0.
         14    1    1    2    0    0 -0.10459693737E-01 -0.99634974546E-02  0.41150031612E-02  0.15020310437E-01  0.00000000000E+00 0.  1.
     999901    1    3    3    0    0 -0.32672854863E-01  0.68785997895E-02  0.12129122977E+00  0.88894678862E+00  0.88000000000E+00 0. -1.
        -11    1    4    4    0    0  0.50140389704E-01  0.10376207743E-01 -0.95092023729E-01  0.10800221509E+00  0.51100000000E-03 0.  1.
         11    1    4    4    0    0 -0.70078411040E-02 -0.72913100778E-02 -0.30314209201E-01  0.31960685851E-01  0.51100000000E-03 0. -1.
</event>
<event>
 8    1  0.2929965E+004  0.1043930E+01  0.7957747E-01            NaN
         13   -1    0    0    0    0  0.00000000000E+00  0.00000000000E+00  0.74505805969E-08  0.10566000000E+00  0.10566000000E+00 0. -1.
     999900   -1    0    0    0    0 -0.00000000000E+00 -0.00000000000E+00 -0.74505805969E-08  0.93827000000E+00  0.93827000000E+00 0. -1.
     999902    2    1    2    0    0  0.57508101797E-03 -0.21974522506E-02  0.14052281860E-01  0.10296953191E+01  0.10295969231E+01 0.  0.
     999903    2    3    3    0    0  0.45715436261E-01 -0.79611692440E-01  0.97374346252E-01  0.14122855965E+00  0.45120062791E-01 0.  0.
         14    1    1    2    0    0 -0.57508101797E-03  0.21974522506E-02 -0.14052281860E-01  0.14234680890E-01  0.00000000000E+00 0.  1.
     999901    1    3    3    0    0 -0.45140355243E-01  0.77414240189E-01 -0.83322064392E-01  0.88846675946E+00  0.88000000000E+00 0. -1.
        -11    1    4    4    0    0  0.82876250576E-02 -0.11553285539E-01 -0.27680898441E-02  0.14494363671E-01  0.51100000000E-03 0.  1.
         11    1    4    4    0    0  0.37427811203E-01 -0.68058406901E-01  0.10014243610E+00  0.12673419598E+00  0.51100000000E-03 0. -1.
</event>
<event>
 8    1  0.2929965E+004  0.1043930E+01  0.7957747E-01            NaN
         13   -1    0    0    0    0  0.00000000000E+00  0.00000000000E+00  0.74505805969E-08  0.10566000000E+00  0.10566000000E+00 0.  1.
     999900   -1    0    0    0    0 -0.00000000000E+00 -0.00000000000E+00 -0.74505805969E-08  0.93827000000E+00  0.93827000000E+00 0.  1.
     999902    2    1    2    0    0  0.12801791317E-01  0.41558279074E-02 -0.10331588701E-02  0.10304309562E+01  0.10303425311E+01 0.  0.
     999903    2    3    3    0    0  0.92820790576E-01 -0.91409319884E-01  0.34481108149E-02  0.14163636828E+00  0.55476196946E-01 0.  0.
         14    1    1    2    0    0 -0.12801791317E-01 -0.41558279074E-02  0.10331588701E-02  0.13499043809E-01  0.00000000000E+00 0.  1.
     999901    1    3    3    0    0 -0.80018999259E-01  0.95565147792E-01 -0.44812696851E-02  0.88879458791E+00  0.88000000000E+00 0. -1.
        -11    1    4    4    0    0  0.17359866346E-01 -0.14946424884E-01 -0.21419510754E-01  0.31365859439E-01  0.51100000000E-03 0. -1.
         11    1    4    4    0    0  0.75460924230E-01 -0.76462895000E-01  0.24867621569E-01  0.11027050884E+00  0.51100000000E-03 0.  1.
</event>
<event>
 8    1  0.2929965E+004  0.1043930E+01  0.7957747E-01            NaN
         13   -1    0    0    0    0  0.00000000000E+00  0.00000000000E+00  0.74505805969E-08  0.10566000000E+00  0.10566000000E+00 0. -1.
     999900   -1    0    0    0    0 -0.00000000000E+00 -0.00000000000E+00 -0.74505805969E-08  0.93827000000E+00  0.93827000000E+00 0.  1.
     999902    2    1    2    0    0 -0.49687888369E-02  0.11596598332E-01  0.64540159479E-02  0.10297587517E+01  0.10296612368E+01 0.  0.
     999903    2    3    3    0    0 -0.12598405542E-01  0.13291834754E+00  0.11762124444E-01  0.14138644584E+00  0.45008583185E-01 0.  0.
         14    1    1    2    0    0  0.49687888369E-02 -0.11596598332E-01 -0.64540159479E-02  0.14171248260E-01  0.00000000000E+00 0.  1.
     999901    1    3    3    0    0  0.76296167053E-02 -0.12132174921E+00 -0.53081084959E-02  0.88837230590E+00  0.88000000000E+00 0.  1.
        -11    1    4    4    0    0  0.43183695365E-02  0.89972560923E-01 -0.94760473500E-02  0.90574646723E-01  0.51100000000E-03 0. -1.
         11    1    4    4    0    0 -0.16916775079E-01  0.42945786615E-01  0.21238171794E-01  0.50811799114E-01  0.51100000000E-03 0.  1.
</event>
<event>
 8    1  0.2929965E+004  0.1043930E+01  0.7957747E-01            NaN
         13   -1    0    0    0    0  0.00000000000E+00  0.00000000000E+00  0.74505805969E-08  0.10566000000E+00  0.10566000000E+00 0.  1.
     999900   -1    0    0    0    0 -0.00000000000E+00 -0.00000000000E+00 -0.74505805969E-08  0.93827000000E+00  0.93827000000E+00 0.  1.
     999902    2    1    2    0    0 -0.37173000408E-02  0.15027154695E-01  0.76635057067E-03  0.10284309358E+01  0.10283141391E+01 0.  0.
     999903    2    3    3    0    0  0.12182391959E+00 -0.19594896132E-01  0.41858381286E-01  0.13789860106E+00  0.45153878608E-01 0.  0.
         14    1    1    2    0    0  0.37173000408E-02 -0.15027154695E-01 -0.76635057067E-03  0.15499064199E-01  0.00000000000E+00 0. -1.
     999901    1    3    3    0    0 -0.12554121963E+00  0.34622050828E-01 -0.41092030716E-01  0.89053233474E+00  0.88000000000E+00 0. -1.
        -11    1    4    4    0    0  0.45034995445E-01 -0.28586882474E-01  0.99838672110E-02  0.54270612580E-01  0.51100000000E-03 0. -1.
         11    1    4    4    0    0  0.76788924140E-01  0.89919863415E-02  0.31874514075E-01  0.83627988482E-01  0.51100000000E-03 0.  1.
</event>
<event>
 8    1  0.2929965E+004  0.1043930E+01  0.7957747E-01            NaN
         13   -1    0    0    0    0  0.00000000000E+00  0.00000000000E+00  0.74505805969E-08  0.10566000000E+00  0.10566000000E+00 0.  1.
     999900   -1    0    0    0    0 -0.00000000000E+00 -0.00000000000E+00 -0.74505805969E-08  0.93827000000E+00  0.93827000000E+00 0. -1.
     999902    2    1    2    0    0 -0.28859121945E-02 -0.80130636120E-02 -0.83339815883E-02  0.10320139215E+01  0.10319451251E+01 0.  0.
     999903    2    3    3    0    0 -0.45373407021E-02 -0.60902846666E-02  0.13348249482E+00  0.14065634046E+00  0.43691539916E-01 0.  0.
         14    1    1    2    0    0  0.28859121945E-02  0.80130636120E-02  0.83339815883E-02  0.11916078497E-01  0.00000000000E+00 0.  1.
     999901    1    3    3    0    0  0.16514285076E-02 -0.19227789454E-02 -0.14181647641E+00  0.89135758104E+00  0.88000000000E+00 0. -1.
        -11    1    4    4    0    0  0.13758854724E-01 -0.13154399775E-01  0.10043245748E+00  0.10222173914E+00  0.51100000000E-03 0. -1.
         11    1    4    4    0    0 -0.18296195426E-01  0.70641151083E-02  0.33050037347E-01  0.38434601324E-01  0.51100000000E-03 0.  1.
</event>
<event>
 8    1  0.2929965E+004  0.1043930E+01  0.7957747E-01            NaN
         13   -1    0    0    0    0  0.00000000000E+00  0.00000000000E+00  0.74505805969E-08  0.10566000000E+00  0.10566000000E+00 0.  1.
     999900   -1    0    0    0    0 -0.00000000000E+00 -0.00000000000E+00 -0.74505805969E-08  0.93827000000E+00  0.93827000000E+00 0.  1.
     999902    2    1    2    0    0  0.14764283253E-01  0.80214082398E-02  0.33793087692E-02  0.10267909575E+01  0.10266479064E+01 0.  0.
     999903    2    3    3    0    0 -0.29234637997E-01  0.11315173771E+00  0.58068860362E-01  0.13775820315E+00  0.44128790909E-01 0.  0.
         14    1    1    2    0    0 -0.14764283253E-01 -0.80214082398E-02 -0.33793087692E-02  0.17139042502E-01  0.00000000000E+00 0.  1.
     999901    1    3    3    0    0  0.43998921250E-01 -0.10513032947E+00 -0.54689551593E-01  0.88903275435E+00  0.88000000000E+00 0.  1.
        -11    1    4    4    0    0 -0.28848356916E-01  0.53299073813E-01  0.47438387756E-01  0.76965451470E-01  0.51100000000E-03 0.  1.
         11    1    4    4    0    0 -0.38628108117E-03  0.59852663895E-01  0.10630472606E-01  0.60792751683E-01  0.51100000000E-03 0. -1.
</event>
<event>
 8    1  0.2929965E+004  0.1043930E+01  0.7957747E-01            NaN
         13   -1    0    0    0    0  0.00000000000E+00  0.00000000000E+00  0.74505805969E-08  0.10566000000E+00  0.10566000000E+00 0. -1.
     999900   -1    0    0    0    0 -0.00000000000E+00 -0.00000000000E+00 -0.74505805969E-08  0.93827000000E+00  0.93827000000E+00 0. -1.
     999902    2    1    2    0    0  0.32812434289E-02 -0.60894597140E-02  0.13779481745E-01  0.10285117577E+01  0.10283961851E+01 0.  0.
     999903    2    3    3    0    0 -0.86124768784E-01 -0.52550934705E-01 -0.81997621141E-01  0.13759910368E+00  0.45064697099E-01 0.  0.
         14    1    1    2    0    0 -0.32812434289E-02  0.60894597140E-02 -0.13779481745E-01  0.15418242287E-01  0.00000000000E+00 0.  1.
     999901    1    3    3    0    0  0.89406012213E-01  0.46461474991E-01  0.95777102885E-01  0.89091265403E+00  0.88000000000E+00 0. -1.
        -11    1    4    4    0    0 -0.68701821843E-01 -0.31766980788E-01 -0.80403584691E-01  0.11042680356E+00  0.51100000000E-03 0. -1.
         11    1    4    4    0    0 -0.17422946941E-01 -0.20783953916E-01 -0.15940364500E-02  0.27172300118E-01  0.51100000000E-03 0.  1.
</event>
<event>
 7    1  0.2929965E+004  0.1043930E+01  0.7957747E-01            NaN
         13   -1    0    0    0    0  0.00000000000E+00  0.00000000000E+00  0.74505805969E-08  0.10566000000E+00  0.10566000000E+00 0.  1.
     999900   -1    0    0    0    0 -0.00000000000E+00 -0.00000000000E+00 -0.74505805969E-08  0.93827000000E+00  0.93827000000E+00 0.  1.
     999903    2    1    2    0    0  0.13248861331E-01 -0.58750154920E-01 -0.10488584178E+00  0.12902231179E+00  0.44928878288E-01 0.  0.
         14    1    1    2    0    0  0.17167808034E-01  0.75051002827E-03  0.22960901781E-01  0.28679259206E-01  0.00000000000E+00 0.  1.
     999901    1    1    2    0    0 -0.30416669365E-01  0.57999644892E-01  0.81924939996E-01  0.88622842900E+00  0.88000000000E+00 0. -1.
        -11    1    3    3    0    0  0.10510325765E-01 -0.11145817240E-01 -0.65215643152E-01  0.66992816200E-01  0.51100000000E-03 0. -1.
         11    1    3    3    0    0  0.27385355668E-02 -0.47604337681E-01 -0.39670198625E-01  0.62029495589E-01  0.51100000000E-03 0.  1.
</event>
<event>
 8    1  0.2929965E+004  0.1043930E+01  0.7957747E-01            NaN
         13   -1    0    0    0    0  0.00000000000E+00  0.00000000000E+00  0.74505805969E-08  0.10566000000E+00  0.10566000000E+00 0.  1.
     999900   -1    0    0    0    0 -0.00000000000E+00 -0.00000000000E+00 -0.74505805969E-08  0.93827000000E+00  0.93827000000E+00 0.  1.
     999902    2    1    2    0    0 -0.41287653512E-02 -0.14341457101E-01  0.52681934020E-02  0.10281035046E+01  0.10279816818E+01 0.  0.
     999903    2    3    3    0    0  0.10516541266E+00  0.58379426298E-01  0.49716227808E-01  0.13725605862E+00  0.43584411056E-01 0.  0.
         14    1    1    2    0    0  0.41287653512E-02  0.14341457101E-01 -0.52681934020E-02  0.15826495406E-01  0.00000000000E+00 0. -1.
     999901    1    3    3    0    0 -0.10929417801E+00 -0.72720883399E-01 -0.44448034406E-01  0.89084744597E+00  0.88000000000E+00 0.  1.
        -11    1    4    4    0    0  0.59391988745E-01  0.56433296587E-01  0.28288476308E-01  0.86675396183E-01  0.51100000000E-03 0.  1.
         11    1    4    4    0    0  0.45773423913E-01  0.19461297117E-02  0.21427751501E-01  0.50580662441E-01  0.51100000000E-03 0. -1.
</event>
<event>
 8    1  0.2929965E+004  0.1043930E+01  0.7957747E-01            NaN
         13   -1    0    0    0    0  0.00000000000E+00  0.00000000000E+00  0.74505805969E-08  0.10566000000E+00  0.10566000000E+00 0. -1.
     999900   -1    0    0    0    0 -0.00000000000E+00 -0.00000000000E+00 -0.74505805969E-08  0.93827000000E+00  0.93827000000E+00 0. -1.
     999902    2    1    2    0    0 -0.43118357846E-02 -0.10239786306E-01  0.84387246060E-02  0.10299780387E+01  0.10298835385E+01 0.  0.
     999903    2    3    3    0    0 -0.85424619917E-01  0.95374258127E-01  0.32720254333E-01  0.13962799359E+00  0.45074901532E-01 0.  0.
         14    1    1    2    0    0  0.43118357846E-02  0.10239786306E-01 -0.84387246060E-02  0.13951961310E-01  0.00000000000E+00 0.  1.
     999901    1    3    3    0    0  0.81112784132E-01 -0.10561404443E+00 -0.24281529727E-01  0.89035004510E+00  0.88000000000E+00 0.  1.
        -11    1    4    4    0    0 -0.28273936259E-01  0.59514338312E-01  0.31644714838E-02  0.65967014007E-01  0.51100000000E-03 0. -1.
         11    1    4    4    0    0 -0.57150683657E-01  0.35859919815E-01  0.29555782849E-01  0.73660979578E-01  0.51100000000E-03 0.  1.
</event>
<event>
 8    1  0.2929965E+004  0.1043930E+01  0.7957747E-01            NaN
         13   -1    0    0    0    0  0.00000000000E+00  0.00000000000E+00  0.74505805969E-08  0.10566000000E+00  0.10566000000E+00 0. -1.
     999900   -1    0    0    0    0 -0.00000000000E+00 -0.00000000000E+00 -0.74505805969E-08  0.93827000000E+00  0.93827000000E+00 0. -1.
     999902    2    1    2    0    0  0.17407428288E-02  0.10514229683E-01  0.84750754807E-02  0.10303136086E+01  0.10302236291E+01 0.  0.
     999903    2    3    3    0    0  0.48704617966E-01 -0.95240941563E-01 -0.75607568592E-01  0.13876458980E+00  0.45783514433E-01 0.  0.
         14    1    1    2    0    0 -0.17407428288E-02 -0.10514229683E-01 -0.84750754807E-02  0.13616391439E-01  0.00000000000E+00 0.  1.
     999901    1    3    3    0    0 -0.46963875137E-01  0.10575517125E+00  0.84082644073E-01  0.89154901876E+00  0.88000000000E+00 0.  1.
        -11    1    4    4    0    0  0.19480659092E-01 -0.63926848334E-01 -0.67841986583E-01  0.95230952326E-01  0.51100000000E-03 0. -1.
         11    1    4    4    0    0  0.29223958874E-01 -0.31314093230E-01 -0.77655820096E-02  0.43533637477E-01  0.51100000000E-03 0.  1.
</event>
<event>
 8    1  0.2929965E+004  0.1043930E+01  0.7957747E-01            NaN
         13   -1    0    0    0    0  0.00000000000E+00  0.00000000000E+00  0.74505805969E-08  0.10566000000E+00  0.10566000000E+00 0.  1.
     999900   -1    0    0    0    0 -0.00000000000E+00 -0.00000000000E+00 -0.74505805969E-08  0.93827000000E+00  0.93827000000E+00 0. -1.
     999902    2    1    2    0    0 -0.26143568490E-02  0.67528951674E-02 -0.99568243311E-02  0.10316184280E+01  0.10315449608E+01 0.  0.
     999903    2    3    3    0    0 -0.12589020956E+00 -0.36162964914E-01  0.28187982218E-01  0.14117262212E+00  0.44486424889E-01 0.  0.
         14    1    1    2    0    0  0.26143568490E-02 -0.67528951674E-02  0.99568243311E-02  0.12311572021E-01  0.00000000000E+00 0.  1.
     999901    1    3    3    0    0  0.12327585271E+00  0.42915860081E-01 -0.38144806549E-01  0.89044580586E+00  0.88000000000E+00 0. -1.
        -11    1    4    4    0    0 -0.40380801697E-01  0.83473682823E-02  0.14960836349E-01  0.43867703931E-01  0.51100000000E-03 0. -1.
         11    1    4    4    0    0 -0.85509407864E-01 -0.44510333196E-01  0.13227145869E-01  0.97304918187E-01  0.51100000000E-03 0.  1.
</event>
<event>
 8    1  0.2929965E+004  0.1043930E+01  0.7957747E-01            NaN
         13   -1    0    0    0    0  0.00000000000E+00  0.00000000000E+00  0.74505805969E-08  0.10566000000E+00  0.10566000000E+00 0. -1.
     999900   -1    0    0    0    0 -0.00000000000E+00 -0.00000000000E+00 -0.74505805969E-08  0.93827000000E+00  0.93827000000E+00 0.  1.
     999902    2    1    2    0    0 -0.43648950408E-02  0.14316871146E-01 -0.17208850387E-02  0.10288639271E+01  0.10287536118E+01 0.  0.
     999903    2    3    3    0    0  0.50618205520E-01  0.11993032589E+00  0.14403566193E-01  0.14069877289E+00  0.51412023669E-01 0.  0.
         14    1    1    2    0    0  0.43648950408E-02 -0.14316871146E-01  0.17208850387E-02  0.15066072927E-01  0.00000000000E+00 0. -1.
     999901    1    3    3    0    0 -0.54983100561E-01 -0.10561345474E+00 -0.16124451232E-01  0.88816515418E+00  0.88000000000E+00 0.  1.
        -11    1    4    4    0    0  0.19487676422E-01  0.10237120866E+00  0.11183488215E-01  0.10480918579E+00  0.51100000000E-03 0.  1.
         11    1    4    4    0    0  0.31130529098E-01  0.17559117221E-01  0.32200779789E-02  0.35889587107E-01  0.51100000000E-03 0. -1.
</event>
<event>
 8    1  0.2929965E+004  0.1043930E+01  0.7957747E-01            NaN
         13   -1    0    0    0    0  0.00000000000E+00  0.00000000000E+00  0.74505805969E-08  0.10566000000E+00  0.10566000000E+00 0.  1.
     999900   -1    0    0    0    0 -0.00000000000E+00 -0.00000000000E+00 -0.74505805969E-08  0.93827000000E+00  0.93827000000E+00 0.  1.
     999902    2    1    2    0    0 -0.10717893778E-01  0.10657667421E-01  0.10304073256E-02  0.10287800541E+01  0.10286684980E+01 0.  0.
     999903    2    3    3    0    0  0.63786023150E-01 -0.10328335882E+00  0.46700366769E-01  0.13714159805E+00  0.43483154212E-01 0.  0.
         14    1    1    2    0    0  0.10717893778E-01 -0.10657667421E-01 -0.10304073256E-02  0.15149945912E-01  0.00000000000E+00 0.  1.
     999901    1    3    3    0    0 -0.74503916928E-01  0.11394102624E+00 -0.45669959444E-01  0.89163845604E+00  0.88000000000E+00 0. -1.
        -11    1    4    4    0    0  0.16394786986E-01 -0.29754993084E-02  0.13168231817E-01  0.21243965887E-01  0.51100000000E-03 0. -1.
         11    1    4    4    0    0  0.47391236165E-01 -0.10030785951E+00  0.33532134953E-01  0.11589763216E+00  0.51100000000E-03 0.  1.
</event>
<event>
 8    1  0.2929965E+004  0.1043930E+01  0.7957747E-01            NaN
         13   -1    0    0    0    0  0.00000000000E+00  0.00000000000E+00  0.74505805969E-08  0.10566000000E+00  0.10566000000E+00 0. -1.
     999900   -1    0    0    0    0 -0.00000000000E+00 -0.00000000000E+00 -0.74505805969E-08  0.93827000000E+00  0.93827000000E+00 0.  1.
     999902    2    1    2    0    0  0.58743038787E-02 -0.58189555475E-02  0.90263096603E-02  0.10316890051E+01  0.10316163828E+01 0.  0.
     999903    2    3    3    0    0  0.88641791699E-01 -0.73214442216E-01 -0.70358518090E-01  0.14169206156E+00  0.43687497705E-01 0.  0.
         14    1    1    2    0    0 -0.58743038787E-02  0.58189555475E-02 -0.90263096603E-02  0.12240994886E-01  0.00000000000E+00 0.  1.
     999901    1    3    3    0    0 -0.82767487821E-01  0.67395486669E-01  0.79384827750E-01  0.88999694356E+00  0.88000000000E+00 0. -1.
        -11    1    4    4    0    0  0.61925830716E-01 -0.61389058404E-01 -0.71024209963E-01  0.11246388097E+00  0.51100000000E-03 0.  1.
         11    1    4    4    0    0  0.26715960983E-01 -0.11825383813E-01  0.66569187360E-03  0.29228180584E-01  0.51100000000E-03 0. -1.
</event>
<event>
 8    1  0.2929965E+004  0.1043930E+01  0.7957747E-01            NaN
         13   -1    0    0    0    0  0.00000000000E+00  0.00000000000E+00  0.74505805969E-08  0.10566000000E+00  0.10566000000E+00 0. -1.
     999900   -1    0    0    0    0 -0.00000000000E+00 -0.00000000000E+00 -0.74505805969E-08  0.93827000000E+00  0.93827000000E+00 0.  1.
     999902    2    1    2    0    0 -0.20848947194E-02 -0.10794110592E-01  0.83266705628E-02  0.10301389503E+01  0.10300466319E+01 0.  0.
     999903    2    3    3    0    0  0.52623432446E-01  0.46756384465E-01 -0.11094567905E+00  0.13854994524E+00  0.43951774668E-01 0.  0.
         14    1    1    2    0    0  0.20848947194E-02  0.10794110592E-01 -0.83266705628E-02  0.13791049710E-01  0.00000000000E+00 0.  1.
     999901    1    3    3    0    0 -0.54708327165E-01 -0.57550495057E-01  0.11927234961E+00  0.89158900505E+00  0.88000000000E+00 0. -1.
        -11    1    4    4    0    0  0.24920307272E-01  0.45875191804E-01 -0.89039587636E-01  0.10321755774E+00  0.51100000000E-03 0.  1.
         11    1    4    4    0    0  0.27703125173E-01  0.88119266067E-03 -0.21906091411E-01  0.35332387505E-01  0.51100000000E-03 0. -1.
</event>
<event>
 7    1  0.2929965E+004  0.1043930E+01  0.7957747E-01            NaN
         13   -1    0    0    0    0  0.00000000000E+00  0.00000000000E+00  0.74505805969E-08  0.10566000000E+00  0.10566000000E+00 0. -1.
     999900   -1    0    0    0    0 -0.00000000000E+00 -0.00000000000E+00 -0.74505805969E-08  0.93827000000E+00  0.93827000000E+00 0. -1.
     999903    2    1    2    0    0  0.81346790351E-01  0.31455043837E-01 -0.30774680612E-01  0.10272678907E+00  0.44710089938E-01 0.  0.
         14    1    1    2    0    0 -0.30704906896E-01 -0.11030926298E-01  0.49531237499E-01  0.59311180486E-01  0.00000000000E+00 0. -1.
     999901    1    1    2    0    0 -0.50641883455E-01 -0.20424117540E-01 -0.18756556887E-01  0.88189203045E+00  0.88000000000E+00 0. -1.
        -11    1    3    3    0    0  0.51532006166E-01  0.39470807401E-01 -0.10421826459E-01  0.65744717537E-01  0.51100000000E-03 0.  1.
         11    1    3    3    0    0  0.29814784185E-01 -0.80157635636E-02 -0.20352854153E-01  0.36982071531E-01  0.51100000000E-03 0. -1.
</event>
<event>
 8    1  0.2929965E+004  0.1043930E+01  0.7957747E-01            NaN
         13   -1    0    0    0    0  0.00000000000E+00  0.00000000000E+00  0.74505805969E-08  0.10566000000E+00  0.10566000000E+00 0.  1.
     999900   -1    0    0    0    0 -0.00000000000E+00 -0.00000000000E+00 -0.74505805969E-08  0.93827000000E+00  0.93827000000E+00 0.  1.
     999902    2    1    2    0    0 -0.86648234060E-02 -0.61452390024E-02  0.93983073034E-02  0.10297465129E+01  0.10296488282E+01 0.  0.
     999903    2    3    3    0    0  0.35676947258E-01  0.48523012054E-01  0.11908742970E+00  0.14014743808E+00  0.42803752442E-01 0.  0.
         14    1    1    2    0    0  0.86648234060E-02  0.61452390024E-02 -0.93983073034E-02  0.14183487132E-01  0.00000000000E+00 0.  1.
     999901    1    3    3    0    0 -0.44341770664E-01 -0.54668251057E-01 -0.10968912239E+00  0.88959907479E+00  0.88000000000E+00 0.  1.
        -11    1    4    4    0    0  0.34961192140E-01  0.22210988962E-01  0.43324364685E-01  0.59940592948E-01  0.51100000000E-03 0.  1.
         11    1    4    4    0    0  0.71575511822E-03  0.26312023092E-01  0.75763065011E-01  0.80206845128E-01  0.51100000000E-03 0. -1.
</event>
<event>
 8    1  0.2929965E+004  0.1043930E+01  0.7957747E-01            NaN
         13   -1    0    0    0    0  0.00000000000E+00  0.00000000000E+00  0.74505805969E-08  0.10566000000E+00  0.10566000000E+00 0.  1.
     999900   -1    0    0    0    0 -0.00000000000E+00 -0.00000000000E+00 -0.74505805969E-08  0.93827000000E+00  0.93827000000E+00 0.  1.
     999902    2    1    2    0    0 -0.10682738814E-01  0.89025472265E-02  0.23941902960E-03  0.10300219600E+01  0.10299280579E+01 0.  0.
     999903    2    3    3    0    0  0.10048247232E+00 -0.32010149489E-01  0.77676404374E-01  0.13871503214E+00  0.45682156604E-01 0.  0.
         14    1    1    2    0    0  0.10682738814E-01 -0.89025472265E-02 -0.23941902960E-03  0.13908040019E-01  0.00000000000E+00 0. -1.
     999901    1    3    3    0    0 -0.11116521113E+00  0.40912696716E-01 -0.77436985345E-01  0.89130692784E+00  0.88000000000E+00 0.  1.
        -11    1    4    4    0    0  0.56207459254E-01 -0.28425836345E-01  0.20356433014E-01  0.66196315107E-01  0.51100000000E-03 0.  1.
         11    1    4    4    0    0  0.44275013062E-01 -0.35843131439E-02  0.57319971360E-01  0.72518717033E-01  0.51100000000E-03 0. -1.
</event>
<event>
 8    1  0.2929965E+004  0.1043930E+01  0.7957747E-01            NaN
         13   -1    0    0    0    0  0.00000000000E+00  0.00000000000E+00  0.74505805969E-08  0.10566000000E+00  0.10566000000E+00 0. -1.
     999900   -1    0    0    0    0 -0.00000000000E+00 -0.00000000000E+00 -0.74505805969E-08  0.93827000000E+00  0.93827000000E+00 0. -1.
     999902    2    1    2    0    0  0.11606597643E-02  0.79771651599E-02 -0.12142322133E-01  0.10293554234E+01  0.10292522380E+01 0.  0.
     999903    2    3    3    0    0  0.20107207123E-01  0.56880010722E-01  0.11626575172E+00  0.13849118385E+00  0.44971630866E-01 0.  0.
         14    1    1    2    0    0 -0.11606597643E-02 -0.79771651599E-02  0.12142322133E-01  0.14574576559E-01  0.00000000000E+00 0. -1.
     999901    1    3    3    0    0 -0.18946547359E-01 -0.48902845563E-01 -0.12840807385E+00  0.89086423960E+00  0.88000000000E+00 0. -1.
        -11    1    4    4    0    0  0.31809587830E-01  0.25095795917E-01  0.52856993473E-01  0.66601589551E-01  0.51100000000E-03 0. -1.
         11    1    4    4    0    0 -0.11702380707E-01  0.31784214805E-01  0.63408758243E-01  0.71889594295E-01  0.51100000000E-03 0.  1.
</event>
<event>
 8    1  0.2929965E+004  0.1043930E+01  0.7957747E-01            NaN
         13   -1    0    0    0    0  0.00000000000E+00  0.00000000000E+00  0.74505805969E-08  0.10566000000E+00  0.10566000000E+00 0.  1.
     999900   -1    0    0    0    0 -0.00000000000E+00 -0.00000000000E+00 -0.74505805969E-08  0.93827000000E+00  0.93827000000E+00 0. -1.
     999902    2    1    2    0    0 -0.10818953979E-01 -0.71371275382E-02 -0.20063710008E-02  0.10308145938E+01  0.10307311545E+01 0.  0.
     999903    2    3    3    0    0 -0.28935346012E-01 -0.92802149026E-02 -0.12972932961E+00  0.14140695351E+00  0.47358746836E-01 0.  0.
         14    1    1    2    0    0  0.10818953979E-01  0.71371275382E-02  0.20063710008E-02  0.13115406181E-01  0.00000000000E+00 0.  1.
     999901    1    3    3    0    0  0.18116392033E-01  0.21430873643E-02  0.12772295861E+00  0.88940764031E+00  0.88000000000E+00 0.  1.
        -11    1    4    4    0    0  0.11486922660E-01 -0.94708118132E-02 -0.47440197874E-01  0.49724030045E-01  0.51100000000E-03 0. -1.
         11    1    4    4    0    0 -0.40422268673E-01  0.19059691060E-03 -0.82289131738E-01  0.91682923465E-01  0.51100000000E-03 0.  1.
</event>
<event>
 8    1  0.2929965E+004  0.1043930E+01  0.7957747E-01            NaN
         13   -1    0    0    0    0  0.00000000000E+00  0.00000000000E+00  0.74505805969E-08  0.10566000000E+00  0.10566000000E+00 0.  1.
     999900   -1    0    0    0    0 -0.00000000000E+00 -0.00000000000E+00 -0.74505805969E-08  0.93827000000E+00  0.93827000000E+00 0. -1.
     999902    2    1    2    0    0 -0.26353566717E-02  0.41235650398E-02  0.12724676236E-01  0.10302967216E+01  0.10302065173E+01 0.  0.
     999903    2    3    3    0    0  0.70860253323E-01  0.16230035535E-01 -0.10926657767E+00  0.13876431206E+00  0.45075045754E-01 0.  0.
         14    1    1    2    0    0  0.26353566717E-02 -0.41235650398E-02 -0.12724676236E-01  0.13633278356E-01  0.00000000000E+00 0. -1.
     999901    1    3    3    0    0 -0.73495609995E-01 -0.12106470495E-01  0.12199125391E+00  0.89153240959E+00  0.88000000000E+00 0.  1.
        -11    1    4    4    0    0  0.63285628674E-01 -0.88729082290E-03 -0.65124597806E-01  0.90814825013E-01  0.51100000000E-03 0.  1.
         11    1    4    4    0    0  0.75746246489E-02  0.17117326358E-01 -0.44141979865E-01  0.47949487042E-01  0.51100000000E-03 0. -1.
</event>
<event>
 8    1  0.2929965E+004  0.1043930E+01  0.7957747E-01            NaN
         13   -1    0    0    0    0  0.00000000000E+00  0.00000000000E+00  0.74505805969E-08  0.10566000000E+00  0.10566000000E+00 0.  1.
     999900   -1    0    0    0    0 -0.00000000000E+00 -0.00000000000E+00 -0.74505805969E-08  0.93827000000E+00  0.93827000000E+00 0. -1.
     999902    2    1    2    0    0  0.32522972382E-02  0.98425783894E-02 -0.91117599885E-02  0.10301286248E+01  0.10300361672E+01 0.  0.
     999903    2    3    3    0    0  0.76411333469E-01 -0.10281360090E+00  0.29442565075E-01  0.13910107458E+00  0.45529286161E-01 0.  0.
         14    1    1    2    0    0 -0.32522972382E-02 -0.98425783894E-02  0.91117599885E-02  0.13801375177E-01  0.00000000000E+00 0.  1.
     999901    1    3    3    0    0 -0.73159036231E-01  0.11265617929E+00 -0.38554325064E-01  0.89102755024E+00  0.88000000000E+00 0. -1.
        -11    1    4    4    0    0  0.52977772748E-01 -0.91232734979E-01  0.89433944302E-02  0.10587871251E+00  0.51100000000E-03 0.  1.
         11    1    4    4    0    0  0.23433560721E-01 -0.11580865921E-01  0.20499170645E-01  0.33222362073E-01  0.51100000000E-03 0. -1.
</event>
<event>
 8    1  0.2929965E+004  0.1043930E+01  0.7957747E-01            NaN
         13   -1    0    0    0    0  0.00000000000E+00  0.00000000000E+00  0.74505805969E-08  0.10566000000E+00  0.10566000000E+00 0.  1.
     999900   -1    0    0    0    0 -0.00000000000E+00 -0.00000000000E+00 -0.74505805969E-08  0.93827000000E+00  0.93827000000E+00 0.  1.
     999902    2    1    2    0    0  0.10127206054E-01 -0.63882540766E-02  0.80887493378E-02  0.10294801571E+01  0.10293787427E+01 0.  0.
     999903    2    3    3    0    0  0.29326584167E-01 -0.29658800722E-01  0.12687560542E+00  0.14098679665E+00  0.45168181063E-01 0.  0.
         14    1    1    2    0    0 -0.10127206054E-01  0.63882540766E-02 -0.80887493378E-02  0.14449842852E-01  0.00000000000E+00 0.  1.
     999901    1    3    3    0    0 -0.19199378113E-01  0.23270546645E-01 -0.11878685608E+00  0.88849336049E+00  0.88000000000E+00 0.  1.
        -11    1    4    4    0    0  0.35600763366E-01 -0.51069483454E-02  0.69274729086E-01  0.78056034261E-01  0.51100000000E-03 0. -1.
         11    1    4    4    0    0 -0.62741791986E-02 -0.24551852377E-01  0.57600876337E-01  0.62930762394E-01  0.51100000000E-03 0.  1.
</event>
<event>
 8    1  0.2929965E+004  0.1043930E+01  0.7957747E-01            NaN
         13   -1    0    0    0    0  0.00000000000E+00  0.00000000000E+00  0.74505805969E-08  0.10566000000E+00  0.10566000000E+00 0. -1.
     999900   -1    0    0    0    0 -0.00000000000E+00 -0.00000000000E+00 -0.74505805969E-08  0.93827000000E+00  0.93827000000E+00 0.  1.
     999902    2    1    2    0    0  0.88353818559E-02 -0.54700170783E-02 -0.75323460721E-02  0.10310956205E+01  0.10310157406E+01 0.  0.
     999903    2    3    3    0    0  0.78701134559E-01  0.10879509414E+00 -0.18307755481E-01  0.14089685143E+00  0.38555255680E-01 0.  0.
         14    1    1    2    0    0 -0.88353818559E-02  0.54700170783E-02  0.75323460721E-02  0.12834379484E-01  0.00000000000E+00 0.  1.
     999901    1    3    3    0    0 -0.69865752703E-01 -0.11426511122E+00  0.10775409409E-01  0.89019876909E+00  0.88000000000E+00 0. -1.
        -11    1    4    4    0    0  0.98021323130E-02  0.23910086152E-01 -0.18124393640E-01  0.31567844138E-01  0.51100000000E-03 0. -1.
         11    1    4    4    0    0  0.68899002246E-01  0.84885007990E-01 -0.18336184106E-03  0.10932900729E+00  0.51100000000E-03 0.  1.
</event>
<event>
 8    1  0.2929965E+004  0.1043930E+01  0.7957747E-01            NaN
         13   -1    0    0    0    0  0.00000000000E+00  0.00000000000E+00  0.74505805969E-08  0.10566000000E+00  0.10566000000E+00 0.  1.
     999900   -1    0    0    0    0 -0.00000000000E+00 -0.00000000000E+00 -0.74505805969E-08  0.93827000000E+00  0.93827000000E+00 0.  1.
     999902    2    1    2    0    0  0.17056945253E-03  0.14457808032E-01  0.80569546321E-03  0.10294487552E+01  0.10293468964E+01 0.  0.
     999903    2    3    3    0    0  0.13132749822E-01  0.13281895051E+00  0.93696112850E-02  0.14138866776E+00  0.45712394648E-01 0.  0.
         14    1    1    2    0    0 -0.17056945253E-03 -0.14457808032E-01 -0.80569546321E-03  0.14481244843E-01  0.00000000000E+00 0.  1.
     999901    1    3    3    0    0 -0.12962180370E-01 -0.11836114247E+00 -0.85639158218E-02  0.88806008739E+00  0.88000000000E+00 0.  1.
        -11    1    4    4    0    0  0.27366833186E-01  0.10517660510E+00 -0.76532925697E-03  0.10868260519E+00  0.51100000000E-03 0. -1.
         11    1    4    4    0    0 -0.14234083364E-01  0.27642345402E-01  0.10134940542E-01  0.32706062578E-01  0.51100000000E-03 0.  1.
</event>
<event>
 8    1  0.2929965E+004  0.1043930E+01  0.7957747E-01            NaN
         13   -1    0    0    0    0  0.00000000000E+00  0.00000000000E+00  0.74505805969E-08  0.10566000000E+00  0.10566000000E+00 0. -1.
     999900   -1    0    0    0    0 -0.00000000000E+00 -0.00000000000E+00 -0.74505805969E-08  0.93827000000E+00  0.93827000000E+00 0.  1.
     999902    2    1    2    0    0 -0.45805405227E-02  0.85436466272E-02  0.10548133021E-01  0.10296038575E+01  0.10295041841E+01 0.  0.
     999903    2    3    3    0    0 -0.10563330159E+00 -0.34537526911E-01 -0.66832425569E-01  0.13940421758E+00  0.51144184452E-01 0.  0.
         14    1    1    2    0    0  0.45805405227E-02 -0.85436466272E-02 -0.10548133021E-01  0.14326142516E-01  0.00000000000E+00 0.  1.
     999901    1    3    3    0    0  0.10105276106E+00  0.43081173539E-01  0.77380558590E-01  0.89019963990E+00  0.88000000000E+00 0. -1.
        -11    1    4    4    0    0 -0.56463055504E-01 -0.34035461410E-01 -0.61112699572E-01  0.89897232662E-01  0.51100000000E-03 0. -1.
         11    1    4    4    0    0 -0.49170246082E-01 -0.50206550161E-03 -0.57197259974E-02  0.49506984921E-01  0.51100000000E-03 0.  1.
</event>
<event>
 8    1  0.2929965E+004  0.1043930E+01  0.7957747E-01            NaN
         13   -1    0    0    0    0  0.00000000000E+00  0.00000000000E+00  0.74505805969E-08  0.10566000000E+00  0.10566000000E+00 0.  1.
     999900   -1    0    0    0    0 -0.00000000000E+00 -0.00000000000E+00 -0.74505805969E-08  0.93827000000E+00  0.93827000000E+00 0.  1.
     999902    2    1    2    0    0  0.61019457089E-02 -0.84164640354E-02  0.90621443418E-02  0.10301389497E+01  0.10300466313E+01 0.  0.
     999903    2    3    3    0    0  0.44232638017E-01  0.86682759461E-01 -0.87995821714E-01  0.13889371926E+00  0.45582601477E-01 0.  0.
         14    1    1    2    0    0 -0.61019457089E-02  0.84164640354E-02 -0.90621443418E-02  0.13791050300E-01  0.00000000000E+00 0. -1.
     999901    1    3    3    0    0 -0.38130692308E-01 -0.95099223496E-01  0.97057966056E-01  0.89124523044E+00  0.88000000000E+00 0. -1.
        -11    1    4    4    0    0 -0.42306984660E-02  0.26866125445E-01 -0.39310715257E-01  0.47804612340E-01  0.51100000000E-03 0.  1.
         11    1    4    4    0    0  0.48463336483E-01  0.59816634016E-01 -0.48685106457E-01  0.91089106922E-01  0.51100000000E-03 0. -1.
</event>
<event>
 8    1  0.2929965E+004  0.1043930E+01  0.7957747E-01            NaN
         13   -1    0    0    0    0  0.00000000000E+00  0.00000000000E+00  0.74505805969E-08  0.10566000000E+00  0.10566000000E+00 0.  1.
     999900   -1    0    0    0    0 -0.00000000000E+00 -0.00000000000E+00 -0.74505805969E-08  0.93827000000E+00  0.93827000000E+00 0. -1.
     999902    2    1    2    0    0 -0.10782206585E-01  0.64545393824E-02  0.65042090970E-02  0.10297800250E+01  0.10296828046E+01 0.  0.
     999903    2    3    3    0    0  0.56024546253E-01  0.72286115515E-01 -0.94774451202E-01  0.13901950402E+00  0.44499366500E-01 0.  0.
         14    1    1    2    0    0  0.10782206585E-01 -0.64545393824E-02 -0.65042090970E-02  0.14149975034E-01  0.00000000000E+00 0. -1.
     999901    1    3    3    0    0 -0.66806752838E-01 -0.65831576133E-01  0.10127866030E+00  0.89076052094E+00  0.88000000000E+00 0.  1.
        -11    1    4    4    0    0  0.30800970058E-01  0.31135031364E-01 -0.15994517586E-01  0.46628056451E-01  0.51100000000E-03 0. -1.
         11    1    4    4    0    0  0.25223576195E-01  0.41151084151E-01 -0.78779933615E-01  0.92391447571E-01  0.51100000000E-03 0.  1.
</event>
<event>
 8    1  0.2929965E+004  0.1043930E+01  0.7957747E-01            NaN
         13   -1    0    0    0    0  0.00000000000E+00  0.00000000000E+00  0.74505805969E-08  0.10566000000E+00  0.10566000000E+00 0.  1.
     999900   -1    0    0    0    0 -0.00000000000E+00 -0.00000000000E+00 -0.74505805969E-08  0.93827000000E+00  0.93827000000E+00 0.  1.
     999902    2    1    2    0    0  0.12589891432E-02 -0.13093006233E-01  0.25339201227E-02  0.10305347539E+01  0.10304476922E+01 0.  0.
     999903    2    3    3    0    0 -0.11258688417E+00  0.65612808290E-01  0.21566761861E-01  0.13951413848E+00  0.44924631549E-01 0.  0.
         14    1    1    2    0    0 -0.12589891432E-02  0.13093006233E-01 -0.25339201227E-02  0.13395246063E-01  0.00000000000E+00 0. -1.
     999901    1    3    3    0    0  0.11384587331E+00 -0.78705814524E-01 -0.19032841739E-01  0.89102061546E+00  0.88000000000E+00 0. -1.
        -11    1    4    4    0    0 -0.72196402172E-01  0.63385263768E-01  0.23864412972E-01  0.98993855754E-01  0.51100000000E-03 0.  1.
         11    1    4    4    0    0 -0.40390481995E-01  0.22275445219E-02 -0.22976511106E-02  0.40520282723E-01  0.51100000000E-03 0. -1.
</event>
<event>
 8    1  0.2929965E+004  0.1043930E+01  0.7957747E-01            NaN
         13   -1    0    0    0    0  0.00000000000E+00  0.00000000000E+00  0.74505805969E-08  0.10566000000E+00  0.10566000000E+00 0. -1.
     999900   -1    0    0    0    0 -0.00000000000E+00 -0.00000000000E+00 -0.74505805969E-08  0.93827000000E+00  0.93827000000E+00 0. -1.
     999902    2    1    2    0    0  0.80479034113E-02  0.61111335632E-02  0.94868972410E-02  0.10300694112E+01  0.10299761531E+01 0.  0.
     999903    2    3    3    0    0 -0.52254752038E-01 -0.11375855141E+00  0.44826924401E-01  0.13919676645E+00  0.41166971111E-01 0.  0.
         14    1    1    2    0    0 -0.80479034113E-02 -0.61111335632E-02 -0.94868972410E-02  0.13860588804E-01  0.00000000000E+00 0.  1.
     999901    1    3    3    0    0  0.60302655450E-01  0.11986968497E+00 -0.35340027160E-01  0.89087264474E+00  0.88000000000E+00 0.  1.
        -11    1    4    4    0    0 -0.25595994356E-01 -0.90278793660E-01  0.20256361557E-01  0.95999983419E-01  0.51100000000E-03 0.  1.
         11    1    4    4    0    0 -0.26658757682E-01 -0.23479757749E-01  0.24570562843E-01  0.43196783035E-01  0.51100000000E-03 0. -1.
</event>
<event>
 8    1  0.2929965E+004  0.1043930E+01  0.7957747E-01            NaN
         13   -1    0    0    0    0  0.00000000000E+00  0.00000000000E+00  0.74505805969E-08  0.10566000000E+00  0.10566000000E+00 0.  1.
     999900   -1    0    0    0    0 -0.00000000000E+00 -0.00000000000E+00 -0.74505805969E-08  0.93827000000E+00  0.93827000000E+00 0. -1.
     999902    2    1    2    0    0  0.14958883157E-01  0.84264345340E-02  0.33308344047E-02  0.10264409336E+01  0.10262919287E+01 0.  0.
     999903    2    3    3    0    0 -0.27624351576E-01 -0.34316972072E-02 -0.12521121605E+00  0.13600452047E+00  0.45216143333E-01 0.  0.
         14    1    1    2    0    0 -0.14958883157E-01 -0.84264345340E-02 -0.33308344047E-02  0.17489066358E-01  0.00000000000E+00 0. -1.
     999901    1    3    3    0    0  0.42583234732E-01  0.11858131741E-01  0.12854205045E+00  0.89043641317E+00  0.88000000000E+00 0.  1.
        -11    1    4    4    0    0  0.96191009957E-02  0.64597086683E-02 -0.13315931510E-01  0.17658711534E-01  0.51100000000E-03 0. -1.
         11    1    4    4    0    0 -0.37243452571E-01 -0.98914058755E-02 -0.11189528454E+00  0.11834580894E+00  0.51100000000E-03 0.  1.
</event>
<event>
 8    1  0.2929965E+004  0.1043930E+01  0.7957747E-01            NaN
         13   -1    0    0    0    0  0.00000000000E+00  0.00000000000E+00  0.74505805969E-08  0.10566000000E+00  0.10566000000E+00 0. -1.
     999900   -1    0    0    0    0 -0.00000000000E+00 -0.00000000000E+00 -0.74505805969E-08  0.93827000000E+00  0.93827000000E+00 0.  1.
     999902    2    1    2    0    0 -0.29950419542E-02  0.84095462789E-02 -0.11153685583E-01  0.10296438022E+01  0.10295446877E+01 0.  0.
     999903    2    3    3    0    0 -0.69885932736E-01  0.97641090986E-01  0.56293779514E-01  0.14004511720E+00  0.45009099040E-01 0.  0.
         14    1    1    2    0    0  0.29950419542E-02 -0.84095462789E-02  0.11153685583E-01  0.14286197780E-01  0.00000000000E+00 0. -1.
     999901    1    3    3    0    0  0.66890890782E-01 -0.89231544707E-01 -0.67447465097E-01  0.88959868502E+00  0.88000000000E+00 0.  1.
        -11    1    4    4    0    0 -0.73372662177E-02  0.35507847049E-01  0.16084869433E-02  0.36297259247E-01  0.51100000000E-03 0.  1.
         11    1    4    4    0    0 -0.62548666518E-01  0.62133243937E-01  0.54685292571E-01  0.10374785795E+00  0.51100000000E-03 0. -1.
</event>
<event>
 8    1  0.2929965E+004  0.1043930E+01  0.7957747E-01            NaN
         13   -1    0    0    0    0  0.00000000000E+00  0.00000000000E+00  0.74505805969E-08  0.10566000000E+00  0.10566000000E+00 0.  1.
     999900   -1    0    0    0    0 -0.00000000000E+00 -0.00000000000E+00 -0.74505805969E-08  0.93827000000E+00  0.93827000000E+00 0.  1.
     999902    2    1    2    0    0  0.12052172447E-01  0.61976384424E-02  0.36446430831E-02  0.10298961479E+01  0.10298005275E+01 0.  0.
     999903    2    3    3    0    0  0.56665058092E-01  0.26556042502E-01  0.11858372337E+00  0.14106783689E+00  0.43839285512E-01 0.  0.
         14    1    1    2    0    0 -0.12052172447E-01 -0.61976384424E-02 -0.36446430831E-02  0.14033852150E-01  0.00000000000E+00 0.  1.
     999901    1    3    3    0    0 -0.44612885645E-01 -0.20358404059E-01 -0.11493908029E+00  0.88882831096E+00  0.88000000000E+00 0.  1.
        -11    1    4    4    0    0  0.32208832687E-01 -0.85511140070E-02  0.45889363754E-01  0.56715300234E-01  0.51100000000E-03 0.  1.
         11    1    4    4    0    0  0.24456225405E-01  0.35107156509E-01  0.72694359620E-01  0.84352536659E-01  0.51100000000E-03 0. -1.
</event>
<event>
 8    1  0.2929965E+004  0.1043930E+01  0.7957747E-01            NaN
         13   -1    0    0    0    0  0.00000000000E+00  0.00000000000E+00  0.74505805969E-08  0.10566000000E+00  0.10566000000E+00 0. -1.
     999900   -1    0    0    0    0 -0.00000000000E+00 -0.00000000000E+00 -0.74505805969E-08  0.93827000000E+00  0.93827000000E+00 0.  1.
     999902    2    1    2    0    0  0.47845905833E-02 -0.12428844047E-01  0.35619116363E-02  0.10301439315E+01  0.10300516802E+01 0.  0.
     999903    2    3    3    0    0  0.95518316540E-01 -0.31929184905E-01 -0.87180401463E-01  0.14062325170E+00  0.45069445053E-01 0.  0.
         14    1    1    2    0    0 -0.47845905833E-02  0.12428844047E-01 -0.35619116363E-02  0.13786068544E-01  0.00000000000E+00 0.  1.
     999901    1    3    3    0    0 -0.90733725956E-01  0.19500340857E-01  0.90742313099E-01  0.88952067975E+00  0.88000000000E+00 0. -1.
        -11    1    4    4    0    0  0.33676608053E-01  0.23662726685E-02 -0.84667525103E-02  0.34808909713E-01  0.51100000000E-03 0. -1.
         11    1    4    4    0    0  0.61841708486E-01 -0.34295457573E-01 -0.78713648952E-01  0.10581434199E+00  0.51100000000E-03 0.  1.
</event>
<event>
 8    1  0.2929965E+004  0.1043930E+01  0.7957747E-01            NaN
         13   -1    0    0    0    0  0.00000000000E+00  0.00000000000E+00  0.74505805969E-08  0.10566000000E+00  0.10566000000E+00 0.  1.
     999900   -1    0    0    0    0 -0.00000000000E+00 -0.00000000000E+00 -0.74505805969E-08  0.93827000000E+00  0.93827000000E+00 0. -1.
     999902    2    1    2    0    0  0.96630707569E-02 -0.24118424141E-02  0.98413204042E-02  0.10299284462E+01  0.10298332685E+01 0.  0.
     999903    2    3    3    0    0 -0.56077828502E-01 -0.36937693031E-01 -0.11296893952E+00  0.13830281845E+00  0.43087959804E-01 0.  0.
         14    1    1    2    0    0 -0.96630707569E-02  0.24118424141E-02 -0.98413204042E-02  0.14001553756E-01  0.00000000000E+00 0. -1.
     999901    1    3    3    0    0  0.65740899259E-01  0.34525850617E-01  0.12281025992E+00  0.89162562779E+00  0.88000000000E+00 0.  1.
        -11    1    4    4    0    0 -0.35364168870E-01  0.10811825845E-02 -0.39559575308E-01  0.53075554780E-01  0.51100000000E-03 0.  1.
         11    1    4    4    0    0 -0.20713659633E-01 -0.38018875615E-01 -0.73409364208E-01  0.85227263671E-01  0.51100000000E-03 0. -1.
</event>
<event>
 8    1  0.2929965E+004  0.1043930E+01  0.7957747E-01            NaN
         13   -1    0    0    0    0  0.00000000000E+00  0.00000000000E+00  0.74505805969E-08  0.10566000000E+00  0.10566000000E+00 0.  1.
     999900   -1    0    0    0    0 -0.00000000000E+00 -0.00000000000E+00 -0.74505805969E-08  0.93827000000E+00  0.93827000000E+00 0.  1.
     999902    2    1    2    0    0  0.66362474351E-02 -0.11166111971E-01 -0.52148509518E-02  0.10299329822E+01  0.10298378665E+01 0.  0.
     999903    2    3    3    0    0  0.73891894511E-01  0.91162648100E-01 -0.61031985149E-01  0.13970264703E+00  0.44958713208E-01 0.  0.
         14    1    1    2    0    0 -0.66362474351E-02  0.11166111971E-01  0.52148509518E-02  0.13997017790E-01  0.00000000000E+00 0. -1.
     999901    1    3    3    0    0 -0.67255647076E-01 -0.10232876007E+00  0.55817134197E-01  0.89023033518E+00  0.88000000000E+00 0. -1.
        -11    1    4    4    0    0  0.73512321245E-01  0.61514827109E-01 -0.49521574294E-01  0.10789245928E+00  0.51100000000E-03 0.  1.
         11    1    4    4    0    0  0.37957326630E-03  0.29647820992E-01 -0.11510410855E-01  0.31810187747E-01  0.51100000000E-03 0. -1.
</event>
<event>
 8    1  0.2929965E+004  0.1043930E+01  0.7957747E-01            NaN
         13   -1    0    0    0    0  0.00000000000E+00  0.00000000000E+00  0.74505805969E-08  0.10566000000E+00  0.10566000000E+00 0. -1.
     999900   -1    0    0    0    0 -0.00000000000E+00 -0.00000000000E+00 -0.74505805969E-08  0.93827000000E+00  0.93827000000E+00 0.  1.
     999902    2    1    2    0    0  0.27702322708E-02  0.14890930804E-01  0.42305754105E-02  0.10282038506E+01  0.10280835796E+01 0.  0.
     999903    2    3    3    0    0 -0.38005176673E-01  0.74914869792E-01 -0.10111984469E+00  0.13895460643E+00  0.45016979977E-01 0.  0.
         14    1    1    2    0    0 -0.27702322708E-02 -0.14890930804E-01 -0.42305754105E-02  0.15726149412E-01  0.00000000000E+00 0.  1.
     999901    1    3    3    0    0  0.40775408943E-01 -0.60023938988E-01  0.10535042010E+00  0.88924924416E+00  0.88000000000E+00 0. -1.
        -11    1    4    4    0    0  0.62202243461E-02  0.14787982092E-01 -0.41403723819E-02  0.16576471571E-01  0.51100000000E-03 0. -1.
         11    1    4    4    0    0 -0.44225401019E-01  0.60126887700E-01 -0.96979472312E-01  0.12237813486E+00  0.51100000000E-03 0.  1.
</event>
<event>
 8    1  0.2929965E+004  0.1043930E+01  0.7957747E-01            NaN
         13   -1    0    0    0    0  0.00000000000E+00  0.00000000000E+00  0.74505805969E-08  0.10566000000E+00  0.10566000000E+00 0.  1.
     999900   -1    0    0    0    0 -0.00000000000E+00 -0.00000000000E+00 -0.74505805969E-08  0.93827000000E+00  0.93827000000E+00 0.  1.
     999902    2    1    2    0    0  0.73046448242E-02  0.11967509214E-01  0.84605712406E-02  0.10275543969E+01  0.10274239038E+01 0.  0.
     999903    2    3    3    0    0 -0.11705024080E-01  0.10147573185E-01 -0.12841186166E+00  0.13676893302E+00  0.44453953642E-01 0.  0.
         14    1    1    2    0    0 -0.73046448242E-02 -0.11967509214E-01 -0.84605712406E-02  0.16375603149E-01  0.00000000000E+00 0. -1.
     999901    1    3    3    0    0  0.19009668904E-01  0.18199360285E-02  0.13687243290E+00  0.89078546383E+00  0.88000000000E+00 0. -1.
        -11    1    4    4    0    0 -0.24668209574E-01  0.19068298128E-01 -0.80069625355E-01  0.85927449529E-01  0.51100000000E-03 0.  1.
         11    1    4    4    0    0  0.12963185494E-01 -0.89207249424E-02 -0.48342236307E-01  0.50841483494E-01  0.51100000000E-03 0. -1.
</event>
<event>
 8    1  0.2929965E+004  0.1043930E+01  0.7957747E-01            NaN
         13   -1    0    0    0    0  0.00000000000E+00  0.00000000000E+00  0.74505805969E-08  0.10566000000E+00  0.10566000000E+00 0.  1.
     999900   -1    0    0    0    0 -0.00000000000E+00 -0.00000000000E+00 -0.74505805969E-08  0.93827000000E+00  0.93827000000E+00 0. -1.
     999902    2    1    2    0    0  0.71234955844E-03  0.41374254094E-02  0.12847577259E-01  0.10304138625E+01  0.10303252118E+01 0.  0.
     999903    2    3    3    0    0  0.33813251417E-01 -0.96282692047E-01 -0.82453094008E-01  0.13897564950E+00  0.45847853633E-01 0.  0.
         14    1    1    2    0    0 -0.71234955844E-03 -0.41374254094E-02 -0.12847577259E-01  0.13516137479E-01  0.00000000000E+00 0. -1.
     999901    1    3    3    0    0 -0.33100901859E-01  0.10042011746E+00  0.95300671267E-01  0.89143821302E+00  0.88000000000E+00 0.  1.
        -11    1    4    4    0    0  0.13789235589E-01 -0.54024091200E-03 -0.13398911742E-01  0.19241279459E-01  0.51100000000E-03 0. -1.
         11    1    4    4    0    0  0.20024015829E-01 -0.95742451135E-01 -0.69054182266E-01  0.11973437004E+00  0.51100000000E-03 0.  1.
</event>
<event>
 8    1  0.2929965E+004  0.1043930E+01  0.7957747E-01            NaN
         13   -1    0    0    0    0  0.00000000000E+00  0.00000000000E+00  0.74505805969E-08  0.10566000000E+00  0.10566000000E+00 0.  1.
     999900   -1    0    0    0    0 -0.00000000000E+00 -0.00000000000E+00 -0.74505805969E-08  0.93827000000E+00  0.93827000000E+00 0. -1.
     999902    2    1    2    0    0 -0.12611454886E-01 -0.58182901086E-02 -0.63777618595E-02  0.10286467693E+01  0.10285332269E+01 0.  0.
     999903    2    3    3    0    0 -0.87151412632E-01  0.80117988138E-01 -0.60285667257E-01  0.13968821488E+00  0.43176092378E-01 0.  0.
         14    1    1    2    0    0  0.12611454886E-01  0.58182901086E-02  0.63777618595E-02  0.15283230695E-01  0.00000000000E+00 0.  1.
     999901    1    3    3    0    0  0.74539957745E-01 -0.85936278246E-01  0.53907905397E-01  0.88895855442E+00  0.88000000000E+00 0.  1.
        -11    1    4    4    0    0 -0.22997410521E-01  0.46601525007E-01 -0.14184695998E-01  0.53870676117E-01  0.51100000000E-03 0. -1.
         11    1    4    4    0    0 -0.64154002110E-01  0.33516463130E-01 -0.46100971259E-01  0.85817538764E-01  0.51100000000E-03 0.  1.
</event>
<event>
 8    1  0.2929965E+004  0.1043930E+01  0.7957747E-01            NaN
         13   -1    0    0    0    0  0.00000000000E+00  0.00000000000E+00  0.74505805969E-08  0.10566000000E+00  0.10566000000E+00 0. -1.
     999900   -1    0    0    0    0 -0.00000000000E+00 -0.00000000000E+00 -0.74505805969E-08  0.93827000000E+00  0.93827000000E+00 0. -1.
     999902    2    1    2    0    0 -0.12285190558E-01 -0.41027556279E-02  0.43978153089E-02  0.10302515757E+01  0.10301607690E+01 0.  0.
     999903    2    3    3    0    0 -0.54375147236E-01  0.11601140562E+00 -0.36718219484E-01  0.14014511890E+00  0.43325787239E-01 0.  0.
         14    1    1    2    0    0  0.12285190558E-01  0.41027556279E-02 -0.43978153089E-02  0.13678424262E-01  0.00000000000E+00 0.  1.
     999901    1    3    3    0    0  0.42089956678E-01 -0.12011416124E+00  0.41116034793E-01  0.89010645684E+00  0.88000000000E+00 0.  1.
        -11    1    4    4    0    0 -0.21237408367E-01  0.17521991266E-01  0.53226274557E-02  0.28047088550E-01  0.51100000000E-03 0. -1.
         11    1    4    4    0    0 -0.33137738869E-01  0.98489414350E-01 -0.42040846940E-01  0.11209803035E+00  0.51100000000E-03 0.  1.
</event>
<event>
 7    1  0.2929965E+004  0.1043930E+01  0.7957747E-01            NaN
         13   -1    0    0    0    0  0.00000000000E+00  0.00000000000E+00  0.74505805969E-08  0.10566000000E+00  0.10566000000E+00 0.  1.
     999900   -1    0    0    0    0 -0.00000000000E+00 -0.00000000000E+00 -0.74505805969E-08  0.93827000000E+00  0.93827000000E+00 0.  1.
     999903    2    1    2    0    0  0.60678940495E-01 -0.67551818929E-01 -0.66164611011E-01  0.12129326872E+00  0.45706883787E-01 0.  0.
         14    1    1    2    0    0  0.14795334162E-01  0.24818985062E-01 -0.18530956078E-01  0.34326087246E-01  0.00000000000E+00 0. -1.
     999901    1    1    2    0    0 -0.75474274656E-01  0.42732833867E-01  0.84695567090E-01  0.88831064404E+00  0.88000000000E+00 0. -1.
        -11    1    3    3    0    0  0.70057064536E-02 -0.31369330404E-01 -0.55691464817E-02  0.32625010750E-01  0.51100000000E-03 0.  1.
         11    1    3    3    0    0  0.53673234041E-01 -0.36182488525E-01 -0.60595464529E-01  0.88668257967E-01  0.51100000000E-03 0. -1.
</event>
<event>
 8    1  0.2929965E+004  0.1043930E+01  0.7957747E-01            NaN
         13   -1    0    0    0    0  0.00000000000E+00  0.00000000000E+00  0.74505805969E-08  0.10566000000E+00  0.10566000000E+00 0.  1.
     999900   -1    0    0    0    0 -0.00000000000E+00 -0.00000000000E+00 -0.74505805969E-08  0.93827000000E+00  0.93827000000E+00 0.  1.
     999902    2    1    2    0    0 -0.37119265755E-02  0.10873208711E-01  0.11513999570E-01  0.10276641692E+01  0.10275354336E+01 0.  0.
     999903    2    3    3    0    0  0.25460520848E-01 -0.10219821777E+00 -0.72950929664E-01  0.13594083570E+00  0.45446219168E-01 0.  0.
         14    1    1    2    0    0  0.37119265755E-02 -0.10873208711E-01 -0.11513999570E-01  0.16265830832E-01  0.00000000000E+00 0. -1.
     999901    1    3    3    0    0 -0.29172447423E-01  0.11307142648E+00  0.84464929234E-01  0.89172333346E+00  0.88000000000E+00 0. -1.
        -11    1    4    4    0    0 -0.34789395898E-03 -0.50537625959E-01 -0.11941270794E-01  0.51932915737E-01  0.51100000000E-03 0.  1.
         11    1    4    4    0    0  0.25808414807E-01 -0.51660591806E-01 -0.61009658870E-01  0.84007919966E-01  0.51100000000E-03 0. -1.
</event>
<event>
 8    1  0.2929965E+004  0.1043930E+01  0.7957747E-01            NaN
         13   -1    0    0    0    0  0.00000000000E+00  0.00000000000E+00  0.74505805969E-08  0.10566000000E+00  0.10566000000E+00 0. -1.
     999900   -1    0    0    0    0 -0.00000000000E+00 -0.00000000000E+00 -0.74505805969E-08  0.93827000000E+00  0.93827000000E+00 0.  1.
     999902    2    1    2    0    0  0.93180098527E-02  0.99404782813E-02  0.17308960395E-02  0.10301955755E+01  0.10301040187E+01 0.  0.
     999903    2    3    3    0    0  0.63677070909E-01 -0.63348567995E-01 -0.10052867650E+00  0.13958723731E+00  0.36204579748E-01 0.  0.
         14    1    1    2    0    0 -0.93180098527E-02 -0.99404782813E-02 -0.17308960395E-02  0.13734424530E-01  0.00000000000E+00 0. -1.
     999901    1    3    3    0    0 -0.54359061056E-01  0.73289046276E-01  0.10225957254E+00  0.89060833816E+00  0.88000000000E+00 0.  1.
        -11    1    4    4    0    0  0.26734493180E-01 -0.77639418883E-02 -0.44260482974E-01  0.52290184484E-01  0.51100000000E-03 0. -1.
         11    1    4    4    0    0  0.36942577729E-01 -0.55584626107E-01 -0.56268193525E-01  0.87297052827E-01  0.51100000000E-03 0.  1.
</event>
<event>
 8    1  0.2929965E+004  0.1043930E+01  0.7957747E-01            NaN
         13   -1    0    0    0    0  0.00000000000E+00  0.00000000000E+00  0.74505805969E-08  0.10566000000E+00  0.10566000000E+00 0.  1.
     999900   -1    0    0    0    0 -0.00000000000E+00 -0.00000000000E+00 -0.74505805969E-08  0.93827000000E+00  0.93827000000E+00 0. -1.
     999902    2    1    2    0    0  0.89179877044E-02 -0.71972311682E-02 -0.84835437387E-02  0.10296716286E+01  0.10295729025E+01 0.  0.
     999903    2    3    3    0    0  0.25052637927E-01  0.85586266831E-01  0.95970802965E-01  0.13850395918E+00  0.44947835872E-01 0.  0.
         14    1    1    2    0    0 -0.89179877044E-02  0.71972311682E-02  0.84835437387E-02  0.14258371420E-01  0.00000000000E+00 0.  1.
     999901    1    3    3    0    0 -0.16134650223E-01 -0.92783497999E-01 -0.10445434670E+00  0.89116766940E+00  0.88000000000E+00 0. -1.
        -11    1    4    4    0    0  0.66673276396E-02  0.17622347208E-01  0.52442037546E-01  0.55726374383E-01  0.51100000000E-03 0.  1.
         11    1    4    4    0    0  0.18385310287E-01  0.67963919622E-01  0.43528765420E-01  0.82777584797E-01  0.51100000000E-03 0. -1.
</event>
<event>
 8    1  0.2929965E+004  0.1043930E+01  0.7957747E-01            NaN
         13   -1    0    0    0    0  0.00000000000E+00  0.00000000000E+00  0.74505805969E-08  0.10566000000E+00  0.10566000000E+00 0.  1.
     999900   -1    0    0    0    0 -0.00000000000E+00 -0.00000000000E+00 -0.74505805969E-08  0.93827000000E+00  0.93827000000E+00 0. -1.
     999902    2    1    2    0    0 -0.67718316136E-02 -0.10455467521E-01 -0.66547510081E-02  0.10298069615E+01  0.10297101135E+01 0.  0.
     999903    2    3    3    0    0 -0.77846269716E-01 -0.18030503953E-01 -0.10714394570E+00  0.14120860728E+00  0.45551123911E-01 0.  0.
         14    1    1    2    0    0  0.67718316136E-02  0.10455467521E-01  0.66547510081E-02  0.14123038464E-01  0.00000000000E+00 0. -1.
     999901    1    3    3    0    0  0.71074438102E-01  0.75750364317E-02  0.10048919469E+00  0.88859835425E+00  0.88000000000E+00 0.  1.
        -11    1    4    4    0    0 -0.43486044132E-01 -0.86843785829E-02 -0.23258202293E-01  0.50076537026E-01  0.51100000000E-03 0. -1.
         11    1    4    4    0    0 -0.34360225584E-01 -0.93461253697E-02 -0.83885743407E-01  0.91132070259E-01  0.51100000000E-03 0.  1.
</event>
<event>
 8    1  0.2929965E+004  0.1043930E+01  0.7957747E-01            NaN
         13   -1    0    0    0    0  0.00000000000E+00  0.00000000000E+00  0.74505805969E-08  0.10566000000E+00  0.10566000000E+00 0. -1.
     999900   -1    0    0    0    0 -0.00000000000E+00 -0.00000000000E+00 -0.74505805969E-08  0.93827000000E+00  0.93827000000E+00 0.  1.
     999902    2    1    2    0    0 -0.42911527502E-02  0.64834781496E-03  0.13626300171E-01  0.10296292866E+01  0.10295299692E+01 0.  0.
     999903    2    3    3    0    0 -0.26692122819E-01  0.12666851392E+00 -0.24559140965E-01  0.13955006900E+00  0.45974868294E-01 0.  0.
         14    1    1    2    0    0  0.42911527502E-02 -0.64834781496E-03 -0.13626300171E-01  0.14300713379E-01  0.00000000000E+00 0.  1.
     999901    1    3    3    0    0  0.22400970069E-01 -0.12602016610E+00  0.38185441135E-01  0.89007921762E+00  0.88000000000E+00 0. -1.
        -11    1    4    4    0    0  0.91169777495E-02  0.68164143352E-01 -0.12806399243E-01  0.69955233576E-01  0.51100000000E-03 0. -1.
         11    1    4    4    0    0 -0.35809100568E-01  0.58504370565E-01 -0.11752741722E-01  0.69594835424E-01  0.51100000000E-03 0.  1.
</event>
<event>
 8    1  0.2929965E+004  0.1043930E+01  0.7957747E-01            NaN
         13   -1    0    0    0    0  0.00000000000E+00  0.00000000000E+00  0.74505805969E-08  0.10566000000E+00  0.10566000000E+00 0.  1.
     999900   -1    0    0    0    0 -0.00000000000E+00 -0.00000000000E+00 -0.74505805969E-08  0.93827000000E+00  0.93827000000E+00 0. -1.
     999902    2    1    2    0    0  0.92596477517E-02  0.10706035180E-01  0.20429451138E-02  0.10296284654E+01  0.10295291365E+01 0.  0.
     999903    2    3    3    0    0 -0.97420592897E-01 -0.59309330751E-03  0.88686862509E-01  0.13888972010E+00  0.43975801154E-01 0.  0.
         14    1    1    2    0    0 -0.92596477517E-02 -0.10706035180E-01 -0.20429451138E-02  0.14301534550E-01  0.00000000000E+00 0.  1.
     999901    1    3    3    0    0  0.10668024065E+00  0.11299128487E-01 -0.86643917395E-01  0.89073874535E+00  0.88000000000E+00 0.  1.
        -11    1    4    4    0    0 -0.79552322474E-01 -0.18390149473E-01  0.66886818950E-01  0.10555035423E+00  0.51100000000E-03 0. -1.
         11    1    4    4    0    0 -0.17868270423E-01  0.17797056165E-01  0.21800043559E-01  0.33339365864E-01  0.51100000000E-03 0.  1.
</event>
<event>
 8    1  0.2929965E+004  0.1043930E+01  0.7957747E-01            NaN
         13   -1    0    0    0    0  0.00000000000E+00  0.00000000000E+00  0.74505805969E-08  0.10566000000E+00  0.10566000000E+00 0. -1.
     999900   -1    0    0    0    0 -0.00000000000E+00 -0.00000000000E+00 -0.74505805969E-08  0.93827000000E+00  0.93827000000E+00 0. -1.
     999902    2    1    2    0    0 -0.16389125893E-02 -0.58498912022E-02  0.12696597107E-01  0.10298548148E+01  0.10297586264E+01 0.  0.
     999903    2    3    3    0    0 -0.21515536313E-01 -0.11379063036E+00 -0.64287734144E-01  0.13970152987E+00  0.44411471767E-01 0.  0.
         14    1    1    2    0    0  0.16389125893E-02  0.58498912022E-02 -0.12696597107E-01  0.14075185243E-01  0.00000000000E+00 0.  1.
     999901    1    3    3    0    0  0.19876623724E-01  0.10794073916E+00  0.76984331250E-01  0.89015328489E+00  0.88000000000E+00 0.  1.
        -11    1    4    4    0    0 -0.24275656662E-01 -0.10146887547E+00 -0.38913069445E-01  0.11135406724E+00  0.51100000000E-03 0. -1.
         11    1    4    4    0    0  0.27601203489E-02 -0.12321754893E-01 -0.25374664699E-01  0.28347462630E-01  0.51100000000E-03 0.  1.
</event>
<event>
 8    1  0.2929965E+004  0.1043930E+01  0.7957747E-01            NaN
         13   -1    0    0    0    0  0.00000000000E+00  0.00000000000E+00  0.74505805969E-08  0.10566000000E+00  0.10566000000E+00 0.  1.
     999900   -1    0    0    0    0 -0.00000000000E+00 -0.00000000000E+00 -0.74505805969E-08  0.93827000000E+00  0.93827000000E+00 0.  1.
     999902    2    1    2    0    0 -0.87904102268E-02  0.79309610044E-02 -0.71700700114E-02  0.10300887082E+01  0.10299957114E+01 0.  0.
     999903    2    3    3    0    0 -0.10532602213E-01 -0.23750048479E-01 -0.13120183349E+00  0.14082463048E+00  0.44075559271E-01 0.  0.
         14    1    1    2    0    0  0.87904102268E-02 -0.79309610044E-02  0.71700700114E-02  0.13841291789E-01  0.00000000000E+00 0.  1.
     999901    1    3    3    0    0  0.17421919857E-02  0.31681009483E-01  0.12403176348E+00  0.88926407773E+00  0.88000000000E+00 0. -1.
        -11    1    4    4    0    0 -0.14405312502E-01 -0.34692104424E-01 -0.80880203052E-01  0.89179165192E-01  0.51100000000E-03 0.  1.
         11    1    4    4    0    0  0.38727102894E-02  0.10942055945E-01 -0.50321630442E-01  0.51645465286E-01  0.51100000000E-03 0. -1.
</event>
<event>
 8    1  0.2929965E+004  0.1043930E+01  0.7957747E-01            NaN
         13   -1    0    0    0    0  0.00000000000E+00  0.00000000000E+00  0.74505805969E-08  0.10566000000E+00  0.10566000000E+00 0. -1.
     999900   -1    0    0    0    0 -0.00000000000E+00 -0.00000000000E+00 -0.74505805969E-08  0.93827000000E+00  0.93827000000E+00 0.  1.
     999902    2    1    2    0    0 -0.12090696587E-01 -0.49457688449E-03 -0.78081625156E-02  0.10295287170E+01  0.10294279879E+01 0.  0.
     999903    2    3    3    0    0 -0.13360253621E-01 -0.76429522280E-01 -0.10715945070E+00  0.14068767037E+00  0.47852946264E-01 0.  0.
         14    1    1    2    0    0  0.12090696587E-01  0.49457688449E-03  0.78081625156E-02  0.14401283002E-01  0.00000000000E+00 0. -1.
     999901    1    3    3    0    0  0.12695570349E-02  0.75934945395E-01  0.99351288188E-01  0.88884104663E+00  0.88000000000E+00 0. -1.
        -11    1    4    4    0    0  0.35180657374E-03 -0.20626982680E-01 -0.68218635348E-01  0.71271589796E-01  0.51100000000E-03 0. -1.
         11    1    4    4    0    0 -0.13712060195E-01 -0.55802539600E-01 -0.38940815355E-01  0.69416080573E-01  0.51100000000E-03 0.  1.
</event>
<event>
 8    1  0.2929965E+004  0.1043930E+01  0.7957747E-01            NaN
         13   -1    0    0    0    0  0.00000000000E+00  0.00000000000E+00  0.74505805969E-08  0.10566000000E+00  0.10566000000E+00 0.  1.
     999900   -1    0    0    0    0 -0.00000000000E+00 -0.00000000000E+00 -0.74505805969E-08  0.93827000000E+00  0.93827000000E+00 0.  1.
     999902    2    1    2    0    0  0.86909973261E-03 -0.11614773966E-01  0.16455495870E-02  0.10321670862E+01  0.10321000570E+01 0.  0.
     999903    2    3    3    0    0 -0.10103336579E+00  0.13955582993E-01 -0.87063091520E-01  0.14148915411E+00  0.45129807498E-01 0.  0.
         14    1    1    2    0    0 -0.86909973261E-03  0.11614773966E-01 -0.16455495870E-02  0.11762913843E-01  0.00000000000E+00 0. -1.
     999901    1    3    3    0    0  0.10190246552E+00 -0.25570356958E-01  0.88708641107E-01  0.89067793205E+00  0.88000000000E+00 0. -1.
        -11    1    4    4    0    0 -0.90836418309E-01 -0.39263667426E-02 -0.70015379049E-01  0.11475663672E+00  0.51100000000E-03 0.  1.
         11    1    4    4    0    0 -0.10196947483E-01  0.17881949735E-01 -0.17047712472E-01  0.26732517386E-01  0.51100000000E-03 0. -1.
</event>
<event>
 8    1  0.2929965E+004  0.1043930E+01  0.7957747E-01            NaN
         13   -1    0    0    0    0  0.00000000000E+00  0.00000000000E+00  0.74505805969E-08  0.10566000000E+00  0.10566000000E+00 0. -1.
     999900   -1    0    0    0    0 -0.00000000000E+00 -0.00000000000E+00 -0.74505805969E-08  0.93827000000E+00  0.93827000000E+00 0.  1.
     999902    2    1    2    0    0 -0.10400232294E-01 -0.40767205172E-02 -0.81009694686E-02  0.10301310802E+01  0.10300386557E+01 0.  0.
     999903    2    3    3    0    0  0.90698216780E-01 -0.12519294289E-01  0.93455979875E-01  0.13849999760E+00  0.45445900856E-01 0.  0.
         14    1    1    2    0    0  0.10400232294E-01  0.40767205172E-02  0.81009694686E-02  0.13798919823E-01  0.00000000000E+00 0. -1.
     999901    1    3    3    0    0 -0.10109844907E+00  0.84425737714E-02 -0.10155694934E+00  0.89163108258E+00  0.88000000000E+00 0.  1.
        -11    1    4    4    0    0  0.67688607124E-01 -0.16138220778E-01  0.40185335194E-01  0.80357401588E-01  0.51100000000E-03 0. -1.
         11    1    4    4    0    0  0.23009609655E-01  0.36189264894E-02  0.53270644681E-01  0.58142596013E-01  0.51100000000E-03 0.  1.
</event>
<event>
 8    1  0.2929965E+004  0.1043930E+01  0.7957747E-01            NaN
         13   -1    0    0    0    0  0.00000000000E+00  0.00000000000E+00  0.74505805969E-08  0.10566000000E+00  0.10566000000E+00 0.  1.
     999900   -1    0    0    0    0 -0.00000000000E+00 -0.00000000000E+00 -0.74505805969E-08  0.93827000000E+00  0.93827000000E+00 0. -1.
     999902    2    1    2    0    0  0.50771685613E-02  0.71944804063E-02  0.10552531732E-01  0.10301861245E+01  0.10300944408E+01 0.  0.
     999903    2    3    3    0    0 -0.10801274755E+00 -0.76392369330E-01  0.10449023189E-01  0.13902053867E+00  0.41412321373E-01 0.  0.
         14    1    1    2    0    0 -0.50771685613E-02 -0.71944804063E-02 -0.10552531732E-01  0.13743875541E-01  0.00000000000E+00 0. -1.
     999901    1    3    3    0    0  0.11308991611E+00  0.83586849736E-01  0.10350854373E-03  0.89116558579E+00  0.88000000000E+00 0.  1.
        -11    1    4    4    0    0 -0.65262577210E-01 -0.45203040825E-01  0.26537980179E-01  0.83708090391E-01  0.51100000000E-03 0. -1.
         11    1    4    4    0    0 -0.42750170344E-01 -0.31189328505E-01 -0.16088956990E-01  0.55312448283E-01  0.51100000000E-03 0.  1.
</event>
<event>
 8    1  0.2929965E+004  0.1043930E+01  0.7957747E-01            NaN
         13   -1    0    0    0    0  0.00000000000E+00  0.00000000000E+00  0.74505805969E-08  0.10566000000E+00  0.10566000000E+00 0.  1.
     999900   -1    0    0    0    0 -0.00000000000E+00 -0.00000000000E+00 -0.74505805969E-08  0.93827000000E+00  0.93827000000E+00 0. -1.
     999902    2    1    2    0    0 -0.14481405831E-01 -0.20688911396E-02  0.64715878063E-03  0.10292872462E+01  0.10291830862E+01 0.  0.
     999903    2    3    3    0    0 -0.80699030626E-01  0.10550739931E-01  0.10501389336E+00  0.14055981652E+00  0.45885646607E-01 0.  0.
         14    1    1    2    0    0  0.14481405831E-01  0.20688911396E-02 -0.64715878063E-03  0.14642753835E-01  0.00000000000E+00 0.  1.
     999901    1    3    3    0    0  0.66217624795E-01 -0.12619631070E-01 -0.10436673458E+00  0.88872742965E+00  0.88000000000E+00 0. -1.
        -11    1    4    4    0    0 -0.74432386421E-01  0.44394435601E-02  0.62929967660E-01  0.97572182297E-01  0.51100000000E-03 0.  1.
         11    1    4    4    0    0 -0.62666442050E-02  0.61112963706E-02  0.42083925696E-01  0.42987634221E-01  0.51100000000E-03 0. -1.
</event>
<event>
 8    1  0.2929965E+004  0.1043930E+01  0.7957747E-01            NaN
         13   -1    0    0    0    0  0.00000000000E+00  0.00000000000E+00  0.74505805969E-08  0.10566000000E+00  0.10566000000E+00 0.  1.
     999900   -1    0    0    0    0 -0.00000000000E+00 -0.00000000000E+00 -0.74505805969E-08  0.93827000000E+00  0.93827000000E+00 0. -1.
     999902    2    1    2    0    0 -0.68779091586E-02 -0.11643651222E-01 -0.17797814468E-02  0.10302900634E+01  0.10301997704E+01 0.  0.
     999903    2    3    3    0    0  0.96591995749E-02  0.12414823525E+00 -0.41615471269E-01  0.13883070114E+00  0.45122407712E-01 0.  0.
         14    1    1    2    0    0  0.68779091586E-02  0.11643651222E-01  0.17797814468E-02  0.13639936590E-01  0.00000000000E+00 0.  1.
     999901    1    3    3    0    0 -0.16537108734E-01 -0.13579188647E+00  0.39835689822E-01  0.89145936227E+00  0.88000000000E+00 0. -1.
        -11    1    4    4    0    0  0.23667860331E-01  0.35429877335E-01 -0.14418226497E-01  0.44984332794E-01  0.51100000000E-03 0.  1.
         11    1    4    4    0    0 -0.14008660756E-01  0.88718357915E-01 -0.27197244772E-01  0.93846368345E-01  0.51100000000E-03 0. -1.
</event>
<event>
 8    1  0.2929965E+004  0.1043930E+01  0.7957747E-01            NaN
         13   -1    0    0    0    0  0.00000000000E+00  0.00000000000E+00  0.74505805969E-08  0.10566000000E+00  0.10566000000E+00 0.  1.
     999900   -1    0    0    0    0 -0.00000000000E+00 -0.00000000000E+00 -0.74505805969E-08  0.93827000000E+00  0.93827000000E+00 0.  1.
     999902    2    1    2    0    0  0.64923103236E-02  0.93525982732E-02 -0.61975501992E-02  0.10309673299E+01  0.10308858348E+01 0.  0.
     999903    2    3    3    0    0  0.65511226874E-01  0.11590746082E+00 -0.22106916980E-01  0.14243467479E+00  0.45526481101E-01 0.  0.
         14    1    1    2    0    0 -0.64923103236E-02 -0.93525982732E-02  0.61975501992E-02  0.12962670106E-01  0.00000000000E+00 0.  1.
     999901    1    3    3    0    0 -0.59018916550E-01 -0.10655486255E+00  0.15909366781E-01  0.88853265511E+00  0.88000000000E+00 0. -1.
        -11    1    4    4    0    0  0.13814443551E-01  0.25611339450E-01  0.14003453840E-01  0.32297637677E-01  0.51100000000E-03 0. -1.
         11    1    4    4    0    0  0.51696783323E-01  0.90296121375E-01 -0.36110370820E-01  0.11013703711E+00  0.51100000000E-03 0.  1.
</event>
<event>
 8    1  0.2929965E+004  0.1043930E+01  0.7957747E-01            NaN
         13   -1    0    0    0    0  0.00000000000E+00  0.00000000000E+00  0.74505805969E-08  0.10566000000E+00  0.10566000000E+00 0. -1.
     999900   -1    0    0    0    0 -0.00000000000E+00 -0.00000000000E+00 -0.74505805969E-08  0.93827000000E+00  0.93827000000E+00 0. -1.
     999902    2    1    2    0    0  0.50115079070E-02  0.99420859633E-02  0.93663754132E-02  0.10293804545E+01  0.10292776258E+01 0.  0.
     999903    2    3    3    0    0 -0.69474040601E-01 -0.10124225811E+00 -0.43602034873E-01  0.13768784618E+00  0.44499083111E-01 0.  0.
         14    1    1    2    0    0 -0.50115079070E-02 -0.99420859633E-02 -0.93663754132E-02  0.14549545463E-01  0.00000000000E+00 0.  1.
     999901    1    3    3    0    0  0.74485548508E-01  0.11118434407E+00  0.52968410286E-01  0.89169260835E+00  0.88000000000E+00 0.  1.
        -11    1    4    4    0    0 -0.87773906011E-03  0.38464020955E-02 -0.49983249283E-02  0.63882398222E-02  0.51100000000E-03 0. -1.
         11    1    4    4    0    0 -0.68596301541E-01 -0.10508866020E+00 -0.38603709945E-01  0.13129960636E+00  0.51100000000E-03 0.  1.
</event>
<event>
 8    1  0.2929965E+004  0.1043930E+01  0.7957747E-01            NaN
         13   -1    0    0    0    0  0.00000000000E+00  0.00000000000E+00  0.74505805969E-08  0.10566000000E+00  0.10566000000E+00 0. -1.
     999900   -1    0    0    0    0 -0.00000000000E+00 -0.00000000000E+00 -0.74505805969E-08  0.93827000000E+00  0.93827000000E+00 0. -1.
     999902    2    1    2    0    0  0.93794114736E-02 -0.16195918756E-01 -0.30025897104E-03  0.10252117923E+01  0.10250409005E+01 0.  0.
     999903    2    3    3    0    0  0.75732539475E-01 -0.84395813998E-01 -0.64300461696E-01  0.13777165953E+00  0.44591589337E-01 0.  0.
         14    1    1    2    0    0 -0.93794114736E-02  0.16195918756E-01  0.30025897104E-03  0.18718207698E-01  0.00000000000E+00 0. -1.
     999901    1    3    3    0    0 -0.66353128001E-01  0.68199895242E-01  0.64000202725E-01  0.88744013277E+00  0.88000000000E+00 0.  1.
        -11    1    4    4    0    0  0.14589454203E-01 -0.45265073292E-01 -0.14444594976E-01  0.49706000433E-01  0.51100000000E-03 0.  1.
         11    1    4    4    0    0  0.61143085271E-01 -0.39130740707E-01 -0.49855866719E-01  0.88065659097E-01  0.51100000000E-03 0. -1.
</event>
<event>
 8    1  0.2929965E+004  0.1043930E+01  0.7957747E-01            NaN
         13   -1    0    0    0    0  0.00000000000E+00  0.00000000000E+00  0.74505805969E-08  0.10566000000E+00  0.10566000000E+00 0.  1.
     999900   -1    0    0    0    0 -0.00000000000E+00 -0.00000000000E+00 -0.74505805969E-08  0.93827000000E+00  0.93827000000E+00 0.  1.
     999902    2    1    2    0    0 -0.13626145455E-01 -0.21260582639E-02  0.94351448878E-03  0.10301067521E+01  0.10300139992E+01 0.  0.
     999903    2    3    3    0    0 -0.34566614655E-01  0.12014711821E+00 -0.45328489033E-01  0.14020207670E+00  0.44404611584E-01 0.  0.
         14    1    1    2    0    0  0.13626145455E-01  0.21260582639E-02 -0.94351448878E-03  0.13823247928E-01  0.00000000000E+00 0. -1.
     999901    1    3    3    0    0  0.20940469201E-01 -0.12227317648E+00  0.46272003522E-01  0.88990467537E+00  0.88000000000E+00 0. -1.
        -11    1    4    4    0    0  0.29978776183E-02  0.39652165294E-01 -0.30556257413E-01  0.50152043535E-01  0.51100000000E-03 0. -1.
         11    1    4    4    0    0 -0.37564492273E-01  0.80494952919E-01 -0.14772231620E-01  0.90050033166E-01  0.51100000000E-03 0.  1.
</event>
<event>
 8    1  0.2929965E+004  0.1043930E+01  0.7957747E-01            NaN
         13   -1    0    0    0    0  0.00000000000E+00  0.00000000000E+00  0.74505805969E-08  0.10566000000E+00  0.10566000000E+00 0.  1.
     999900   -1    0    0    0    0 -0.00000000000E+00 -0.00000000000E+00 -0.74505805969E-08  0.93827000000E+00  0.93827000000E+00 0.  1.
     999902    2    1    2    0    0 -0.78261320337E-02 -0.10892857741E-01  0.61774223382E-02  0.10291630355E+01  0.10290570881E+01 0.  0.
     999903    2    3    3    0    0 -0.65935529434E-02 -0.11838049923E+00  0.60857718284E-01  0.14093724945E+00  0.45850069460E-01 0.  0.
         14    1    1    2    0    0  0.78261320337E-02  0.10892857741E-01 -0.61774223382E-02  0.14766964452E-01  0.00000000000E+00 0.  1.
     999901    1    3    3    0    0 -0.12325790902E-02  0.10748764149E+00 -0.54680295945E-01  0.88822578610E+00  0.88000000000E+00 0. -1.
        -11    1    4    4    0    0  0.24021012142E-02 -0.11567884991E+00  0.62315306537E-01  0.13141851071E+00  0.51100000000E-03 0. -1.
         11    1    4    4    0    0 -0.89956541576E-02 -0.27016493234E-02 -0.14575882534E-02  0.95187387456E-02  0.51100000000E-03 0.  1.
</event>
<event>
 8    1  0.2929965E+004  0.1043930E+01  0.7957747E-01            NaN
         13   -1    0    0    0    0  0.00000000000E+00  0.00000000000E+00  0.74505805969E-08  0.10566000000E+00  0.10566000000E+00 0.  1.
     999900   -1    0    0    0    0 -0.00000000000E+00 -0.00000000000E+00 -0.74505805969E-08  0.93827000000E+00  0.93827000000E+00 0. -1.
     999902    2    1    2    0    0  0.12577871499E-01 -0.98695100743E-03  0.61991434181E-02  0.10298727491E+01  0.10297768074E+01 0.  0.
     999903    2    3    3    0    0 -0.10399762924E+00 -0.66405586849E-01  0.45179512769E-01  0.13892442597E+00  0.45095442189E-01 0.  0.
         14    1    1    2    0    0 -0.12577871499E-01  0.98695100743E-03 -0.61991434181E-02  0.14057250900E-01  0.00000000000E+00 0. -1.
     999901    1    3    3    0    0  0.11657550074E+00  0.65418635842E-01 -0.38980369351E-01  0.89094832313E+00  0.88000000000E+00 0. -1.
        -11    1    4    4    0    0 -0.18441980025E-01 -0.27844744930E-01  0.27856629269E-01  0.43493555415E-01  0.51100000000E-03 0. -1.
         11    1    4    4    0    0 -0.85555649213E-01 -0.38560841920E-01  0.17322883500E-01  0.95430870559E-01  0.51100000000E-03 0.  1.
</event>
<event>
 8    1  0.2929965E+004  0.1043930E+01  0.7957747E-01            NaN
         13   -1    0    0    0    0  0.00000000000E+00  0.00000000000E+00  0.74505805969E-08  0.10566000000E+00  0.10566000000E+00 0.  1.
     999900   -1    0    0    0    0 -0.00000000000E+00 -0.00000000000E+00 -0.74505805969E-08  0.93827000000E+00  0.93827000000E+00 0. -1.
     999902    2    1    2    0    0  0.89304878114E-02  0.83576372473E-02  0.10662216271E-02  0.10316523560E+01  0.10315792956E+01 0.  0.
     999903    2    3    3    0    0 -0.83578962580E-01 -0.99925679649E-01  0.25024228916E-01  0.13988037775E+00  0.44381568332E-01 0.  0.
         14    1    1    2    0    0 -0.89304878114E-02 -0.83576372473E-02 -0.10662216271E-02  0.12277643971E-01  0.00000000000E+00 0.  1.
     999901    1    3    3    0    0  0.92509450391E-01  0.10828331690E+00 -0.23958007289E-01  0.89177197828E+00  0.88000000000E+00 0. -1.
        -11    1    4    4    0    0 -0.16294585254E-01  0.88670185396E-03  0.46424895425E-02  0.16973908770E-01  0.51100000000E-03 0.  1.
         11    1    4    4    0    0 -0.67284377326E-01 -0.10081238150E+00  0.20381739374E-01  0.12290646898E+00  0.51100000000E-03 0. -1.
</event>
<event>
 8    1  0.2929965E+004  0.1043930E+01  0.7957747E-01            NaN
         13   -1    0    0    0    0  0.00000000000E+00  0.00000000000E+00  0.74505805969E-08  0.10566000000E+00  0.10566000000E+00 0.  1.
     999900   -1    0    0    0    0 -0.00000000000E+00 -0.00000000000E+00 -0.74505805969E-08  0.93827000000E+00  0.93827000000E+00 0. -1.
     999902    2    1    2    0    0 -0.85388951135E-02 -0.94903480912E-02  0.43207394113E-02  0.10304523064E+01  0.10303641626E+01 0.  0.
     999903    2    3    3    0    0 -0.10548743213E+00  0.95135592342E-02  0.86729495746E-01  0.14109783798E+00  0.34183158157E-01 0.  0.
         14    1    1    2    0    0  0.85388951135E-02  0.94903480912E-02 -0.43207394113E-02  0.13477693635E-01  0.00000000000E+00 0. -1.
     999901    1    3    3    0    0  0.96948537020E-01 -0.19003907325E-01 -0.82408756335E-01  0.88935446839E+00  0.88000000000E+00 0. -1.
        -11    1    4    4    0    0 -0.41441499449E-01  0.20489391351E-01  0.33418246458E-01  0.57046063421E-01  0.51100000000E-03 0. -1.
         11    1    4    4    0    0 -0.64045932684E-01 -0.10975832117E-01  0.53311249288E-01  0.84051774555E-01  0.51100000000E-03 0.  1.
</event>
<event>
 8    1  0.2929965E+004  0.1043930E+01  0.7957747E-01            NaN
         13   -1    0    0    0    0  0.00000000000E+00  0.00000000000E+00  0.74505805969E-08  0.10566000000E+00  0.10566000000E+00 0. -1.
     999900   -1    0    0    0    0 -0.00000000000E+00 -0.00000000000E+00 -0.74505805969E-08  0.93827000000E+00  0.93827000000E+00 0.  1.
     999902    2    1    2    0    0 -0.68204058375E-02 -0.40223211106E-03  0.11813981763E-01  0.10302826599E+01  0.10301922682E+01 0.  0.
     999903    2    3    3    0    0  0.49287049367E-01  0.12317211114E+00  0.29630517306E-02  0.13983501754E+00  0.44096147870E-01 0.  0.
         14    1    1    2    0    0  0.68204058375E-02  0.40223211106E-03 -0.11813981763E-01  0.13647340091E-01  0.00000000000E+00 0.  1.
     999901    1    3    3    0    0 -0.56107455204E-01 -0.12357434325E+00  0.88509300320E-02  0.89044764237E+00  0.88000000000E+00 0.  1.
        -11    1    4    4    0    0  0.22173682769E-01  0.12614985663E-01 -0.38114862990E-02  0.25799198042E-01  0.51100000000E-03 0. -1.
         11    1    4    4    0    0  0.27113366598E-01  0.11055712548E+00  0.67745380297E-02  0.11403581950E+00  0.51100000000E-03 0.  1.
</event>
<event>
 8    1  0.2929965E+004  0.1043930E+01  0.7957747E-01            NaN
         13   -1    0    0    0    0  0.00000000000E+00  0.00000000000E+00  0.74505805969E-08  0.10566000000E+00  0.10566000000E+00 0.  1.
     999900   -1    0    0    0    0 -0.00000000000E+00 -0.00000000000E+00 -0.74505805969E-08  0.93827000000E+00  0.93827000000E+00 0.  1.
     999902    2    1    2    0    0 -0.11984027923E-01 -0.72468771744E-02  0.17469373980E-02  0.10298166749E+01  0.10297199610E+01 0.  0.
     999903    2    3    3    0    0  0.50469604391E-01  0.45988818420E-01  0.11187746041E+00  0.13916341605E+00  0.46773259785E-01 0.  0.
         14    1    1    2    0    0  0.11984027923E-01  0.72468771744E-02 -0.17469373980E-02  0.14113325062E-01  0.00000000000E+00 0.  1.
     999901    1    3    3    0    0 -0.62453632314E-01 -0.53235695594E-01 -0.11013052301E+00  0.89065325889E+00  0.88000000000E+00 0.  1.
        -11    1    4    4    0    0  0.32348883381E-01  0.91830809473E-03  0.30995882506E-01  0.44814053589E-01  0.51100000000E-03 0. -1.
         11    1    4    4    0    0  0.18120721010E-01  0.45070510325E-01  0.80881577904E-01  0.94349362457E-01  0.51100000000E-03 0.  1.
</event>
<event>
 8    1  0.2929965E+004  0.1043930E+01  0.7957747E-01            NaN
         13   -1    0    0    0    0  0.00000000000E+00  0.00000000000E+00  0.74505805969E-08  0.10566000000E+00  0.10566000000E+00 0.  1.
     999900   -1    0    0    0    0 -0.00000000000E+00 -0.00000000000E+00 -0.74505805969E-08  0.93827000000E+00  0.93827000000E+00 0. -1.
     999902    2    1    2    0    0  0.13746810667E-03 -0.11092878783E-01  0.65468998725E-02  0.10310485111E+01  0.10309680400E+01 0.  0.
     999903    2    3    3    0    0  0.60104600299E-01 -0.36627768278E-01 -0.11284081733E+00  0.14059833593E+00  0.45614533036E-01 0.  0.
         14    1    1    2    0    0 -0.13746810667E-03  0.11092878783E-01 -0.65468998725E-02  0.12881488855E-01  0.00000000000E+00 0. -1.
     999901    1    3    3    0    0 -0.59967132193E-01  0.25534889495E-01  0.11938771720E+00  0.89045017522E+00  0.88000000000E+00 0. -1.
        -11    1    4    4    0    0  0.34721290265E-01 -0.39603609144E-01 -0.49446117173E-01  0.72243985766E-01  0.51100000000E-03 0. -1.
         11    1    4    4    0    0  0.25383310034E-01  0.29758408660E-02 -0.63394700157E-01  0.68354350162E-01  0.51100000000E-03 0.  1.
</event>
<event>
 8    1  0.2929965E+004  0.1043930E+01  0.7957747E-01            NaN
         13   -1    0    0    0    0  0.00000000000E+00  0.00000000000E+00  0.74505805969E-08  0.10566000000E+00  0.10566000000E+00 0.  1.
     999900   -1    0    0    0    0 -0.00000000000E+00 -0.00000000000E+00 -0.74505805969E-08  0.93827000000E+00  0.93827000000E+00 0. -1.
     999902    2    1    2    0    0  0.19997008859E-02  0.13059560425E-01  0.16193131406E-02  0.10306193615E+01  0.10305334032E+01 0.  0.
     999903    2    3    3    0    0  0.24488402328E-01 -0.25292467561E-01  0.12858274088E+00  0.14039673108E+00  0.44026470239E-01 0.  0.
         14    1    1    2    0    0 -0.19997008859E-02 -0.13059560425E-01 -0.16193131406E-02  0.13310638496E-01  0.00000000000E+00 0.  1.
     999901    1    3    3    0    0 -0.22488701442E-01  0.38352027987E-01 -0.12696342774E+00  0.89022263043E+00  0.88000000000E+00 0. -1.
        -11    1    4    4    0    0  0.37217179895E-01 -0.17671283293E-01  0.87536622762E-01  0.96748716674E-01  0.51100000000E-03 0.  1.
         11    1    4    4    0    0 -0.12728777567E-01 -0.76211842679E-02  0.41046118114E-01  0.43648014402E-01  0.51100000000E-03 0. -1.
</event>
<event>
 7    1  0.2929965E+004  0.1043930E+01  0.7957747E-01            NaN
         13   -1    0    0    0    0  0.00000000000E+00  0.00000000000E+00  0.74505805969E-08  0.10566000000E+00  0.10566000000E+00 0.  1.
     999900   -1    0    0    0    0 -0.00000000000E+00 -0.00000000000E+00 -0.74505805969E-08  0.93827000000E+00  0.93827000000E+00 0. -1.
     999902    2    1    2    0    0  0.12299960896E-01 -0.35406938508E-02  0.32743094115E-02  0.10307183895E+01  0.10306337137E+01 0.  0.
         14    1    1    2    0    0 -0.12299960896E-01  0.35406938508E-02 -0.32743094115E-02  0.13211610541E-01  0.00000000000E+00 0. -1.
     999901    1    3    3    0    0  0.12203695405E+00 -0.81280671104E-01  0.25844330216E-01  0.89250629973E+00  0.88000000000E+00 0. -1.
        -11    1    3    3    0    0 -0.76138500336E-01  0.45467787608E-01 -0.23012974996E-01  0.91620134700E-01  0.51100000000E-03 0.  1.
         11    1    3    3    0    0 -0.33598492818E-01  0.32272189646E-01  0.44295419124E-03  0.46591955031E-01  0.51100000000E-03 0. -1.
</event>
<event>
 8    1  0.2929965E+004  0.1043930E+01  0.7957747E-01            NaN
         13   -1    0    0    0    0  0.00000000000E+00  0.00000000000E+00  0.74505805969E-08  0.10566000000E+00  0.10566000000E+00 0. -1.
     999900   -1    0    0    0    0 -0.00000000000E+00 -0.00000000000E+00 -0.74505805969E-08  0.93827000000E+00  0.93827000000E+00 0. -1.
     999902    2    1    2    0    0  0.13511692948E-02 -0.11373084807E-01 -0.88656711999E-02  0.10294464631E+01  0.10293445718E+01 0.  0.
     999903    2    3    3    0    0  0.79292595173E-01  0.12548190881E-01  0.10343043272E+00  0.13857188813E+00  0.45382166364E-01 0.  0.
         14    1    1    2    0    0 -0.13511692948E-02  0.11373084807E-01  0.88656711999E-02  0.14483536941E-01  0.00000000000E+00 0. -1.
     999901    1    3    3    0    0 -0.77941425878E-01 -0.23921275688E-01 -0.11229610392E+00  0.89087457493E+00  0.88000000000E+00 0.  1.
        -11    1    4    4    0    0  0.30502664941E-01 -0.11013692104E-01  0.63366705821E-01  0.71185072240E-01  0.51100000000E-03 0. -1.
         11    1    4    4    0    0  0.48789930232E-01  0.23561882985E-01  0.40063726899E-01  0.67386815891E-01  0.51100000000E-03 0.  1.
</event>
<event>
 8    1  0.2929965E+004  0.1043930E+01  0.7957747E-01            NaN
         13   -1    0    0    0    0  0.00000000000E+00  0.00000000000E+00  0.74505805969E-08  0.10566000000E+00  0.10566000000E+00 0.  1.
     999900   -1    0    0    0    0 -0.00000000000E+00 -0.00000000000E+00 -0.74505805969E-08  0.93827000000E+00  0.93827000000E+00 0. -1.
     999902    2    1    2    0    0  0.71702512866E-02  0.37674477133E-02 -0.11599326850E-01  0.10297825427E+01  0.10296853571E+01 0.  0.
     999903    2    3    3    0    0 -0.82738954151E-01 -0.32364572706E-01 -0.98813711895E-01  0.14017839638E+00  0.44638918586E-01 0.  0.
         14    1    1    2    0    0 -0.71702512866E-02 -0.37674477133E-02  0.11599326850E-01  0.14147457339E-01  0.00000000000E+00 0.  1.
     999901    1    3    3    0    0  0.89909205438E-01  0.36132020420E-01  0.87214385045E-01  0.88960414628E+00  0.88000000000E+00 0.  1.
        -11    1    4    4    0    0 -0.35880582490E-01 -0.29485874349E-01 -0.25127447026E-01  0.52806085833E-01  0.51100000000E-03 0. -1.
         11    1    4    4    0    0 -0.46858371661E-01 -0.28786983580E-02 -0.73686264869E-01  0.87372310547E-01  0.51100000000E-03 0.  1.
</event>
<event>
 8    1  0.2929965E+004  0.1043930E+01  0.7957747E-01            NaN
         13   -1    0    0    0    0  0.00000000000E+00  0.00000000000E+00  0.74505805969E-08  0.10566000000E+00  0.10566000000E+00 0.  1.
     999900   -1    0    0    0    0 -0.00000000000E+00 -0.00000000000E+00 -0.74505805969E-08  0.93827000000E+00  0.93827000000E+00 0. -1.
     999902    2    1    2    0    0 -0.50050731843E-02 -0.58281150519E-02 -0.10805150850E-01  0.10306722111E+01  0.10305869384E+01 0.  0.
     999903    2    3    3    0    0 -0.11410734787E+00 -0.51323233884E-01 -0.50041753543E-01  0.14190192400E+00  0.44468165700E-01 0.  0.
         14    1    1    2    0    0  0.50050731843E-02  0.58281150519E-02  0.10805150850E-01  0.13257788938E-01  0.00000000000E+00 0.  1.
     999901    1    3    3    0    0  0.10910227469E+00  0.45495118832E-01  0.39236602693E-01  0.88877028707E+00  0.88000000000E+00 0. -1.
        -11    1    4    4    0    0 -0.49483327814E-01 -0.21103266158E-01  0.16137676401E-02  0.53822048837E-01  0.51100000000E-03 0. -1.
         11    1    4    4    0    0 -0.64624020061E-01 -0.30219967726E-01 -0.51655521183E-01  0.88079875158E-01  0.51100000000E-03 0.  1.
</event>
<event>
 7    1  0.2929965E+004  0.1043930E+01  0.7957747E-01            NaN
         13   -1    0    0    0    0  0.00000000000E+00  0.00000000000E+00  0.74505805969E-08  0.10566000000E+00  0.10566000000E+00 0. -1.
     999900   -1    0    0    0    0 -0.00000000000E+00 -0.00000000000E+00 -0.74505805969E-08  0.93827000000E+00  0.93827000000E+00 0.  1.
     999903    2    1    2    0    0 -0.36865940475E-01 -0.70717958764E-01 -0.27843143065E-01  0.97494602445E-01  0.48680895959E-01 0.  0.
         14    1    1    2    0    0 -0.58239484216E-01  0.56537501983E-02  0.16908257167E-02  0.58537691316E-01  0.00000000000E+00 0.  1.
     999901    1    1    2    0    0  0.95105424690E-01  0.65064208566E-01  0.26152317349E-01  0.88789770624E+00  0.88000000000E+00 0.  1.
        -11    1    3    3    0    0 -0.41118740594E-01 -0.39178489273E-01 -0.25763402054E-02  0.56855989127E-01  0.51100000000E-03 0. -1.
         11    1    3    3    0    0  0.42528001198E-02 -0.31539469491E-01 -0.25266802860E-01  0.40638613318E-01  0.51100000000E-03 0.  1.
</event>
<event>
 8    1  0.2929965E+004  0.1043930E+01  0.7957747E-01            NaN
         13   -1    0    0    0    0  0.00000000000E+00  0.00000000000E+00  0.74505805969E-08  0.10566000000E+00  0.10566000000E+00 0.  1.
     999900   -1    0    0    0    0 -0.00000000000E+00 -0.00000000000E+00 -0.74505805969E-08  0.93827000000E+00  0.93827000000E+00 0.  1.
     999902    2    1    2    0    0  0.34169780689E-03  0.11723078060E-01  0.68491901997E-02  0.10303484418E+01  0.10302589251E+01 0.  0.
     999903    2    3    3    0    0  0.85283522210E-01  0.97678919156E-01 -0.32584904760E-01  0.14121483655E+00  0.45446712043E-01 0.  0.
         14    1    1    2    0    0 -0.34169780689E-03 -0.11723078060E-01 -0.68491901997E-02  0.13581558194E-01  0.00000000000E+00 0. -1.
     999901    1    3    3    0    0 -0.84941824403E-01 -0.85955841096E-01  0.39434094959E-01  0.88913360526E+00  0.88000000000E+00 0.  1.
        -11    1    4    4    0    0  0.62997952136E-01  0.39023631491E-01 -0.23915939036E-01  0.77870527474E-01  0.51100000000E-03 0. -1.
         11    1    4    4    0    0  0.22285570074E-01  0.58655287665E-01 -0.86689657232E-02  0.63344309076E-01  0.51100000000E-03 0.  1.
</event>
<event>
 8    1  0.2929965E+004  0.1043930E+01  0.7957747E-01            NaN
         13   -1    0    0    0    0  0.00000000000E+00  0.00000000000E+00  0.74505805969E-08  0.10566000000E+00  0.10566000000E+00 0.  1.
     999900   -1    0    0    0    0 -0.00000000000E+00 -0.00000000000E+00 -0.74505805969E-08  0.93827000000E+00  0.93827000000E+00 0.  1.
     999902    2    1    2    0    0 -0.86255927184E-02 -0.10372854549E-01 -0.59175960668E-03  0.10304264027E+01  0.10303379175E+01 0.  0.
     999903    2    3    3    0    0  0.45906130616E-01 -0.86471312814E-01  0.90619942561E-01  0.14077239194E+00  0.44946986284E-01 0.  0.
         14    1    1    2    0    0  0.86255927184E-02  0.10372854549E-01  0.59175960668E-03  0.13503597323E-01  0.00000000000E+00 0. -1.
     999901    1    3    3    0    0 -0.54531723335E-01  0.76098458265E-01 -0.91211702168E-01  0.88965401073E+00  0.88000000000E+00 0.  1.
        -11    1    4    4    0    0  0.75441467085E-02  0.16312259099E-03 -0.24586292404E-02  0.79527817323E-02  0.51100000000E-03 0. -1.
         11    1    4    4    0    0  0.38361983908E-01 -0.86634435405E-01  0.93078571801E-01  0.13281961021E+00  0.51100000000E-03 0.  1.
</event>
<event>
 8    1  0.2929965E+004  0.1043930E+01  0.7957747E-01            NaN
         13   -1    0    0    0    0  0.00000000000E+00  0.00000000000E+00  0.74505805969E-08  0.10566000000E+00  0.10566000000E+00 0. -1.
     999900   -1    0    0    0    0 -0.00000000000E+00 -0.00000000000E+00 -0.74505805969E-08  0.93827000000E+00  0.93827000000E+00 0.  1.
     999902    2    1    2    0    0  0.58547286259E-02 -0.63702272885E-02 -0.98291860555E-02  0.10308353239E+01  0.10307521499E+01 0.  0.
     999903    2    3    3    0    0  0.82997130144E-01 -0.29300759936E-01  0.99615917958E-01  0.14041127313E+00  0.45220972643E-01 0.  0.
         14    1    1    2    0    0 -0.58547286259E-02  0.63702272885E-02  0.98291860555E-02  0.13094676075E-01  0.00000000000E+00 0.  1.
     999901    1    3    3    0    0 -0.77142401518E-01  0.22930532648E-01 -0.10944510401E+00  0.89042405079E+00  0.88000000000E+00 0.  1.
        -11    1    4    4    0    0  0.84406625148E-01 -0.18990038505E-01  0.78315421134E-01  0.11669904130E+00  0.51100000000E-03 0.  1.
         11    1    4    4    0    0 -0.14094950041E-02 -0.10310721431E-01  0.21300496824E-01  0.23712231834E-01  0.51100000000E-03 0. -1.
</event>
<event>
 8    1  0.2929965E+004  0.1043930E+01  0.7957747E-01            NaN
         13   -1    0    0    0    0  0.00000000000E+00  0.00000000000E+00  0.74505805969E-08  0.10566000000E+00  0.10566000000E+00 0. -1.
     999900   -1    0    0    0    0 -0.00000000000E+00 -0.00000000000E+00 -0.74505805969E-08  0.93827000000E+00  0.93827000000E+00 0.  1.
     999902    2    1    2    0    0  0.26488267250E-02 -0.82135664209E-02  0.10639389421E-01  0.10302305269E+01  0.10301394386E+01 0.  0.
     999903    2    3    3    0    0 -0.83891834237E-01  0.99023561778E-01  0.24568536606E-01  0.13939770935E+00  0.44548880357E-01 0.  0.
         14    1    1    2    0    0 -0.26488267250E-02  0.82135664209E-02 -0.10639389421E-01  0.13699473115E-01  0.00000000000E+00 0.  1.
     999901    1    3    3    0    0  0.86540660962E-01 -0.10723712820E+00 -0.13929147185E-01  0.89083281754E+00  0.88000000000E+00 0.  1.
        -11    1    4    4    0    0 -0.47600419551E-01  0.26709896981E-01  0.20753443310E-01  0.58396789881E-01  0.51100000000E-03 0.  1.
         11    1    4    4    0    0 -0.36291414686E-01  0.72313664797E-01  0.38150932954E-02  0.81000919465E-01  0.51100000000E-03 0. -1.
</event>
<event>
 8    1  0.2929965E+004  0.1043930E+01  0.7957747E-01            NaN
         13   -1    0    0    0    0  0.00000000000E+00  0.00000000000E+00  0.74505805969E-08  0.10566000000E+00  0.10566000000E+00 0. -1.
     999900   -1    0    0    0    0 -0.00000000000E+00 -0.00000000000E+00 -0.74505805969E-08  0.93827000000E+00  0.93827000000E+00 0. -1.
     999902    2    1    2    0    0  0.67592546540E-02 -0.10200999169E-01 -0.56248356790E-02  0.10304620126E+01  0.10303739966E+01 0.  0.
     999903    2    3    3    0    0  0.12775235208E+00 -0.39889709410E-01 -0.11451311322E-01  0.14166805621E+00  0.45020586862E-01 0.  0.
         14    1    1    2    0    0 -0.67592546540E-02  0.10200999169E-01  0.56248356790E-02  0.13467987375E-01  0.00000000000E+00 0.  1.
     999901    1    3    3    0    0 -0.12099309742E+00  0.29688710241E-01  0.58264756427E-02  0.88879395641E+00  0.88000000000E+00 0.  1.
        -11    1    4    4    0    0  0.68210505714E-01 -0.42529534639E-01 -0.15740915645E-01  0.81911366444E-01  0.51100000000E-03 0. -1.
         11    1    4    4    0    0  0.59541846364E-01  0.26398252294E-02  0.42896043229E-02  0.59756689767E-01  0.51100000000E-03 0.  1.
</event>
<event>
 8    1  0.2929965E+004  0.1043930E+01  0.7957747E-01            NaN
         13   -1    0    0    0    0  0.00000000000E+00  0.00000000000E+00  0.74505805969E-08  0.10566000000E+00  0.10566000000E+00 0. -1.
     999900   -1    0    0    0    0 -0.00000000000E+00 -0.00000000000E+00 -0.74505805969E-08  0.93827000000E+00  0.93827000000E+00 0. -1.
     999902    2    1    2    0    0 -0.44869860403E-02 -0.80873036327E-02 -0.10991693980E-01  0.10295649431E+01  0.10294647236E+01 0.  0.
     999903    2    3    3    0    0 -0.12838599669E+00 -0.14586886025E-01 -0.33079721098E-01  0.14058738973E+00  0.44438776024E-01 0.  0.
         14    1    1    2    0    0  0.44869860403E-02  0.80873036327E-02  0.10991693980E-01  0.14365056921E-01  0.00000000000E+00 0. -1.
     999901    1    3    3    0    0  0.12389901065E+00  0.64995823918E-02  0.22088027117E-01  0.88897755335E+00  0.88000000000E+00 0.  1.
        -11    1    4    4    0    0 -0.10726750478E+00 -0.27217717389E-01 -0.34536072123E-01  0.11593154498E+00  0.51100000000E-03 0. -1.
         11    1    4    4    0    0 -0.21118491905E-01  0.12630831364E-01  0.14563510249E-02  0.24655844756E-01  0.51100000000E-03 0.  1.
</event>
<event>
 8    1  0.2929965E+004  0.1043930E+01  0.7957747E-01            NaN
         13   -1    0    0    0    0  0.00000000000E+00  0.00000000000E+00  0.74505805969E-08  0.10566000000E+00  0.10566000000E+00 0.  1.
     999900   -1    0    0    0    0 -0.00000000000E+00 -0.00000000000E+00 -0.74505805969E-08  0.93827000000E+00  0.93827000000E+00 0.  1.
     999902    2    1    2    0    0  0.36267250985E-02 -0.37952610860E-02  0.12995787230E-01  0.10299140224E+01  0.10298186471E+01 0.  0.
     999903    2    3    3    0    0  0.49019866272E-01  0.64090033868E-01 -0.10316974984E+00  0.13853117396E+00  0.45126590223E-01 0.  0.
         14    1    1    2    0    0 -0.36267250985E-02  0.37952610860E-02 -0.12995787230E-01  0.14015977574E-01  0.00000000000E+00 0. -1.
     999901    1    3    3    0    0 -0.45393141174E-01 -0.67885294954E-01  0.11616553707E+00  0.89138284847E+00  0.88000000000E+00 0. -1.
        -11    1    4    4    0    0  0.34635971677E-01  0.17169057910E-01 -0.24381992912E-01  0.45707436844E-01  0.51100000000E-03 0. -1.
         11    1    4    4    0    0  0.14383894595E-01  0.46920975959E-01 -0.78787756932E-01  0.92823737115E-01  0.51100000000E-03 0.  1.
</event>
<event>
 8    1  0.2929965E+004  0.1043930E+01  0.7957747E-01            NaN
         13   -1    0    0    0    0  0.00000000000E+00  0.00000000000E+00  0.74505805969E-08  0.10566000000E+00  0.10566000000E+00 0.  1.
     999900   -1    0    0    0    0 -0.00000000000E+00 -0.00000000000E+00 -0.74505805969E-08  0.93827000000E+00  0.93827000000E+00 0. -1.
     999902    2    1    2    0    0 -0.13296592513E-01  0.55315839404E-03 -0.34910917111E-02  0.10301716179E+01  0.10300797393E+01 0.  0.
     999903    2    3    3    0    0 -0.21050114319E-01  0.12495809898E+00 -0.41159156593E-01  0.14058992438E+00  0.44875570771E-01 0.  0.
         14    1    1    2    0    0  0.13296592513E-01 -0.55315839404E-03  0.34910917111E-02  0.13758382099E-01  0.00000000000E+00 0.  1.
     999901    1    3    3    0    0  0.77535218065E-02 -0.12440494058E+00  0.37668064882E-01  0.88958169352E+00  0.88000000000E+00 0. -1.
        -11    1    4    4    0    0  0.55632005565E-02  0.90963083824E-01 -0.25148344863E-01  0.94540637768E-01  0.51100000000E-03 0. -1.
         11    1    4    4    0    0 -0.26613314876E-01  0.33995015153E-01 -0.16010811731E-01  0.46049286609E-01  0.51100000000E-03 0.  1.
</event>
<event>
 8    1  0.2929965E+004  0.1043930E+01  0.7957747E-01            NaN
         13   -1    0    0    0    0  0.00000000000E+00  0.00000000000E+00  0.74505805969E-08  0.10566000000E+00  0.10566000000E+00 0.  1.
     999900   -1    0    0    0    0 -0.00000000000E+00 -0.00000000000E+00 -0.74505805969E-08  0.93827000000E+00  0.93827000000E+00 0. -1.
     999902    2    1    2    0    0  0.98359808679E-02  0.94886008846E-02  0.15532024775E-02  0.10301752734E+01  0.10300834439E+01 0.  0.
     999903    2    3    3    0    0  0.10729688872E+00  0.55013086247E-01  0.61039368465E-01  0.14163168342E+00  0.42363513287E-01 0.  0.
         14    1    1    2    0    0 -0.98359808679E-02 -0.94886008846E-02 -0.15532024775E-02  0.13754726617E-01  0.00000000000E+00 0. -1.
     999901    1    3    3    0    0 -0.97460907849E-01 -0.45524485362E-01 -0.59486165988E-01  0.88854358997E+00  0.88000000000E+00 0. -1.
        -11    1    4    4    0    0  0.14504762815E-01  0.10892135176E-01  0.28623425948E-01  0.33890830427E-01  0.51100000000E-03 0. -1.
         11    1    4    4    0    0  0.92792125902E-01  0.44120951070E-01  0.32415942518E-01  0.10774085299E+00  0.51100000000E-03 0.  1.
</event>
<event>
 8    1  0.2929965E+004  0.1043930E+01  0.7957747E-01            NaN
         13   -1    0    0    0    0  0.00000000000E+00  0.00000000000E+00  0.74505805969E-08  0.10566000000E+00  0.10566000000E+00 0.  1.
     999900   -1    0    0    0    0 -0.00000000000E+00 -0.00000000000E+00 -0.74505805969E-08  0.93827000000E+00  0.93827000000E+00 0.  1.
     999902    2    1    2    0    0 -0.67507266533E-02  0.75778528925E-03 -0.11376517888E-01  0.10306796525E+01  0.10305944762E+01 0.  0.
     999903    2    3    3    0    0  0.17886369362E-01  0.30581745954E-01  0.12693242325E+00  0.13903744944E+00  0.44321629921E-01 0.  0.
         14    1    1    2    0    0  0.67507266533E-02 -0.75778528925E-03  0.11376517888E-01  0.13250347473E-01  0.00000000000E+00 0.  1.
     999901    1    3    3    0    0 -0.24637096016E-01 -0.29823960665E-01 -0.13830894114E+00  0.89164220309E+00  0.88000000000E+00 0.  1.
        -11    1    4    4    0    0  0.24578454438E-01  0.17764605741E-01  0.36510471539E-01  0.47465327269E-01  0.51100000000E-03 0.  1.
         11    1    4    4    0    0 -0.66920850758E-02  0.12817140213E-01  0.90421951714E-01  0.91572122169E-01  0.51100000000E-03 0. -1.
</event>
<event>
 7    1  0.2929965E+004  0.1043930E+01  0.7957747E-01            NaN
         13   -1    0    0    0    0  0.00000000000E+00  0.00000000000E+00  0.74505805969E-08  0.10566000000E+00  0.10566000000E+00 0.  1.
     999900   -1    0    0    0    0 -0.00000000000E+00 -0.00000000000E+00 -0.74505805969E-08  0.93827000000E+00  0.93827000000E+00 0. -1.
     999903    2    1    2    0    0 -0.74580934740E-02  0.92188772303E-01 -0.34298101255E-01  0.10891734731E+00  0.46176139918E-01 0.  0.
         14    1    1    2    0    0  0.21580985905E-01 -0.27075856067E-01 -0.35687170690E-01  0.49723385708E-01  0.00000000000E+00 0. -1.
     999901    1    1    2    0    0 -0.14122892431E-01 -0.65112916236E-01  0.69985271944E-01  0.88528926699E+00  0.88000000000E+00 0.  1.
        -11    1    3    3    0    0  0.11346470948E-01  0.68048177197E-01 -0.97315659957E-02  0.69672529167E-01  0.51100000000E-03 0. -1.
         11    1    3    3    0    0 -0.18804564422E-01  0.24140595106E-01 -0.24566535259E-01  0.39244818140E-01  0.51100000000E-03 0.  1.
</event>
<event>
 8    1  0.2929965E+004  0.1043930E+01  0.7957747E-01            NaN
         13   -1    0    0    0    0  0.00000000000E+00  0.00000000000E+00  0.74505805969E-08  0.10566000000E+00  0.10566000000E+00 0. -1.
     999900   -1    0    0    0    0 -0.00000000000E+00 -0.00000000000E+00 -0.74505805969E-08  0.93827000000E+00  0.93827000000E+00 0.  1.
     999902    2    1    2    0    0  0.80437630297E-02  0.10762921530E-01 -0.20079614533E-02  0.10303441797E+01  0.10302546065E+01 0.  0.
     999903    2    3    3    0    0  0.12594489447E+00 -0.15968439848E-02  0.45190281063E-01  0.14114166359E+00  0.44879186096E-01 0.  0.
         14    1    1    2    0    0 -0.80437630297E-02 -0.10762921530E-01  0.20079614533E-02  0.13585820282E-01  0.00000000000E+00 0. -1.
     999901    1    3    3    0    0 -0.11790113144E+00  0.12359765515E-01 -0.47198242516E-01  0.88920251613E+00  0.88000000000E+00 0.  1.
        -11    1    4    4    0    0  0.11115299389E+00 -0.10159768574E-01  0.24454608780E-01  0.11426503385E+00  0.51100000000E-03 0. -1.
         11    1    4    4    0    0  0.14791900575E-01  0.85629245894E-02  0.20735672282E-01  0.26876629739E-01  0.51100000000E-03 0.  1.
</event>
<event>
 8    1  0.2929965E+004  0.1043930E+01  0.7957747E-01            NaN
         13   -1    0    0    0    0  0.00000000000E+00  0.00000000000E+00  0.74505805969E-08  0.10566000000E+00  0.10566000000E+00 0.  1.
     999900   -1    0    0    0    0 -0.00000000000E+00 -0.00000000000E+00 -0.74505805969E-08  0.93827000000E+00  0.93827000000E+00 0. -1.
     999902    2    1    2    0    0  0.10138422977E-02 -0.94400509971E-02 -0.98244299302E-02  0.10302675748E+01  0.10301769818E+01 0.  0.
     999903    2    3    3    0    0 -0.84019790569E-01  0.35523743723E-01 -0.97335905766E-01  0.14071110106E+00  0.44766883250E-01 0.  0.
         14    1    1    2    0    0 -0.10138422977E-02  0.94400509971E-02  0.98244299302E-02  0.13662425205E-01  0.00000000000E+00 0.  1.
     999901    1    3    3    0    0  0.85033632866E-01 -0.44963794720E-01  0.87511475836E-01  0.88955647373E+00  0.88000000000E+00 0.  1.
        -11    1    4    4    0    0 -0.67140382276E-01  0.41302919165E-01 -0.93782866486E-01  0.12251224115E+00  0.51100000000E-03 0.  1.
         11    1    4    4    0    0 -0.16879408293E-01 -0.57791754421E-02 -0.35530392800E-02  0.18198859916E-01  0.51100000000E-03 0. -1.
</event>
<event>
 8    1  0.2929965E+004  0.1043930E+01  0.7957747E-01            NaN
         13   -1    0    0    0    0  0.00000000000E+00  0.00000000000E+00  0.74505805969E-08  0.10566000000E+00  0.10566000000E+00 0. -1.
     999900   -1    0    0    0    0 -0.00000000000E+00 -0.00000000000E+00 -0.74505805969E-08  0.93827000000E+00  0.93827000000E+00 0.  1.
     999902    2    1    2    0    0  0.82959526259E-02 -0.59999281472E-02 -0.11680822094E-01  0.10283973385E+01  0.10282800311E+01 0.  0.
     999903    2    3    3    0    0  0.45209039892E-01  0.10986073846E+00 -0.55936477208E-01  0.13893411102E+00  0.45393375924E-01 0.  0.
         14    1    1    2    0    0 -0.82959526259E-02  0.59999281472E-02  0.11680822094E-01  0.15532661476E-01  0.00000000000E+00 0. -1.
     999901    1    3    3    0    0 -0.36913087266E-01 -0.11586066661E+00  0.44255655114E-01  0.88946322751E+00  0.88000000000E+00 0.  1.
        -11    1    4    4    0    0  0.16759045412E-01  0.95812146761E-02  0.24362326587E-02  0.19464368173E-01  0.51100000000E-03 0.  1.
         11    1    4    4    0    0  0.28449994480E-01  0.10027952379E+00 -0.58372709867E-01  0.11946974284E+00  0.51100000000E-03 0. -1.
</event>
<event>
 8    1  0.2929965E+004  0.1043930E+01  0.7957747E-01            NaN
         13   -1    0    0    0    0  0.00000000000E+00  0.00000000000E+00  0.74505805969E-08  0.10566000000E+00  0.10566000000E+00 0.  1.
     999900   -1    0    0    0    0 -0.00000000000E+00 -0.00000000000E+00 -0.74505805969E-08  0.93827000000E+00  0.93827000000E+00 0. -1.
     999902    2    1    2    0    0  0.87755292444E-02 -0.12280196291E-01  0.33137164893E-02  0.10284770439E+01  0.10283609464E+01 0.  0.
     999903    2    3    3    0    0 -0.11136050856E+00  0.66087731785E-01 -0.43087849588E-02  0.13683120490E+00  0.43993884187E-01 0.  0.
         14    1    1    2    0    0 -0.87755292444E-02  0.12280196291E-01 -0.33137164893E-02  0.15452956074E-01  0.00000000000E+00 0. -1.
     999901    1    3    3    0    0  0.12013603781E+00 -0.78367928076E-01  0.76225014481E-02  0.89164583903E+00  0.88000000000E+00 0.  1.
        -11    1    4    4    0    0 -0.36525684898E-01  0.30429086152E-03  0.44843912455E-02  0.36804743391E-01  0.51100000000E-03 0. -1.
         11    1    4    4    0    0 -0.74834823663E-01  0.65783440924E-01 -0.87931762042E-02  0.10002646151E+00  0.51100000000E-03 0.  1.
</event>
<event>
 8    1  0.2929965E+004  0.1043930E+01  0.7957747E-01            NaN
         13   -1    0    0    0    0  0.00000000000E+00  0.00000000000E+00  0.74505805969E-08  0.10566000000E+00  0.10566000000E+00 0.  1.
     999900   -1    0    0    0    0 -0.00000000000E+00 -0.00000000000E+00 -0.74505805969E-08  0.93827000000E+00  0.93827000000E+00 0.  1.
     999902    2    1    2    0    0  0.72861562979E-02  0.42115379355E-02  0.11002066777E-01  0.10300782637E+01  0.10299851255E+01 0.  0.
     999903    2    3    3    0    0 -0.90341392400E-01  0.14898474009E-01  0.96601698710E-01  0.14048698347E+00  0.44957453456E-01 0.  0.
         14    1    1    2    0    0 -0.72861562979E-02 -0.42115379355E-02 -0.11002066777E-01  0.13851736308E-01  0.00000000000E+00 0. -1.
     999901    1    3    3    0    0  0.97627548698E-01 -0.10686936074E-01 -0.85599631933E-01  0.88959128023E+00  0.88000000000E+00 0.  1.
        -11    1    4    4    0    0 -0.53576614652E-01 -0.54427207117E-03  0.26362073543E-01  0.59715742582E-01  0.51100000000E-03 0.  1.
         11    1    4    4    0    0 -0.36764777748E-01  0.15442746080E-01  0.70239625167E-01  0.80771240884E-01  0.51100000000E-03 0. -1.
</event>
<event>
 8    1  0.2929965E+004  0.1043930E+01  0.7957747E-01            NaN
         13   -1    0    0    0    0  0.00000000000E+00  0.00000000000E+00  0.74505805969E-08  0.10566000000E+00  0.10566000000E+00 0.  1.
     999900   -1    0    0    0    0 -0.00000000000E+00 -0.00000000000E+00 -0.74505805969E-08  0.93827000000E+00  0.93827000000E+00 0.  1.
     999902    2    1    2    0    0  0.42319936012E-02  0.68060479750E-02 -0.10751996831E-01  0.10305196497E+01  0.10304323903E+01 0.  0.
     999903    2    3    3    0    0 -0.54917279169E-01 -0.51682934978E-01  0.10725384189E+00  0.13875455981E+00  0.45413741871E-01 0.  0.
         14    1    1    2    0    0 -0.42319936012E-02 -0.68060479750E-02  0.10751996831E-01  0.13410350284E-01  0.00000000000E+00 0.  1.
     999901    1    3    3    0    0  0.59149272770E-01  0.58488982953E-01 -0.11800583872E+00  0.89176508990E+00  0.88000000000E+00 0.  1.
        -11    1    4    4    0    0 -0.49340630502E-01 -0.16357903040E-01  0.68916403020E-01  0.86323870027E-01  0.51100000000E-03 0.  1.
         11    1    4    4    0    0 -0.55766486668E-02 -0.35325031938E-01  0.38337438866E-01  0.52430689788E-01  0.51100000000E-03 0. -1.
</event>
<event>
 8    1  0.2929965E+004  0.1043930E+01  0.7957747E-01            NaN
         13   -1    0    0    0    0  0.00000000000E+00  0.00000000000E+00  0.74505805969E-08  0.10566000000E+00  0.10566000000E+00 0. -1.
     999900   -1    0    0    0    0 -0.00000000000E+00 -0.00000000000E+00 -0.74505805969E-08  0.93827000000E+00  0.93827000000E+00 0.  1.
     999902    2    1    2    0    0 -0.71733005990E-02  0.98788537331E-02  0.50601928999E-02  0.10307143447E+01  0.10306296167E+01 0.  0.
     999903    2    3    3    0    0  0.64459277107E-01 -0.66467974024E-01  0.94371176035E-01  0.14001994369E+00  0.46115895190E-01 0.  0.
         14    1    1    2    0    0  0.71733005990E-02 -0.98788537331E-02 -0.50601928999E-02  0.13215655290E-01  0.00000000000E+00 0.  1.
     999901    1    3    3    0    0 -0.71632577706E-01  0.76346827757E-01 -0.89310983135E-01  0.89069440102E+00  0.88000000000E+00 0.  1.
        -11    1    4    4    0    0  0.45813912886E-01 -0.20648560301E-01  0.28939407098E-01  0.57991620607E-01  0.51100000000E-03 0.  1.
         11    1    4    4    0    0  0.18645364221E-01 -0.45819413723E-01  0.65431768937E-01  0.82028323085E-01  0.51100000000E-03 0. -1.
</event>
<event>
 8    1  0.2929965E+004  0.1043930E+01  0.7957747E-01            NaN
         13   -1    0    0    0    0  0.00000000000E+00  0.00000000000E+00  0.74505805969E-08  0.10566000000E+00  0.10566000000E+00 0.  1.
     999900   -1    0    0    0    0 -0.00000000000E+00 -0.00000000000E+00 -0.74505805969E-08  0.93827000000E+00  0.93827000000E+00 0. -1.
     999902    2    1    2    0    0 -0.78702391323E-02 -0.66933241733E-02  0.88550372740E-02  0.10303229086E+01  0.10302330527E+01 0.  0.
     999903    2    3    3    0    0  0.93781963404E-01 -0.84100583296E-01 -0.40685562379E-01  0.13971675258E+00  0.44693301453E-01 0.  0.
         14    1    1    2    0    0  0.78702391323E-02  0.66933241733E-02 -0.88550372740E-02  0.13607091446E-01  0.00000000000E+00 0.  1.
     999901    1    3    3    0    0 -0.10165220254E+00  0.77407259122E-01  0.49540599653E-01  0.89060615597E+00  0.88000000000E+00 0.  1.
        -11    1    4    4    0    0 -0.29762028491E-02 -0.99857105897E-02 -0.90116174185E-02  0.13785592801E-01  0.51100000000E-03 0. -1.
         11    1    4    4    0    0  0.96758166253E-01 -0.74114872706E-01 -0.31673944960E-01  0.12593115978E+00  0.51100000000E-03 0.  1.
</event>
<event>
 8    1  0.2929965E+004  0.1043930E+01  0.7957747E-01            NaN
         13   -1    0    0    0    0  0.00000000000E+00  0.00000000000E+00  0.74505805969E-08  0.10566000000E+00  0.10566000000E+00 0.  1.
     999900   -1    0    0    0    0 -0.00000000000E+00 -0.00000000000E+00 -0.74505805969E-08  0.93827000000E+00  0.93827000000E+00 0.  1.
     999902    2    1    2    0    0  0.83160617020E-02  0.10018901636E-01  0.58722019100E-02  0.10296465121E+01  0.10295474354E+01 0.  0.
     999903    2    3    3    0    0 -0.20701941962E-01 -0.11051615435E+00 -0.67468883138E-01  0.13793486640E+00  0.42797037333E-01 0.  0.
         14    1    1    2    0    0 -0.83160617020E-02 -0.10018901636E-01 -0.58722019100E-02  0.14283487932E-01  0.00000000000E+00 0.  1.
     999901    1    3    3    0    0  0.29018003664E-01  0.12053505599E+00  0.73341085048E-01  0.89171164566E+00  0.88000000000E+00 0.  1.
        -11    1    4    4    0    0 -0.22941492024E-01 -0.78385471875E-01 -0.67126282339E-01  0.10572035357E+00  0.51100000000E-03 0. -1.
         11    1    4    4    0    0  0.22395500623E-02 -0.32130682474E-01 -0.34260079987E-03  0.32214512833E-01  0.51100000000E-03 0.  1.
</event>
<event>
 8    1  0.2929965E+004  0.1043930E+01  0.7957747E-01            NaN
         13   -1    0    0    0    0  0.00000000000E+00  0.00000000000E+00  0.74505805969E-08  0.10566000000E+00  0.10566000000E+00 0. -1.
     999900   -1    0    0    0    0 -0.00000000000E+00 -0.00000000000E+00 -0.74505805969E-08  0.93827000000E+00  0.93827000000E+00 0. -1.
     999902    2    1    2    0    0 -0.12549622680E-01 -0.29313705087E-02  0.63648602828E-02  0.10295565032E+01  0.10294561652E+01 0.  0.
     999903    2    3    3    0    0  0.87470006188E-01 -0.73957674311E-01  0.65163946134E-01  0.13910381248E+00  0.44528543653E-01 0.  0.
         14    1    1    2    0    0  0.12549622680E-01  0.29313705087E-02 -0.63648602828E-02  0.14373496753E-01  0.00000000000E+00 0.  1.
     999901    1    3    3    0    0 -0.10001962887E+00  0.71026303802E-01 -0.58799085851E-01  0.89045269076E+00  0.88000000000E+00 0. -1.
        -11    1    4    4    0    0  0.39292345199E-01 -0.47502996809E-01  0.56182209065E-01  0.83409380968E-01  0.51100000000E-03 0.  1.
         11    1    4    4    0    0  0.48177660989E-01 -0.26454677503E-01  0.89817370688E-02  0.55694431516E-01  0.51100000000E-03 0. -1.
</event>
<event>
 8    1  0.2929965E+004  0.1043930E+01  0.7957747E-01            NaN
         13   -1    0    0    0    0  0.00000000000E+00  0.00000000000E+00  0.74505805969E-08  0.10566000000E+00  0.10566000000E+00 0. -1.
     999900   -1    0    0    0    0 -0.00000000000E+00 -0.00000000000E+00 -0.74505805969E-08  0.93827000000E+00  0.93827000000E+00 0. -1.
     999902    2    1    2    0    0  0.66230669699E-02  0.10018444695E-02  0.13006423302E-01  0.10293000391E+01  0.10291960624E+01 0.  0.
     999903    2    3    3    0    0  0.60848390335E-01 -0.10065135396E+00  0.62610439159E-01  0.14040504147E+00  0.44275127544E-01 0.  0.
         14    1    1    2    0    0 -0.66230669699E-02 -0.10018444695E-02 -0.13006423302E-01  0.14629960887E-01  0.00000000000E+00 0.  1.
     999901    1    3    3    0    0 -0.54225323365E-01  0.10165319843E+00 -0.49604015857E-01  0.88889499764E+00  0.88000000000E+00 0.  1.
        -11    1    4    4    0    0  0.19674422513E-01 -0.62799672445E-01  0.16325383667E-01  0.67806054547E-01  0.51100000000E-03 0.  1.
         11    1    4    4    0    0  0.41173967822E-01 -0.37851681513E-01  0.46285055491E-01  0.72598986924E-01  0.51100000000E-03 0. -1.
</event>
<event>
 8    1  0.2929965E+004  0.1043930E+01  0.7957747E-01            NaN
         13   -1    0    0    0    0  0.00000000000E+00  0.00000000000E+00  0.74505805969E-08  0.10566000000E+00  0.10566000000E+00 0. -1.
     999900   -1    0    0    0    0 -0.00000000000E+00 -0.00000000000E+00 -0.74505805969E-08  0.93827000000E+00  0.93827000000E+00 0. -1.
     999902    2    1    2    0    0 -0.75064294120E-02 -0.72757610552E-02  0.77520280458E-02  0.10309155035E+01  0.10308333513E+01 0.  0.
     999903    2    3    3    0    0  0.16215731193E-01  0.12623361105E+00 -0.34291727428E-01  0.13953726123E+00  0.45791376962E-01 0.  0.
         14    1    1    2    0    0  0.75064294120E-02  0.72757610552E-02 -0.77520280458E-02  0.13014496543E-01  0.00000000000E+00 0. -1.
     999901    1    3    3    0    0 -0.23722160605E-01 -0.13350937211E+00  0.42043755474E-01  0.89137824223E+00  0.88000000000E+00 0. -1.
        -11    1    4    4    0    0 -0.15838108888E-01  0.45908739266E-01 -0.86557369356E-02  0.49331946414E-01  0.51100000000E-03 0.  1.
         11    1    4    4    0    0  0.32053840081E-01  0.80324871785E-01 -0.25635990493E-01  0.90205314814E-01  0.51100000000E-03 0. -1.
</event>
<event>
 8    1  0.2929965E+004  0.1043930E+01  0.7957747E-01            NaN
         13   -1    0    0    0    0  0.00000000000E+00  0.00000000000E+00  0.74505805969E-08  0.10566000000E+00  0.10566000000E+00 0. -1.
     999900   -1    0    0    0    0 -0.00000000000E+00 -0.00000000000E+00 -0.74505805969E-08  0.93827000000E+00  0.93827000000E+00 0.  1.
     999902    2    1    2    0    0  0.12948960133E-01 -0.49666068593E-02 -0.35880068185E-02  0.10296046188E+01  0.10295049561E+01 0.  0.
     999903    2    3    3    0    0 -0.80743669028E-01  0.43700904423E-01  0.96718982732E-01  0.13763582591E+00  0.34055099752E-01 0.  0.
         14    1    1    2    0    0 -0.12948960133E-01  0.49666068593E-02  0.35880068185E-02  0.14325381152E-01  0.00000000000E+00 0. -1.
     999901    1    3    3    0    0  0.93692629161E-01 -0.48667511282E-01 -0.10030698955E+00  0.89196879293E+00  0.88000000000E+00 0.  1.
        -11    1    4    4    0    0 -0.78648608743E-01  0.39186736089E-01  0.75553090664E-01  0.11588673165E+00  0.51100000000E-03 0.  1.
         11    1    4    4    0    0 -0.20950602854E-02  0.45141683336E-02  0.21165892068E-01  0.21749094266E-01  0.51100000000E-03 0. -1.
</event>
<event>
 8    1  0.2929965E+004  0.1043930E+01  0.7957747E-01            NaN
         13   -1    0    0    0    0  0.00000000000E+00  0.00000000000E+00  0.74505805969E-08  0.10566000000E+00  0.10566000000E+00 0. -1.
     999900   -1    0    0    0    0 -0.00000000000E+00 -0.00000000000E+00 -0.74505805969E-08  0.93827000000E+00  0.93827000000E+00 0. -1.
     999902    2    1    2    0    0 -0.71750368698E-02 -0.82081755305E-02 -0.75197330369E-02  0.10306860699E+01  0.10306009766E+01 0.  0.
     999903    2    3    3    0    0 -0.12886482397E+00  0.34331456762E-01 -0.10591207163E-01  0.14128882538E+00  0.45448506335E-01 0.  0.
         14    1    1    2    0    0  0.71750368698E-02  0.82081755305E-02  0.75197330369E-02  0.13243930103E-01  0.00000000000E+00 0. -1.
     999901    1    3    3    0    0  0.12168978710E+00 -0.42539632292E-01  0.30714741260E-02  0.88939724452E+00  0.88000000000E+00 0. -1.
        -11    1    4    4    0    0 -0.69454692268E-01 -0.38250082675E-02  0.18747661684E-02  0.69587073767E-01  0.51100000000E-03 0.  1.
         11    1    4    4    0    0 -0.59410131702E-01  0.38156465029E-01 -0.12465973331E-01  0.71701751614E-01  0.51100000000E-03 0. -1.
</event>
<event>
 8    1  0.2929965E+004  0.1043930E+01  0.7957747E-01            NaN
         13   -1    0    0    0    0  0.00000000000E+00  0.00000000000E+00  0.74505805969E-08  0.10566000000E+00  0.10566000000E+00 0.  1.
     999900   -1    0    0    0    0 -0.00000000000E+00 -0.00000000000E+00 -0.74505805969E-08  0.93827000000E+00  0.93827000000E+00 0.  1.
     999902    2    1    2    0    0 -0.13256983597E-01  0.27490272345E-02  0.21475772932E-02  0.10302217232E+01  0.10301305170E+01 0.  0.
     999903    2    3    3    0    0  0.36498227252E-01  0.10542222858E+00 -0.70968236954E-01  0.13984916658E+00  0.45555810435E-01 0.  0.
         14    1    1    2    0    0  0.13256983597E-01 -0.27490272345E-02 -0.21475772932E-02  0.13708276809E-01  0.00000000000E+00 0. -1.
     999901    1    3    3    0    0 -0.49755210850E-01 -0.10267320134E+00  0.73115814248E-01  0.89037255662E+00  0.88000000000E+00 0. -1.
        -11    1    4    4    0    0  0.13786856580E-01  0.94027089942E-01 -0.54241108175E-01  0.10942362631E+00  0.51100000000E-03 0. -1.
         11    1    4    4    0    0  0.22711370672E-01  0.11395138637E-01 -0.16727128779E-01  0.30425540268E-01  0.51100000000E-03 0.  1.
</event>
<event>
 8    1  0.2929965E+004  0.1043930E+01  0.7957747E-01            NaN
         13   -1    0    0    0    0  0.00000000000E+00  0.00000000000E+00  0.74505805969E-08  0.10566000000E+00  0.10566000000E+00 0.  1.
     999900   -1    0    0    0    0 -0.00000000000E+00 -0.00000000000E+00 -0.74505805969E-08  0.93827000000E+00  0.93827000000E+00 0.  1.
     999902    2    1    2    0    0  0.49278217805E-02 -0.11330560356E-01  0.45218849710E-02  0.10307727788E+01  0.10306888032E+01 0.  0.
     999903    2    3    3    0    0 -0.16134382982E-01  0.67347183302E-01 -0.11219228513E+00  0.13933797957E+00  0.45077736122E-01 0.  0.
         14    1    1    2    0    0 -0.49278217805E-02  0.11330560356E-01 -0.45218849710E-02  0.13157221180E-01  0.00000000000E+00 0.  1.
     999901    1    3    3    0    0  0.21062204762E-01 -0.78677743658E-01  0.11671417010E+00  0.89143479925E+00  0.88000000000E+00 0.  1.
        -11    1    4    4    0    0 -0.15478507359E-01  0.28528233650E-01 -0.87491490537E-01  0.93319163856E-01  0.51100000000E-03 0.  1.
         11    1    4    4    0    0 -0.65587562282E-03  0.38818949652E-01 -0.24700794595E-01  0.46018815712E-01  0.51100000000E-03 0. -1.
</event>
<event>
 8    1  0.2929965E+004  0.1043930E+01  0.7957747E-01            NaN
         13   -1    0    0    0    0  0.00000000000E+00  0.00000000000E+00  0.74505805969E-08  0.10566000000E+00  0.10566000000E+00 0. -1.
     999900   -1    0    0    0    0 -0.00000000000E+00 -0.00000000000E+00 -0.74505805969E-08  0.93827000000E+00  0.93827000000E+00 0.  1.
     999902    2    1    2    0    0 -0.11765497884E-01 -0.35741972445E-02  0.70725794912E-02  0.10297446834E+01  0.10296469734E+01 0.  0.
     999903    2    3    3    0    0  0.11928444368E-01  0.15121783438E-01 -0.12981545487E+00  0.13865025712E+00  0.44731257047E-01 0.  0.
         14    1    1    2    0    0  0.11765497884E-01  0.35741972445E-02 -0.70725794912E-02  0.14185316601E-01  0.00000000000E+00 0.  1.
     999901    1    3    3    0    0 -0.23693942252E-01 -0.18695980683E-01  0.13688803436E+00  0.89109442628E+00  0.88000000000E+00 0. -1.
        -11    1    4    4    0    0 -0.52114615432E-02  0.22537747103E-01 -0.34629548399E-01  0.41648242690E-01  0.51100000000E-03 0. -1.
         11    1    4    4    0    0  0.17139905911E-01 -0.74159636643E-02 -0.95185906472E-01  0.97002014431E-01  0.51100000000E-03 0.  1.
</event>
<event>
 8    1  0.2929965E+004  0.1043930E+01  0.7957747E-01            NaN
         13   -1    0    0    0    0  0.00000000000E+00  0.00000000000E+00  0.74505805969E-08  0.10566000000E+00  0.10566000000E+00 0.  1.
     999900   -1    0    0    0    0 -0.00000000000E+00 -0.00000000000E+00 -0.74505805969E-08  0.93827000000E+00  0.93827000000E+00 0.  1.
     999902    2    1    2    0    0  0.13406257464E-02 -0.70887791094E-02 -0.11876375152E-01  0.10300340886E+01  0.10299403514E+01 0.  0.
     999903    2    3    3    0    0  0.10235953267E+00 -0.79622454836E-01  0.29007484227E-01  0.14035018765E+00  0.45161175681E-01 0.  0.
         14    1    1    2    0    0 -0.13406257464E-02  0.70887791094E-02  0.11876375152E-01  0.13895911392E-01  0.00000000000E+00 0.  1.
     999901    1    3    3    0    0 -0.10101890692E+00  0.72533675726E-01 -0.40883859379E-01  0.88968390096E+00  0.88000000000E+00 0.  1.
        -11    1    4    4    0    0  0.76300417235E-01 -0.76844940332E-01  0.34330518741E-01  0.11360345137E+00  0.51100000000E-03 0.  1.
         11    1    4    4    0    0  0.26059115436E-01 -0.27775145039E-02 -0.53230345147E-02  0.26746736279E-01  0.51100000000E-03 0. -1.
</event>
<event>
 8    1  0.2929965E+004  0.1043930E+01  0.7957747E-01            NaN
         13   -1    0    0    0    0  0.00000000000E+00  0.00000000000E+00  0.74505805969E-08  0.10566000000E+00  0.10566000000E+00 0. -1.
     999900   -1    0    0    0    0 -0.00000000000E+00 -0.00000000000E+00 -0.74505805969E-08  0.93827000000E+00  0.93827000000E+00 0.  1.
     999902    2    1    2    0    0 -0.12789264000E-01  0.23821711916E-02 -0.40579822082E-02  0.10303025559E+01  0.10302124293E+01 0.  0.
     999903    2    3    3    0    0  0.52112072754E-01 -0.69442889240E-01 -0.98954171235E-01  0.13992268780E+00  0.47417797960E-01 0.  0.
         14    1    1    2    0    0  0.12789264000E-01 -0.23821711916E-02  0.40579822082E-02  0.13627444106E-01  0.00000000000E+00 0.  1.
     999901    1    3    3    0    0 -0.64901336754E-01  0.71825060431E-01  0.94896189026E-01  0.89037986810E+00  0.88000000000E+00 0. -1.
        -11    1    4    4    0    0  0.48534737991E-01 -0.34662964931E-01 -0.81072256426E-01  0.10064846652E+00  0.51100000000E-03 0.  1.
         11    1    4    4    0    0  0.35773347637E-02 -0.34779924309E-01 -0.17881914809E-01  0.39274221280E-01  0.51100000000E-03 0. -1.
</event>
<event>
 8    1  0.2929965E+004  0.1043930E+01  0.7957747E-01            NaN
         13   -1    0    0    0    0  0.00000000000E+00  0.00000000000E+00  0.74505805969E-08  0.10566000000E+00  0.10566000000E+00 0.  1.
     999900   -1    0    0    0    0 -0.00000000000E+00 -0.00000000000E+00 -0.74505805969E-08  0.93827000000E+00  0.93827000000E+00 0. -1.
     999902    2    1    2    0    0 -0.12845431334E-01  0.21349075061E-02  0.47981783084E-02  0.10300524840E+01  0.10299589964E+01 0.  0.
     999903    2    3    3    0    0  0.67686073466E-01 -0.83059866646E-02  0.11314130739E+00  0.13969717896E+00  0.45430743067E-01 0.  0.
         14    1    1    2    0    0  0.12845431334E-01 -0.21349075061E-02 -0.47981783084E-02  0.13877516035E-01  0.00000000000E+00 0. -1.
     999901    1    3    3    0    0 -0.80531504800E-01  0.10440894171E-01 -0.10834312908E+00  0.89035530501E+00  0.88000000000E+00 0.  1.
        -11    1    4    4    0    0  0.69263798506E-01 -0.12887686577E-01  0.81710140091E-01  0.10789056661E+00  0.51100000000E-03 0. -1.
         11    1    4    4    0    0 -0.15777250397E-02  0.45816999128E-02  0.31431167297E-01  0.31806612348E-01  0.51100000000E-03 0.  1.
</event>
<event>
 8    1  0.2929965E+004  0.1043930E+01  0.7957747E-01            NaN
         13   -1    0    0    0    0  0.00000000000E+00  0.00000000000E+00  0.74505805969E-08  0.10566000000E+00  0.10566000000E+00 0.  1.
     999900   -1    0    0    0    0 -0.00000000000E+00 -0.00000000000E+00 -0.74505805969E-08  0.93827000000E+00  0.93827000000E+00 0.  1.
     999902    2    1    2    0    0 -0.11790559536E-01  0.95244921960E-02 -0.19626655663E-03  0.10287717756E+01  0.10286600967E+01 0.  0.
     999903    2    3    3    0    0  0.73796150322E-01 -0.80545621101E-01  0.70214320049E-01  0.13725881390E+00  0.44457422012E-01 0.  0.
         14    1    1    2    0    0  0.11790559536E-01 -0.95244921960E-02  0.19626655663E-03  0.15158224379E-01  0.00000000000E+00 0.  1.
     999901    1    3    3    0    0 -0.85586709858E-01  0.90070113297E-01 -0.70410586606E-01  0.89151296172E+00  0.88000000000E+00 0.  1.
        -11    1    4    4    0    0  0.23163481213E-01 -0.44036635799E-03  0.13864071589E-01  0.27003969828E-01  0.51100000000E-03 0. -1.
         11    1    4    4    0    0  0.50632669109E-01 -0.80105254743E-01  0.56350248460E-01  0.11025484407E+00  0.51100000000E-03 0.  1.
</event>
<event>
 8    1  0.2929965E+004  0.1043930E+01  0.7957747E-01            NaN
         13   -1    0    0    0    0  0.00000000000E+00  0.00000000000E+00  0.74505805969E-08  0.10566000000E+00  0.10566000000E+00 0. -1.
     999900   -1    0    0    0    0 -0.00000000000E+00 -0.00000000000E+00 -0.74505805969E-08  0.93827000000E+00  0.93827000000E+00 0. -1.
     999902    2    1    2    0    0 -0.43603968325E-02  0.76090340954E-02  0.10154654079E-01  0.10305125688E+01  0.10304252166E+01 0.  0.
     999903    2    3    3    0    0 -0.76060437423E-01  0.67247914918E-01 -0.85829433545E-01  0.14039424128E+00  0.45126257534E-01 0.  0.
         14    1    1    2    0    0  0.43603968325E-02 -0.76090340954E-02 -0.10154654079E-01  0.13417431195E-01  0.00000000000E+00 0.  1.
     999901    1    3    3    0    0  0.71700040590E-01 -0.59638880822E-01  0.95984087624E-01  0.89011832753E+00  0.88000000000E+00 0.  1.
        -11    1    4    4    0    0 -0.46933089495E-01  0.65282750240E-01 -0.52221573769E-01  0.95874429627E-01  0.51100000000E-03 0. -1.
         11    1    4    4    0    0 -0.29127347928E-01  0.19651646781E-02 -0.33607859776E-01  0.44519811649E-01  0.51100000000E-03 0.  1.
</event>
<event>
 8    1  0.2929965E+004  0.1043930E+01  0.7957747E-01            NaN
         13   -1    0    0    0    0  0.00000000000E+00  0.00000000000E+00  0.74505805969E-08  0.10566000000E+00  0.10566000000E+00 0. -1.
     999900   -1    0    0    0    0 -0.00000000000E+00 -0.00000000000E+00 -0.74505805969E-08  0.93827000000E+00  0.93827000000E+00 0.  1.
     999902    2    1    2    0    0 -0.99390124715E-02  0.14444066466E-02  0.16073434570E-01  0.10249767528E+01  0.10248015019E+01 0.  0.
     999903    2    3    3    0    0  0.23522744564E-01  0.79350070297E-01 -0.95245840865E-01  0.13392065881E+00  0.44868914461E-01 0.  0.
         14    1    1    2    0    0  0.99390124715E-02 -0.14444066466E-02 -0.16073434570E-01  0.18953247171E-01  0.00000000000E+00 0. -1.
     999901    1    3    3    0    0 -0.33461757035E-01 -0.77905663651E-01  0.11131927543E+00  0.89105609402E+00  0.88000000000E+00 0. -1.
        -11    1    4    4    0    0  0.71730729098E-02  0.61071374175E-01 -0.39687304611E-01  0.73188175185E-01  0.51100000000E-03 0.  1.
         11    1    4    4    0    0  0.16349671654E-01  0.18278696123E-01 -0.55558536254E-01  0.60732483621E-01  0.51100000000E-03 0. -1.
</event>
<event>
 8    1  0.2929965E+004  0.1043930E+01  0.7957747E-01            NaN
         13   -1    0    0    0    0  0.00000000000E+00  0.00000000000E+00  0.74505805969E-08  0.10566000000E+00  0.10566000000E+00 0. -1.
     999900   -1    0    0    0    0 -0.00000000000E+00 -0.00000000000E+00 -0.74505805969E-08  0.93827000000E+00  0.93827000000E+00 0. -1.
     999902    2    1    2    0    0 -0.60236502988E-02 -0.10931552214E-01 -0.72609634386E-02  0.10294903052E+01  0.10293890342E+01 0.  0.
     999903    2    3    3    0    0 -0.25241213999E-02 -0.70415939747E-01 -0.11392389655E+00  0.14104918705E+00  0.44175142385E-01 0.  0.
         14    1    1    2    0    0  0.60236502988E-02  0.10931552214E-01  0.72609634386E-02  0.14439694830E-01  0.00000000000E+00 0. -1.
     999901    1    3    3    0    0 -0.34995288989E-02  0.59484387534E-01  0.10666293311E+00  0.88844111812E+00  0.88000000000E+00 0.  1.
        -11    1    4    4    0    0 -0.29847277954E-02 -0.47840605767E-01 -0.36086199172E-01  0.60000892092E-01  0.51100000000E-03 0.  1.
         11    1    4    4    0    0  0.46060639550E-03 -0.22575333981E-01 -0.77837697374E-01  0.81048294961E-01  0.51100000000E-03 0. -1.
</event>
<event>
 8    1  0.2929965E+004  0.1043930E+01  0.7957747E-01            NaN
         13   -1    0    0    0    0  0.00000000000E+00  0.00000000000E+00  0.74505805969E-08  0.10566000000E+00  0.10566000000E+00 0.  1.
     999900   -1    0    0    0    0 -0.00000000000E+00 -0.00000000000E+00 -0.74505805969E-08  0.93827000000E+00  0.93827000000E+00 0. -1.
     999902    2    1    2    0    0 -0.64898299305E-02  0.19818405160E-02 -0.12065805671E-01  0.10300869783E+01  0.10299939580E+01 0.  0.
     999903    2    3    3    0    0  0.63813792152E-02  0.99782463766E-01  0.86326775613E-01  0.13912585117E+00  0.43662663692E-01 0.  0.
         14    1    1    2    0    0  0.64898299305E-02 -0.19818405160E-02  0.12065805671E-01  0.13843021739E-01  0.00000000000E+00 0.  1.
     999901    1    3    3    0    0 -0.12871209146E-01 -0.97800623250E-01 -0.98392581284E-01  0.89096112709E+00  0.88000000000E+00 0.  1.
        -11    1    4    4    0    0 -0.40730056616E-02  0.59099411157E-01  0.23900040934E-01  0.63881161948E-01  0.51100000000E-03 0. -1.
         11    1    4    4    0    0  0.10454384877E-01  0.40683052609E-01  0.62426734678E-01  0.75244689223E-01  0.51100000000E-03 0.  1.
</event>
