<event>
 8    1  0.2190512E+004  0.1043930E+01  0.7957747E-01            NaN
         13   -1    0    0    0    0  0.00000000000E+00  0.00000000000E+00  0.74505805969E-08  0.10566000000E+00  0.10566000000E+00 0. -1.
     999900   -1    0    0    0    0 -0.00000000000E+00 -0.00000000000E+00 -0.74505805969E-08  0.93827000000E+00  0.93827000000E+00 0. -1.
     999902    2    1    2    0    0 -0.79831349448E-02 -0.12045138049E-01 -0.34164407407E-02  0.10290811663E+01  0.10289740322E+01 0.  0.
     999903    2    3    3    0    0 -0.10777415337E-01 -0.91481565681E-01 -0.96143100451E-01  0.14064648248E+00  0.45309024806E-01 0.  0.
         14    1    1    2    0    0  0.79831349448E-02  0.12045138049E-01  0.34164407407E-02  0.14848833675E-01  0.00000000000E+00 0. -1.
     999901    1    3    3    0    0  0.27942803926E-02  0.79436427632E-01  0.92726659710E-01  0.88843468385E+00  0.88000000000E+00 0.  1.
        -11    1    4    4    0    0 -0.26246325186E-01 -0.58115232284E-01 -0.74117126353E-01  0.97774533234E-01  0.51100000000E-03 0.  1.
         11    1    4    4    0    0  0.15468909848E-01 -0.33366333396E-01 -0.22025974098E-01  0.42871949246E-01  0.51100000000E-03 0. -1.
</event>
<event>
 8    1  0.2190512E+004  0.1043930E+01  0.7957747E-01            NaN
         13   -1    0    0    0    0  0.00000000000E+00  0.00000000000E+00  0.74505805969E-08  0.10566000000E+00  0.10566000000E+00 0. -1.
     999900   -1    0    0    0    0 -0.00000000000E+00 -0.00000000000E+00 -0.74505805969E-08  0.93827000000E+00  0.93827000000E+00 0. -1.
     999902    2    1    2    0    0  0.12455901004E-01 -0.26883704040E-02 -0.51394287563E-02  0.10301898933E+01  0.10300982602E+01 0.  0.
     999903    2    3    3    0    0 -0.12705388248E+00 -0.26918176645E-01 -0.18321196915E-01  0.13877314325E+00  0.45332568240E-01 0.  0.
         14    1    1    2    0    0 -0.12455901004E-01  0.26883704040E-02  0.51394287563E-02  0.13740106738E-01  0.00000000000E+00 0. -1.
     999901    1    3    3    0    0  0.13950978348E+00  0.24229806241E-01  0.13181768159E-01  0.89141675002E+00  0.88000000000E+00 0.  1.
        -11    1    4    4    0    0 -0.57598705147E-01 -0.30504576953E-01  0.51172387772E-02  0.65380328107E-01  0.51100000000E-03 0. -1.
         11    1    4    4    0    0 -0.69455177331E-01  0.35864003076E-02 -0.23438435693E-01  0.73392815138E-01  0.51100000000E-03 0.  1.
</event>
<event>
 8    1  0.2190512E+004  0.1043930E+01  0.7957747E-01            NaN
         13   -1    0    0    0    0  0.00000000000E+00  0.00000000000E+00  0.74505805969E-08  0.10566000000E+00  0.10566000000E+00 0. -1.
     999900   -1    0    0    0    0 -0.00000000000E+00 -0.00000000000E+00 -0.74505805969E-08  0.93827000000E+00  0.93827000000E+00 0.  1.
     999902    2    1    2    0    0 -0.10670579920E-01  0.86928026918E-02  0.22602100376E-02  0.10299824323E+01  0.10298879921E+01 0.  0.
     999903    2    3    3    0    0  0.94158130479E-01  0.88321804412E-01  0.31417117982E-01  0.13971283175E+00  0.43198904883E-01 0.  0.
         14    1    1    2    0    0  0.10670579920E-01 -0.86928026918E-02 -0.22602100376E-02  0.13947567669E-01  0.00000000000E+00 0.  1.
     999901    1    3    3    0    0 -0.10482871040E+00 -0.79629001720E-01 -0.29156907945E-01  0.89026960058E+00  0.88000000000E+00 0.  1.
        -11    1    4    4    0    0  0.62230738622E-01  0.31058841697E-01  0.24687573696E-01  0.73804159049E-01  0.51100000000E-03 0. -1.
         11    1    4    4    0    0  0.31927391857E-01  0.57262962715E-01  0.67295442865E-02  0.65908672700E-01  0.51100000000E-03 0.  1.
</event>
<event>
 8    1  0.2190512E+004  0.1043930E+01  0.7957747E-01            NaN
         13   -1    0    0    0    0  0.00000000000E+00  0.00000000000E+00  0.74505805969E-08  0.10566000000E+00  0.10566000000E+00 0. -1.
     999900   -1    0    0    0    0 -0.00000000000E+00 -0.00000000000E+00 -0.74505805969E-08  0.93827000000E+00  0.93827000000E+00 0.  1.
     999902    2    1    2    0    0  0.86132519215E-02 -0.22067764623E-02  0.36137976422E-02  0.10343322136E+01  0.10342876827E+01 0.  0.
     999903    2    3    3    0    0  0.13640182258E+00 -0.48577695607E-02  0.17561832819E-01  0.14498891976E+00  0.45654285164E-01 0.  0.
         14    1    1    2    0    0 -0.86132519215E-02  0.22067764623E-02 -0.36137976422E-02  0.95977864331E-02  0.00000000000E+00 0.  1.
     999901    1    3    3    0    0 -0.12778857065E+00  0.26509930984E-02 -0.13948035177E-01  0.88934329381E+00  0.88000000000E+00 0.  1.
        -11    1    4    4    0    0  0.81157701150E-01  0.83752891950E-03 -0.12042613327E-01  0.82052175885E-01  0.51100000000E-03 0. -1.
         11    1    4    4    0    0  0.55244121426E-01 -0.56952984802E-02  0.29604446146E-01  0.62936743875E-01  0.51100000000E-03 0.  1.
</event>
<event>
 8    1  0.2190512E+004  0.1043930E+01  0.7957747E-01            NaN
         13   -1    0    0    0    0  0.00000000000E+00  0.00000000000E+00  0.74505805969E-08  0.10566000000E+00  0.10566000000E+00 0. -1.
     999900   -1    0    0    0    0 -0.00000000000E+00 -0.00000000000E+00 -0.74505805969E-08  0.93827000000E+00  0.93827000000E+00 0. -1.
     999902    2    1    2    0    0  0.64744014549E-04 -0.14175372250E-01 -0.22100679402E-02  0.10295832314E+01  0.10294832687E+01 0.  0.
     999903    2    3    3    0    0  0.10323545935E+00 -0.74080804912E-01  0.40822372034E-01  0.14049119548E+00  0.43883758121E-01 0.  0.
         14    1    1    2    0    0 -0.64744014549E-04  0.14175372250E-01  0.22100679402E-02  0.14346768644E-01  0.00000000000E+00 0. -1.
     999901    1    3    3    0    0 -0.10317071533E+00  0.59905432661E-01 -0.43032439974E-01  0.88909203587E+00  0.88000000000E+00 0.  1.
        -11    1    4    4    0    0  0.42196788331E-01 -0.38447133987E-01  0.40175893532E-01  0.69807697279E-01  0.51100000000E-03 0.  1.
         11    1    4    4    0    0  0.61038671015E-01 -0.35633670924E-01  0.64647850174E-03  0.70683498203E-01  0.51100000000E-03 0. -1.
</event>
<event>
 8    1  0.2190512E+004  0.1043930E+01  0.7957747E-01            NaN
         13   -1    0    0    0    0  0.00000000000E+00  0.00000000000E+00  0.74505805969E-08  0.10566000000E+00  0.10566000000E+00 0.  1.
     999900   -1    0    0    0    0 -0.00000000000E+00 -0.00000000000E+00 -0.74505805969E-08  0.93827000000E+00  0.93827000000E+00 0. -1.
     999902    2    1    2    0    0 -0.13215938003E-01  0.33491443191E-03 -0.30111363784E-02  0.10303712343E+01  0.10302820198E+01 0.  0.
     999903    2    3    3    0    0  0.40362782676E-01 -0.11157306768E+00 -0.58595909220E-01  0.13993103825E+00  0.45491880939E-01 0.  0.
         14    1    1    2    0    0  0.13215938003E-01 -0.33491443191E-03  0.30111363784E-02  0.13558765699E-01  0.00000000000E+00 0. -1.
     999901    1    3    3    0    0 -0.53578720679E-01  0.11190798211E+00  0.55584772842E-01  0.89044019605E+00  0.88000000000E+00 0.  1.
        -11    1    4    4    0    0  0.96690673655E-02 -0.48786026512E-01 -0.48220874380E-01  0.69275400349E-01  0.51100000000E-03 0. -1.
         11    1    4    4    0    0  0.30693715310E-01 -0.62787041170E-01 -0.10375034841E-01  0.70655637902E-01  0.51100000000E-03 0.  1.
</event>
<event>
 8    1  0.2190512E+004  0.1043930E+01  0.7957747E-01            NaN
         13   -1    0    0    0    0  0.00000000000E+00  0.00000000000E+00  0.74505805969E-08  0.10566000000E+00  0.10566000000E+00 0. -1.
     999900   -1    0    0    0    0 -0.00000000000E+00 -0.00000000000E+00 -0.74505805969E-08  0.93827000000E+00  0.93827000000E+00 0.  1.
     999902    2    1    2    0    0 -0.12262633131E-02  0.64720764751E-02  0.13507995488E-01  0.10289014459E+01  0.10287916835E+01 0.  0.
     999903    2    3    3    0    0 -0.12365320902E+00 -0.42812574424E-01 -0.99876848390E-02  0.13875012123E+00  0.45042309694E-01 0.  0.
         14    1    1    2    0    0  0.12262633131E-02 -0.64720764751E-02 -0.13507995488E-01  0.15028554079E-01  0.00000000000E+00 0.  1.
     999901    1    3    3    0    0  0.12242694571E+00  0.49284650900E-01  0.23495680327E-01  0.89015132469E+00  0.88000000000E+00 0. -1.
        -11    1    4    4    0    0 -0.64002560180E-01 -0.43432700948E-01  0.40818346065E-02  0.77457405817E-01  0.51100000000E-03 0.  1.
         11    1    4    4    0    0 -0.59650648845E-01  0.62012652330E-03 -0.14069519446E-01  0.61292715415E-01  0.51100000000E-03 0. -1.
</event>
<event>
 7    1  0.3184601E+004  0.1043930E+01  0.7957747E-01            NaN
         13   -1    0    0    0    0  0.00000000000E+00  0.00000000000E+00  0.74505805969E-08  0.10566000000E+00  0.10566000000E+00 0. -1.
     999900   -1    0    0    0    0 -0.00000000000E+00 -0.00000000000E+00 -0.74505805969E-08  0.93827000000E+00  0.93827000000E+00 0.  1.
     999903    2    1    2    0    0  0.73942619986E-01 -0.64049636707E-01 -0.17099427256E-01  0.10805646744E+00  0.42590406546E-01 0.  0.
         14    1    1    2    0    0 -0.27420645981E-01 -0.39824050390E-01 -0.94090029098E-03  0.48360439502E-01  0.00000000000E+00 0. -1.
     999901    1    1    2    0    0 -0.46521974006E-01  0.10387368710E+00  0.18040327547E-01  0.88751309306E+00  0.88000000000E+00 0. -1.
        -11    1    3    3    0    0  0.44815552183E-01 -0.34744653125E-01  0.11422347010E-01  0.57847694600E-01  0.51100000000E-03 0. -1.
         11    1    3    3    0    0  0.29127067803E-01 -0.29304983582E-01 -0.28521774266E-01  0.50208772837E-01  0.51100000000E-03 0.  1.
</event>
<event>
 8    1  0.2190512E+004  0.1043930E+01  0.7957747E-01            NaN
         13   -1    0    0    0    0  0.00000000000E+00  0.00000000000E+00  0.74505805969E-08  0.10566000000E+00  0.10566000000E+00 0.  1.
     999900   -1    0    0    0    0 -0.00000000000E+00 -0.00000000000E+00 -0.74505805969E-08  0.93827000000E+00  0.93827000000E+00 0.  1.
     999902    2    1    2    0    0 -0.13064811219E-01 -0.41506909139E-02  0.10708775851E-02  0.10301799343E+01  0.10300881675E+01 0.  0.
     999903    2    3    3    0    0  0.52096017109E-01 -0.12032528716E+00  0.18930558840E-01  0.13997690210E+00  0.45199528062E-01 0.  0.
         14    1    1    2    0    0  0.13064811219E-01  0.41506909139E-02 -0.10708775851E-02  0.13750065675E-01  0.00000000000E+00 0.  1.
     999901    1    3    3    0    0 -0.65160828328E-01  0.11617459624E+00 -0.17859681255E-01  0.89020303222E+00  0.88000000000E+00 0. -1.
        -11    1    4    4    0    0  0.41990818784E-01 -0.42041503940E-01  0.33313286175E-02  0.59515340770E-01  0.51100000000E-03 0. -1.
         11    1    4    4    0    0  0.10105198325E-01 -0.78283783216E-01  0.15599230223E-01  0.80461561334E-01  0.51100000000E-03 0.  1.
</event>
<event>
 8    1  0.2190512E+004  0.1043930E+01  0.7957747E-01            NaN
         13   -1    0    0    0    0  0.00000000000E+00  0.00000000000E+00  0.74505805969E-08  0.10566000000E+00  0.10566000000E+00 0.  1.
     999900   -1    0    0    0    0 -0.00000000000E+00 -0.00000000000E+00 -0.74505805969E-08  0.93827000000E+00  0.93827000000E+00 0. -1.
     999902    2    1    2    0    0 -0.12389066192E-01 -0.41966069701E-02  0.19034708766E-03  0.10308480772E+01  0.10307650662E+01 0.  0.
     999903    2    3    3    0    0  0.29122810554E-01  0.82051741848E-01  0.10009416208E+00  0.14003789216E+00  0.44845774863E-01 0.  0.
         14    1    1    2    0    0  0.12389066192E-01  0.41966069701E-02 -0.19034708766E-03  0.13081922763E-01  0.00000000000E+00 0.  1.
     999901    1    3    3    0    0 -0.41511876746E-01 -0.86248348818E-01 -0.99903814994E-01  0.89081018508E+00  0.88000000000E+00 0. -1.
        -11    1    4    4    0    0 -0.26638399042E-02  0.87747421586E-02  0.37357357197E-01  0.38469798553E-01  0.51100000000E-03 0. -1.
         11    1    4    4    0    0  0.31786650458E-01  0.73276999690E-01  0.62736804885E-01  0.10156809361E+00  0.51100000000E-03 0.  1.
</event>
<event>
 8    1  0.2190512E+004  0.1043930E+01  0.7957747E-01            NaN
         13   -1    0    0    0    0  0.00000000000E+00  0.00000000000E+00  0.74505805969E-08  0.10566000000E+00  0.10566000000E+00 0.  1.
     999900   -1    0    0    0    0 -0.00000000000E+00 -0.00000000000E+00 -0.74505805969E-08  0.93827000000E+00  0.93827000000E+00 0. -1.
     999902    2    1    2    0    0 -0.66846983268E-02  0.95518395646E-02  0.14285974360E-01  0.10254905886E+01  0.10253247950E+01 0.  0.
     999903    2    3    3    0    0  0.59771080567E-01 -0.10900406492E+00 -0.24555407393E-01  0.13421031504E+00  0.44215069702E-01 0.  0.
         14    1    1    2    0    0  0.66846983268E-02 -0.95518395646E-02 -0.14285974360E-01  0.18439411438E-01  0.00000000000E+00 0. -1.
     999901    1    3    3    0    0 -0.66455778894E-01  0.11855590449E+00  0.38841381752E-01  0.89128027352E+00  0.88000000000E+00 0.  1.
        -11    1    4    4    0    0  0.13424611221E-01 -0.10715270726E-01  0.10365268327E-01  0.20068311380E-01  0.51100000000E-03 0. -1.
         11    1    4    4    0    0  0.46346469345E-01 -0.98288794196E-01 -0.34920675719E-01  0.11414200366E+00  0.51100000000E-03 0.  1.
</event>
<event>
 8    1  0.2190512E+004  0.1043930E+01  0.7957747E-01            NaN
         13   -1    0    0    0    0  0.00000000000E+00  0.00000000000E+00  0.74505805969E-08  0.10566000000E+00  0.10566000000E+00 0. -1.
     999900   -1    0    0    0    0 -0.00000000000E+00 -0.00000000000E+00 -0.74505805969E-08  0.93827000000E+00  0.93827000000E+00 0. -1.
     999902    2    1    2    0    0  0.17430714238E-02  0.44040645729E-03 -0.14732931106E-01  0.10290877793E+01  0.10289807413E+01 0.  0.
     999903    2    3    3    0    0 -0.38931723252E-01  0.62122311911E-01 -0.11131894180E+00  0.14072526669E+00  0.45131288118E-01 0.  0.
         14    1    1    2    0    0 -0.17430714238E-02 -0.44040645729E-03  0.14732931106E-01  0.14842220684E-01  0.00000000000E+00 0. -1.
     999901    1    3    3    0    0  0.40674794676E-01 -0.61681905454E-01  0.96586010698E-01  0.88836251263E+00  0.88000000000E+00 0.  1.
        -11    1    4    4    0    0 -0.99533059427E-02  0.12024647494E-01 -0.64260392518E-01  0.66131079034E-01  0.51100000000E-03 0.  1.
         11    1    4    4    0    0 -0.28978417309E-01  0.50097664417E-01 -0.47058549286E-01  0.74594187653E-01  0.51100000000E-03 0. -1.
</event>
<event>
 8    1  0.2190512E+004  0.1043930E+01  0.7957747E-01            NaN
         13   -1    0    0    0    0  0.00000000000E+00  0.00000000000E+00  0.74505805969E-08  0.10566000000E+00  0.10566000000E+00 0. -1.
     999900   -1    0    0    0    0 -0.00000000000E+00 -0.00000000000E+00 -0.74505805969E-08  0.93827000000E+00  0.93827000000E+00 0. -1.
     999902    2    1    2    0    0  0.37283997695E-02  0.29806374852E-02  0.12983127528E-01  0.10300971852E+01  0.10300043030E+01 0.  0.
     999903    2    3    3    0    0  0.92155336991E-01  0.75391126331E-01  0.61675942662E-01  0.14137136001E+00  0.44782937193E-01 0.  0.
         14    1    1    2    0    0 -0.37283997695E-02 -0.29806374852E-02 -0.12983127528E-01  0.13832814792E-01  0.00000000000E+00 0.  1.
     999901    1    3    3    0    0 -0.88426937221E-01 -0.72410488846E-01 -0.48692815134E-01  0.88872582519E+00  0.88000000000E+00 0. -1.
        -11    1    4    4    0    0  0.85410445118E-01  0.46139972751E-01  0.44612314303E-01  0.10683801257E+00  0.51100000000E-03 0. -1.
         11    1    4    4    0    0  0.67448918726E-02  0.29251153580E-01  0.17063628359E-01  0.34533347447E-01  0.51100000000E-03 0.  1.
</event>
<event>
 8    1  0.2190512E+004  0.1043930E+01  0.7957747E-01            NaN
         13   -1    0    0    0    0  0.00000000000E+00  0.00000000000E+00  0.74505805969E-08  0.10566000000E+00  0.10566000000E+00 0. -1.
     999900   -1    0    0    0    0 -0.00000000000E+00 -0.00000000000E+00 -0.74505805969E-08  0.93827000000E+00  0.93827000000E+00 0.  1.
     999902    2    1    2    0    0  0.53653209096E-02 -0.12888905082E-01 -0.61829057603E-02  0.10286611144E+01  0.10285477867E+01 0.  0.
     999903    2    3    3    0    0  0.52525946336E-01 -0.26173909696E-01 -0.11909297472E+00  0.14009524766E+00  0.44715693014E-01 0.  0.
         14    1    1    2    0    0 -0.53653209096E-02  0.12888905082E-01  0.61829057603E-02  0.15268885562E-01  0.00000000000E+00 0. -1.
     999901    1    3    3    0    0 -0.47160625427E-01  0.13285004615E-01  0.11291006896E+00  0.88856586678E+00  0.88000000000E+00 0. -1.
        -11    1    4    4    0    0  0.92544683365E-02 -0.26577699223E-01 -0.64915200038E-01  0.70754954576E-01  0.51100000000E-03 0. -1.
         11    1    4    4    0    0  0.43271478000E-01  0.40378952657E-03 -0.54177774679E-01  0.69340293080E-01  0.51100000000E-03 0.  1.
</event>
<event>
 8    1  0.2292977E+004  0.1043930E+01  0.7957747E-01            NaN
         13   -1    0    0    0    0  0.00000000000E+00  0.00000000000E+00  0.74505805969E-08  0.10566000000E+00  0.10566000000E+00 0.  1.
     999900   -1    0    0    0    0 -0.00000000000E+00 -0.00000000000E+00 -0.74505805969E-08  0.93827000000E+00  0.93827000000E+00 0. -1.
     999902    2    1    2    0    0 -0.10625973199E-01  0.81285427462E-02 -0.35008231975E-02  0.10301010349E+01  0.10300082047E+01 0.  0.
     999903    2    3    3    0    0 -0.12015402451E+00  0.58405725593E-01 -0.13756326582E-01  0.14182778609E+00  0.45581421633E-01 0.  0.
         14    1    1    2    0    0  0.10625973199E-01 -0.81285427462E-02  0.35008231975E-02  0.13828965134E-01  0.00000000000E+00 0.  1.
     999901    1    3    3    0    0  0.10952805131E+00 -0.50277182847E-01  0.10255503384E-01  0.88827324877E+00  0.88000000000E+00 0.  1.
        -11    1    4    4    0    0 -0.50932730985E-01  0.32932901716E-02  0.52999365627E-02  0.51316072476E-01  0.51100000000E-03 0.  1.
         11    1    4    4    0    0 -0.69221293527E-01  0.55112435421E-01 -0.19056263145E-01  0.90511713616E-01  0.51100000000E-03 0. -1.
</event>
<event>
 8    1  0.2190512E+004  0.1043930E+01  0.7957747E-01            NaN
         13   -1    0    0    0    0  0.00000000000E+00  0.00000000000E+00  0.74505805969E-08  0.10566000000E+00  0.10566000000E+00 0. -1.
     999900   -1    0    0    0    0 -0.00000000000E+00 -0.00000000000E+00 -0.74505805969E-08  0.93827000000E+00  0.93827000000E+00 0.  1.
     999902    2    1    2    0    0 -0.47192605564E-03  0.12643861576E-01 -0.42622115689E-02  0.10305787305E+01  0.10304922432E+01 0.  0.
     999903    2    3    3    0    0 -0.87778447392E-02 -0.65758610075E-01 -0.11582802931E+00  0.14003795797E+00  0.42346805568E-01 0.  0.
         14    1    1    2    0    0  0.47192605564E-03 -0.12643861576E-01  0.42622115689E-02  0.13351269498E-01  0.00000000000E+00 0. -1.
     999901    1    3    3    0    0  0.83059186835E-02  0.78402471650E-01  0.11156581774E+00  0.89054077253E+00  0.88000000000E+00 0.  1.
        -11    1    4    4    0    0  0.14030198336E-01 -0.43093066235E-01 -0.55323109579E-01  0.71517595019E-01  0.51100000000E-03 0.  1.
         11    1    4    4    0    0 -0.22808043075E-01 -0.22665543840E-01 -0.60504919734E-01  0.68520362955E-01  0.51100000000E-03 0. -1.
</event>
<event>
 8    1  0.2190512E+004  0.1043930E+01  0.7957747E-01            NaN
         13   -1    0    0    0    0  0.00000000000E+00  0.00000000000E+00  0.74505805969E-08  0.10566000000E+00  0.10566000000E+00 0. -1.
     999900   -1    0    0    0    0 -0.00000000000E+00 -0.00000000000E+00 -0.74505805969E-08  0.93827000000E+00  0.93827000000E+00 0.  1.
     999902    2    1    2    0    0 -0.10155074136E-01  0.98330816896E-02  0.75351610097E-03  0.10297743364E+01  0.10296770372E+01 0.  0.
     999903    2    3    3    0    0 -0.91694971975E-01  0.19278400592E-01 -0.94663226213E-01  0.14081858736E+00  0.45706930920E-01 0.  0.
         14    1    1    2    0    0  0.10155074136E-01 -0.98330816896E-02 -0.75351610097E-03  0.14155663627E-01  0.00000000000E+00 0. -1.
     999901    1    3    3    0    0  0.81539897839E-01 -0.94453189021E-02  0.95416742314E-01  0.88895574901E+00  0.88000000000E+00 0. -1.
        -11    1    4    4    0    0 -0.46683220557E-01 -0.20576555155E-02 -0.72591479140E-01  0.86332734189E-01  0.51100000000E-03 0. -1.
         11    1    4    4    0    0 -0.45011751418E-01  0.21336056107E-01 -0.22071747073E-01  0.54485853171E-01  0.51100000000E-03 0.  1.
</event>
<event>
 8    1  0.2190512E+004  0.1043930E+01  0.7957747E-01            NaN
         13   -1    0    0    0    0  0.00000000000E+00  0.00000000000E+00  0.74505805969E-08  0.10566000000E+00  0.10566000000E+00 0.  1.
     999900   -1    0    0    0    0 -0.00000000000E+00 -0.00000000000E+00 -0.74505805969E-08  0.93827000000E+00  0.93827000000E+00 0.  1.
     999902    2    1    2    0    0  0.14174308162E-01 -0.11033165617E-02 -0.14047281632E-02  0.10296435876E+01  0.10295444701E+01 0.  0.
     999903    2    3    3    0    0 -0.74499388992E-01  0.51609397392E-03 -0.10931510424E+00  0.13862714757E+00  0.41439941078E-01 0.  0.
         14    1    1    2    0    0 -0.14174308162E-01  0.11033165617E-02  0.14047281632E-02  0.14286412444E-01  0.00000000000E+00 0. -1.
     999901    1    3    3    0    0  0.88673697154E-01 -0.16194105356E-02  0.10791037607E+00  0.89101643998E+00  0.88000000000E+00 0. -1.
        -11    1    4    4    0    0 -0.27122977344E-01 -0.11579419551E-01 -0.69737534516E-01  0.75718714321E-01  0.51100000000E-03 0.  1.
         11    1    4    4    0    0 -0.47376411648E-01  0.12095513525E-01 -0.39577569721E-01  0.62908433251E-01  0.51100000000E-03 0. -1.
</event>
<event>
 8    1  0.2190512E+004  0.1043930E+01  0.7957747E-01            NaN
         13   -1    0    0    0    0  0.00000000000E+00  0.00000000000E+00  0.74505805969E-08  0.10566000000E+00  0.10566000000E+00 0.  1.
     999900   -1    0    0    0    0 -0.00000000000E+00 -0.00000000000E+00 -0.74505805969E-08  0.93827000000E+00  0.93827000000E+00 0.  1.
     999902    2    1    2    0    0 -0.48779122819E-02  0.91632387673E-02  0.64668772289E-02  0.10316997312E+01  0.10316272369E+01 0.  0.
     999903    2    3    3    0    0  0.18584324416E-01 -0.97437842253E-01 -0.90296679968E-01  0.13969219033E+00  0.38998812932E-01 0.  0.
         14    1    1    2    0    0  0.48779122819E-02 -0.91632387673E-02 -0.64668772289E-02  0.12230268764E-01  0.00000000000E+00 0. -1.
     999901    1    3    3    0    0 -0.23462236698E-01  0.10660108102E+00  0.96763557197E-01  0.89200754090E+00  0.88000000000E+00 0. -1.
        -11    1    4    4    0    0 -0.54407200503E-02 -0.57112356010E-02 -0.20442977834E-01  0.21917940380E-01  0.51100000000E-03 0. -1.
         11    1    4    4    0    0  0.24025044467E-01 -0.91726606652E-01 -0.69853702133E-01  0.11777424995E+00  0.51100000000E-03 0.  1.
</event>
<event>
 8    1  0.2190512E+004  0.1043930E+01  0.7957747E-01            NaN
         13   -1    0    0    0    0  0.00000000000E+00  0.00000000000E+00  0.74505805969E-08  0.10566000000E+00  0.10566000000E+00 0.  1.
     999900   -1    0    0    0    0 -0.00000000000E+00 -0.00000000000E+00 -0.74505805969E-08  0.93827000000E+00  0.93827000000E+00 0.  1.
     999902    2    1    2    0    0  0.93971452852E-02 -0.11440589740E-01 -0.97150994895E-02  0.10262219061E+01  0.10260691126E+01 0.  0.
     999903    2    3    3    0    0 -0.63112780863E-01  0.16075591555E-01 -0.11275457481E+00  0.13682212918E+00  0.42012535530E-01 0.  0.
         14    1    1    2    0    0 -0.93971452852E-02  0.11440589740E-01  0.97150994895E-02  0.17708093946E-01  0.00000000000E+00 0.  1.
     999901    1    3    3    0    0  0.72509926148E-01 -0.27516181296E-01  0.10303947532E+00  0.88939977687E+00  0.88000000000E+00 0. -1.
        -11    1    4    4    0    0 -0.51003412616E-01  0.27097923279E-01 -0.68312833346E-01  0.89456972145E-01  0.51100000000E-03 0.  1.
         11    1    4    4    0    0 -0.12109368247E-01 -0.11022331724E-01 -0.44441741464E-01  0.47365157039E-01  0.51100000000E-03 0. -1.
</event>
<event>
 8    1  0.2190512E+004  0.1043930E+01  0.7957747E-01            NaN
         13   -1    0    0    0    0  0.00000000000E+00  0.00000000000E+00  0.74505805969E-08  0.10566000000E+00  0.10566000000E+00 0. -1.
     999900   -1    0    0    0    0 -0.00000000000E+00 -0.00000000000E+00 -0.74505805969E-08  0.93827000000E+00  0.93827000000E+00 0. -1.
     999902    2    1    2    0    0  0.46436566473E-03 -0.76047454875E-02 -0.11491521817E-01  0.10301422205E+01  0.10300499462E+01 0.  0.
     999903    2    3    3    0    0 -0.48770165383E-01 -0.12226115471E+00 -0.24558294780E-01  0.14124353575E+00  0.44947831608E-01 0.  0.
         14    1    1    2    0    0 -0.46436566473E-03  0.76047454875E-02  0.11491521817E-01  0.13787779483E-01  0.00000000000E+00 0. -1.
     999901    1    3    3    0    0  0.49234531048E-01  0.11465640922E+00  0.13066772962E-01  0.88889868477E+00  0.88000000000E+00 0.  1.
        -11    1    4    4    0    0  0.71449909767E-02 -0.13295924222E-01 -0.95094081384E-02  0.17847197570E-01  0.51100000000E-03 0.  1.
         11    1    4    4    0    0 -0.55915156360E-01 -0.10896523049E+00 -0.15048886641E-01  0.12339633818E+00  0.51100000000E-03 0. -1.
</event>
<event>
 8    1  0.2190512E+004  0.1043930E+01  0.7957747E-01            NaN
         13   -1    0    0    0    0  0.00000000000E+00  0.00000000000E+00  0.74505805969E-08  0.10566000000E+00  0.10566000000E+00 0.  1.
     999900   -1    0    0    0    0 -0.00000000000E+00 -0.00000000000E+00 -0.74505805969E-08  0.93827000000E+00  0.93827000000E+00 0. -1.
     999902    2    1    2    0    0 -0.86740642340E-02  0.85628582896E-02  0.28314328655E-03  0.10317381132E+01  0.10316660759E+01 0.  0.
     999903    2    3    3    0    0 -0.91730726154E-01 -0.97607146176E-01  0.18177901837E-02  0.14147251576E+00  0.45491617338E-01 0.  0.
         14    1    1    2    0    0  0.86740642340E-02 -0.85628582896E-02 -0.28314328655E-03  0.12191886751E-01  0.00000000000E+00 0. -1.
     999901    1    3    3    0    0  0.83056661920E-01  0.10617000447E+00 -0.15346468972E-02  0.89026559749E+00  0.88000000000E+00 0. -1.
        -11    1    4    4    0    0 -0.57575703854E-01 -0.77625938454E-01  0.18711909309E-01  0.98443611606E-01  0.51100000000E-03 0. -1.
         11    1    4    4    0    0 -0.34155022300E-01 -0.19981207722E-01 -0.16894119125E-01  0.43028904150E-01  0.51100000000E-03 0.  1.
</event>
<event>
 8    1  0.2190512E+004  0.1043930E+01  0.7957747E-01            NaN
         13   -1    0    0    0    0  0.00000000000E+00  0.00000000000E+00  0.74505805969E-08  0.10566000000E+00  0.10566000000E+00 0. -1.
     999900   -1    0    0    0    0 -0.00000000000E+00 -0.00000000000E+00 -0.74505805969E-08  0.93827000000E+00  0.93827000000E+00 0. -1.
     999902    2    1    2    0    0  0.11462675204E-01 -0.26417246034E-03  0.84328049826E-02  0.10296971187E+01  0.10295987478E+01 0.  0.
     999903    2    3    3    0    0  0.10818922451E+00 -0.12655998820E-01  0.79142940398E-01  0.14149133965E+00  0.43486912689E-01 0.  0.
         14    1    1    2    0    0 -0.11462675204E-01  0.26417246034E-03 -0.84328049826E-02  0.14232881290E-01  0.00000000000E+00 0.  1.
     999901    1    3    3    0    0 -0.96726549307E-01  0.12391826360E-01 -0.70710135415E-01  0.88820577906E+00  0.88000000000E+00 0.  1.
        -11    1    4    4    0    0  0.87057310455E-01 -0.49446402074E-02  0.39109626914E-01  0.95568032358E-01  0.51100000000E-03 0.  1.
         11    1    4    4    0    0  0.21131914057E-01 -0.77113586130E-02  0.40033313484E-01  0.45923307295E-01  0.51100000000E-03 0. -1.
</event>
<event>
 8    1  0.2190512E+004  0.1043930E+01  0.7957747E-01            NaN
         13   -1    0    0    0    0  0.00000000000E+00  0.00000000000E+00  0.74505805969E-08  0.10566000000E+00  0.10566000000E+00 0. -1.
     999900   -1    0    0    0    0 -0.00000000000E+00 -0.00000000000E+00 -0.74505805969E-08  0.93827000000E+00  0.93827000000E+00 0. -1.
     999902    2    1    2    0    0 -0.35866235976E-03  0.60411317341E-02 -0.12961849397E-01  0.10296249851E+01  0.10295256075E+01 0.  0.
     999903    2    3    3    0    0  0.38573500138E-01 -0.35610027027E-01 -0.12290017993E+00  0.14095352229E+00  0.44804601125E-01 0.  0.
         14    1    1    2    0    0  0.35866235976E-03 -0.60411317341E-02  0.12961849397E-01  0.14305014894E-01  0.00000000000E+00 0. -1.
     999901    1    3    3    0    0 -0.38932162498E-01  0.41651158761E-01  0.10993833053E+00  0.88867146282E+00  0.88000000000E+00 0.  1.
        -11    1    4    4    0    0  0.17574032475E-01 -0.34344096641E-02 -0.85412367378E-01  0.87270701895E-01  0.51100000000E-03 0. -1.
         11    1    4    4    0    0  0.20999467663E-01 -0.32175617363E-01 -0.37487812550E-01  0.53682820396E-01  0.51100000000E-03 0.  1.
</event>
<event>
 8    1  0.2190512E+004  0.1043930E+01  0.7957747E-01            NaN
         13   -1    0    0    0    0  0.00000000000E+00  0.00000000000E+00  0.74505805969E-08  0.10566000000E+00  0.10566000000E+00 0. -1.
     999900   -1    0    0    0    0 -0.00000000000E+00 -0.00000000000E+00 -0.74505805969E-08  0.93827000000E+00  0.93827000000E+00 0. -1.
     999902    2    1    2    0    0 -0.76964931878E-02  0.11560978890E-01  0.39479883851E-02  0.10294912032E+01  0.10293899449E+01 0.  0.
     999903    2    3    3    0    0  0.73794336032E-01  0.38741417388E-01 -0.10159350909E+00  0.13903146849E+00  0.45409323804E-01 0.  0.
         14    1    1    2    0    0  0.76964931878E-02 -0.11560978890E-01 -0.39479883851E-02  0.14438796784E-01  0.00000000000E+00 0.  1.
     999901    1    3    3    0    0 -0.81490829220E-01 -0.27180438498E-01  0.10554149748E+00  0.89045973473E+00  0.88000000000E+00 0.  1.
        -11    1    4    4    0    0  0.42923506115E-01  0.44022574780E-01 -0.52786204931E-01  0.81037392724E-01  0.51100000000E-03 0.  1.
         11    1    4    4    0    0  0.30870829917E-01 -0.52811573913E-02 -0.48807304161E-01  0.57994075763E-01  0.51100000000E-03 0. -1.
</event>
<event>
 8    1  0.2190512E+004  0.1043930E+01  0.7957747E-01            NaN
         13   -1    0    0    0    0  0.00000000000E+00  0.00000000000E+00  0.74505805969E-08  0.10566000000E+00  0.10566000000E+00 0.  1.
     999900   -1    0    0    0    0 -0.00000000000E+00 -0.00000000000E+00 -0.74505805969E-08  0.93827000000E+00  0.93827000000E+00 0.  1.
     999902    2    1    2    0    0 -0.45469389876E-02  0.78101955296E-02  0.87983658852E-02  0.10313171078E+01  0.10312399778E+01 0.  0.
     999903    2    3    3    0    0  0.48949276934E-01  0.65832274837E-02  0.12538498193E+00  0.14201637707E+00  0.44809452857E-01 0.  0.
         14    1    1    2    0    0  0.45469389876E-02 -0.78101955296E-02 -0.87983658852E-02  0.12612892238E-01  0.00000000000E+00 0. -1.
     999901    1    3    3    0    0 -0.53496215921E-01  0.12269680460E-02 -0.11658661605E+00  0.88930073069E+00  0.88000000000E+00 0.  1.
        -11    1    4    4    0    0  0.53807633103E-01  0.14760186783E-01  0.95010135851E-01  0.11018308187E+00  0.51100000000E-03 0.  1.
         11    1    4    4    0    0 -0.48583561695E-02 -0.81769592996E-02  0.30374846081E-01  0.31833295203E-01  0.51100000000E-03 0. -1.
</event>
<event>
 8    1  0.2190512E+004  0.1043930E+01  0.7957747E-01            NaN
         13   -1    0    0    0    0  0.00000000000E+00  0.00000000000E+00  0.74505805969E-08  0.10566000000E+00  0.10566000000E+00 0. -1.
     999900   -1    0    0    0    0 -0.00000000000E+00 -0.00000000000E+00 -0.74505805969E-08  0.93827000000E+00  0.93827000000E+00 0.  1.
     999902    2    1    2    0    0  0.10827990462E-01 -0.76130661706E-02  0.16867711067E-02  0.10305864866E+01  0.10305001004E+01 0.  0.
     999903    2    3    3    0    0  0.11054659004E+00  0.27998324466E-01 -0.70463074073E-01  0.14130724448E+00  0.44701653128E-01 0.  0.
         14    1    1    2    0    0 -0.10827990462E-01  0.76130661706E-02 -0.16867711067E-02  0.13343513433E-01  0.00000000000E+00 0.  1.
     999901    1    3    3    0    0 -0.99718599579E-01 -0.35611390637E-01  0.72149845180E-01  0.88927924209E+00  0.88000000000E+00 0. -1.
        -11    1    4    4    0    0  0.80842639731E-01  0.38896239775E-01 -0.43362690826E-01  0.99644537954E-01  0.51100000000E-03 0.  1.
         11    1    4    4    0    0  0.29703950310E-01 -0.10897915308E-01 -0.27100383247E-01  0.41662706528E-01  0.51100000000E-03 0. -1.
</event>
<event>
 8    1  0.2190512E+004  0.1043930E+01  0.7957747E-01            NaN
         13   -1    0    0    0    0  0.00000000000E+00  0.00000000000E+00  0.74505805969E-08  0.10566000000E+00  0.10566000000E+00 0. -1.
     999900   -1    0    0    0    0 -0.00000000000E+00 -0.00000000000E+00 -0.74505805969E-08  0.93827000000E+00  0.93827000000E+00 0. -1.
     999902    2    1    2    0    0  0.45165375019E-02 -0.11967053739E-01 -0.26954131065E-02  0.10308580936E+01  0.10307752104E+01 0.  0.
     999903    2    3    3    0    0  0.22768177813E-01 -0.13166013297E+00  0.19879559977E-01  0.14228103725E+00  0.44675677073E-01 0.  0.
         14    1    1    2    0    0 -0.45165375019E-02  0.11967053739E-01  0.26954131065E-02  0.13071906441E-01  0.00000000000E+00 0. -1.
     999901    1    3    3    0    0 -0.18251640311E-01  0.11969307923E+00 -0.22574973083E-01  0.88857705631E+00  0.88000000000E+00 0. -1.
        -11    1    4    4    0    0  0.30714594272E-01 -0.65650845500E-01  0.22036903869E-01  0.75758207933E-01  0.51100000000E-03 0.  1.
         11    1    4    4    0    0 -0.79464164598E-02 -0.66009287468E-01 -0.21573438916E-02  0.66522829316E-01  0.51100000000E-03 0. -1.
</event>
<event>
 8    1  0.2190512E+004  0.1043930E+01  0.7957747E-01            NaN
         13   -1    0    0    0    0  0.00000000000E+00  0.00000000000E+00  0.74505805969E-08  0.10566000000E+00  0.10566000000E+00 0. -1.
     999900   -1    0    0    0    0 -0.00000000000E+00 -0.00000000000E+00 -0.74505805969E-08  0.93827000000E+00  0.93827000000E+00 0. -1.
     999902    2    1    2    0    0 -0.22995293130E-02  0.48507861098E-02 -0.13116436524E-01  0.10297575313E+01  0.10296599995E+01 0.  0.
     999903    2    3    3    0    0  0.98854903822E-01 -0.39733841890E-01 -0.79766869194E-01  0.14034070635E+00  0.44516179487E-01 0.  0.
         14    1    1    2    0    0  0.22995293130E-02 -0.48507861098E-02  0.13116436524E-01  0.14172468664E-01  0.00000000000E+00 0. -1.
     999901    1    3    3    0    0 -0.10115443314E+00  0.44584628000E-01  0.66650432670E-01  0.88941682499E+00  0.88000000000E+00 0.  1.
        -11    1    4    4    0    0  0.74469194413E-01 -0.32253004442E-01 -0.34095393868E-01  0.88026554039E-01  0.51100000000E-03 0. -1.
         11    1    4    4    0    0  0.24385709409E-01 -0.74808374483E-02 -0.45671475326E-01  0.52314152309E-01  0.51100000000E-03 0.  1.
</event>
<event>
 8    1  0.2190512E+004  0.1043930E+01  0.7957747E-01            NaN
         13   -1    0    0    0    0  0.00000000000E+00  0.00000000000E+00  0.74505805969E-08  0.10566000000E+00  0.10566000000E+00 0.  1.
     999900   -1    0    0    0    0 -0.00000000000E+00 -0.00000000000E+00 -0.74505805969E-08  0.93827000000E+00  0.93827000000E+00 0.  1.
     999902    2    1    2    0    0  0.77685918674E-02 -0.12617126139E-02  0.10028112116E-01  0.10311822170E+01  0.10311034181E+01 0.  0.
     999903    2    3    3    0    0  0.12169005827E+00 -0.59944705018E-01  0.13260860743E-01  0.14189472426E+00  0.39451545022E-01 0.  0.
         14    1    1    2    0    0 -0.77685918674E-02  0.12617126139E-02 -0.10028112116E-01  0.12747782981E-01  0.00000000000E+00 0. -1.
     999901    1    3    3    0    0 -0.11392146640E+00  0.58682992404E-01 -0.32327486270E-02  0.88928749275E+00  0.88000000000E+00 0.  1.
        -11    1    4    4    0    0  0.65511971731E-01 -0.52738458669E-01  0.18955093644E-02  0.84125011380E-01  0.51100000000E-03 0.  1.
         11    1    4    4    0    0  0.56178086541E-01 -0.72062463483E-02  0.11365351379E-01  0.57769712885E-01  0.51100000000E-03 0. -1.
</event>
<event>
 8    1  0.2190512E+004  0.1043930E+01  0.7957747E-01            NaN
         13   -1    0    0    0    0  0.00000000000E+00  0.00000000000E+00  0.74505805969E-08  0.10566000000E+00  0.10566000000E+00 0.  1.
     999900   -1    0    0    0    0 -0.00000000000E+00 -0.00000000000E+00 -0.74505805969E-08  0.93827000000E+00  0.93827000000E+00 0.  1.
     999902    2    1    2    0    0  0.58354202228E-03  0.45026469121E-02  0.11065055922E-01  0.10319696566E+01  0.10319003452E+01 0.  0.
     999903    2    3    3    0    0  0.42036854300E-01 -0.46905614191E-01 -0.11700861073E+00  0.14024994144E+00  0.44853063730E-01 0.  0.
         14    1    1    2    0    0 -0.58354202228E-03 -0.45026469121E-02 -0.11065055922E-01  0.11960343351E-01  0.00000000000E+00 0. -1.
     999901    1    3    3    0    0 -0.41453312278E-01  0.51408261104E-01  0.12807366665E+00  0.89171971521E+00  0.88000000000E+00 0. -1.
        -11    1    4    4    0    0 -0.50167608889E-02  0.38628132541E-02 -0.33771153573E-02  0.71941118416E-02  0.51100000000E-03 0.  1.
         11    1    4    4    0    0  0.47053615189E-01 -0.50768427446E-01 -0.11363149537E+00  0.13305582960E+00  0.51100000000E-03 0. -1.
</event>
<event>
 8    1  0.2190512E+004  0.1043930E+01  0.7957747E-01            NaN
         13   -1    0    0    0    0  0.00000000000E+00  0.00000000000E+00  0.74505805969E-08  0.10566000000E+00  0.10566000000E+00 0. -1.
     999900   -1    0    0    0    0 -0.00000000000E+00 -0.00000000000E+00 -0.74505805969E-08  0.93827000000E+00  0.93827000000E+00 0. -1.
     999902    2    1    2    0    0  0.40714120223E-02  0.13167911650E-01  0.71773370148E-03  0.10301283539E+01  0.10300358926E+01 0.  0.
     999903    2    3    3    0    0  0.78568264272E-01 -0.83960383395E-01  0.64677292062E-01  0.13935649098E+00  0.44886092925E-01 0.  0.
         14    1    1    2    0    0 -0.40714120223E-02 -0.13167911650E-01 -0.71773370148E-03  0.13801646088E-01  0.00000000000E+00 0. -1.
     999901    1    3    3    0    0 -0.74496852249E-01  0.97128295045E-01 -0.63959558360E-01  0.89077186294E+00  0.88000000000E+00 0.  1.
        -11    1    4    4    0    0  0.48008758672E-01 -0.66403246181E-01  0.23690195517E-01  0.85297822348E-01  0.51100000000E-03 0.  1.
         11    1    4    4    0    0  0.30559505600E-01 -0.17557137214E-01  0.40987096545E-01  0.54058668628E-01  0.51100000000E-03 0. -1.
</event>
<event>
 8    1  0.2190512E+004  0.1043930E+01  0.7957747E-01            NaN
         13   -1    0    0    0    0  0.00000000000E+00  0.00000000000E+00  0.74505805969E-08  0.10566000000E+00  0.10566000000E+00 0.  1.
     999900   -1    0    0    0    0 -0.00000000000E+00 -0.00000000000E+00 -0.74505805969E-08  0.93827000000E+00  0.93827000000E+00 0. -1.
     999902    2    1    2    0    0 -0.80906507734E-02  0.45056700647E-02  0.99741653033E-02  0.10303195751E+01  0.10302296750E+01 0.  0.
     999903    2    3    3    0    0 -0.13234600775E+00  0.21806440482E-01 -0.54582705848E-02  0.14128815243E+00  0.44063167002E-01 0.  0.
         14    1    1    2    0    0  0.80906507734E-02 -0.45056700647E-02 -0.99741653033E-02  0.13610424908E-01  0.00000000000E+00 0.  1.
     999901    1    3    3    0    0  0.12425535698E+00 -0.17300770417E-01  0.15432435888E-01  0.88903142266E+00  0.88000000000E+00 0.  1.
        -11    1    4    4    0    0 -0.29428843253E-01 -0.75687781388E-02  0.12320037346E-01  0.32793103832E-01  0.51100000000E-03 0.  1.
         11    1    4    4    0    0 -0.10291716450E+00  0.29375218620E-01 -0.17778307930E-01  0.10849504860E+00  0.51100000000E-03 0. -1.
</event>
<event>
 8    1  0.2190512E+004  0.1043930E+01  0.7957747E-01            NaN
         13   -1    0    0    0    0  0.00000000000E+00  0.00000000000E+00  0.74505805969E-08  0.10566000000E+00  0.10566000000E+00 0. -1.
     999900   -1    0    0    0    0 -0.00000000000E+00 -0.00000000000E+00 -0.74505805969E-08  0.93827000000E+00  0.93827000000E+00 0. -1.
     999902    2    1    2    0    0  0.44724933966E-02  0.80554830361E-02 -0.12941630198E-01  0.10280435342E+01  0.10279207792E+01 0.  0.
     999903    2    3    3    0    0  0.81574966731E-03  0.93553194804E-01 -0.94152573250E-01  0.14017054339E+00  0.45057834837E-01 0.  0.
         14    1    1    2    0    0 -0.44724933966E-02 -0.80554830361E-02  0.12941630198E-01  0.15886465822E-01  0.00000000000E+00 0.  1.
     999901    1    3    3    0    0  0.36567437293E-02 -0.85497711768E-01  0.81210943053E-01  0.88787299078E+00  0.88000000000E+00 0.  1.
        -11    1    4    4    0    0  0.15878893555E-01  0.19870338116E-01 -0.10073000836E-01  0.27362311018E-01  0.51100000000E-03 0.  1.
         11    1    4    4    0    0 -0.15063143888E-01  0.73682856688E-01 -0.84079572415E-01  0.11280823238E+00  0.51100000000E-03 0. -1.
</event>
<event>
 8    1  0.2190512E+004  0.1043930E+01  0.7957747E-01            NaN
         13   -1    0    0    0    0  0.00000000000E+00  0.00000000000E+00  0.74505805969E-08  0.10566000000E+00  0.10566000000E+00 0. -1.
     999900   -1    0    0    0    0 -0.00000000000E+00 -0.00000000000E+00 -0.74505805969E-08  0.93827000000E+00  0.93827000000E+00 0.  1.
     999902    2    1    2    0    0  0.13789908104E-01 -0.59554979839E-02 -0.10909704215E-02  0.10288694642E+01  0.10287592307E+01 0.  0.
     999903    2    3    3    0    0  0.60185237490E-01  0.43929821908E-01 -0.10936446878E+00  0.13962021784E+00  0.44509843095E-01 0.  0.
         14    1    1    2    0    0 -0.13789908104E-01  0.59554979839E-02  0.10909704215E-02  0.15060535787E-01  0.00000000000E+00 0. -1.
     999901    1    3    3    0    0 -0.46395329386E-01 -0.49885319892E-01  0.10827349836E+00  0.88924924637E+00  0.88000000000E+00 0. -1.
        -11    1    4    4    0    0  0.70811630632E-02  0.26560659924E-01 -0.55860062096E-01  0.62259289944E-01  0.51100000000E-03 0. -1.
         11    1    4    4    0    0  0.53104074426E-01  0.17369161984E-01 -0.53504406687E-01  0.77360927894E-01  0.51100000000E-03 0.  1.
</event>
<event>
 8    1  0.2190512E+004  0.1043930E+01  0.7957747E-01            NaN
         13   -1    0    0    0    0  0.00000000000E+00  0.00000000000E+00  0.74505805969E-08  0.10566000000E+00  0.10566000000E+00 0. -1.
     999900   -1    0    0    0    0 -0.00000000000E+00 -0.00000000000E+00 -0.74505805969E-08  0.93827000000E+00  0.93827000000E+00 0. -1.
     999902    2    1    2    0    0 -0.71962715683E-02  0.12015384234E-01  0.34650015945E-02  0.10295021790E+01  0.10294010756E+01 0.  0.
     999903    2    3    3    0    0  0.12041418648E+00 -0.23041826913E-01 -0.45592678469E-01  0.13825580844E+00  0.44782520526E-01 0.  0.
         14    1    1    2    0    0  0.71962715683E-02 -0.12015384234E-01 -0.34650015945E-02  0.14427821000E-01  0.00000000000E+00 0. -1.
     999901    1    3    3    0    0 -0.12761045805E+00  0.35057211147E-01  0.49057680064E-01  0.89124637056E+00  0.88000000000E+00 0.  1.
        -11    1    4    4    0    0  0.10832000017E+00 -0.61751476485E-02 -0.45076938415E-01  0.11748849468E+00  0.51100000000E-03 0.  1.
         11    1    4    4    0    0  0.12094186313E-01 -0.16866679265E-01 -0.51574005378E-03  0.20767313760E-01  0.51100000000E-03 0. -1.
</event>
<event>
 8    1  0.2190512E+004  0.1043930E+01  0.7957747E-01            NaN
         13   -1    0    0    0    0  0.00000000000E+00  0.00000000000E+00  0.74505805969E-08  0.10566000000E+00  0.10566000000E+00 0. -1.
     999900   -1    0    0    0    0 -0.00000000000E+00 -0.00000000000E+00 -0.74505805969E-08  0.93827000000E+00  0.93827000000E+00 0. -1.
     999902    2    1    2    0    0 -0.83542601411E-02  0.83547273292E-02  0.41197054561E-02  0.10314173223E+01  0.10313414205E+01 0.  0.
     999903    2    3    3    0    0 -0.12232701232E+00  0.40241203256E-01 -0.40846584791E-01  0.14235686152E+00  0.44875161849E-01 0.  0.
         14    1    1    2    0    0  0.83542601411E-02 -0.83547273292E-02 -0.41197054561E-02  0.12512677743E-01  0.00000000000E+00 0.  1.
     999901    1    3    3    0    0  0.11397275218E+00 -0.31886475927E-01  0.44966290247E-01  0.88906046074E+00  0.88000000000E+00 0.  1.
        -11    1    4    4    0    0 -0.58193738120E-01  0.34329091852E-01 -0.38805224922E-01  0.77917291444E-01  0.51100000000E-03 0. -1.
         11    1    4    4    0    0 -0.64133274198E-01  0.59121114037E-02 -0.20413598690E-02  0.64439570077E-01  0.51100000000E-03 0.  1.
</event>
<event>
 8    1  0.2190512E+004  0.1043930E+01  0.7957747E-01            NaN
         13   -1    0    0    0    0  0.00000000000E+00  0.00000000000E+00  0.74505805969E-08  0.10566000000E+00  0.10566000000E+00 0.  1.
     999900   -1    0    0    0    0 -0.00000000000E+00 -0.00000000000E+00 -0.74505805969E-08  0.93827000000E+00  0.93827000000E+00 0.  1.
     999902    2    1    2    0    0  0.10118702539E-01 -0.84250292677E-02  0.17739149873E-02  0.10306440663E+01  0.10305584289E+01 0.  0.
     999903    2    3    3    0    0 -0.10164180850E+00  0.55593257666E-01  0.63492446642E-01  0.13912966373E+00  0.43636051796E-01 0.  0.
         14    1    1    2    0    0 -0.10118702539E-01  0.84250292677E-02 -0.17739149873E-02  0.13285933675E-01  0.00000000000E+00 0.  1.
     999901    1    3    3    0    0  0.11176051103E+00 -0.64018286933E-01 -0.61718531655E-01  0.89151440260E+00  0.88000000000E+00 0. -1.
        -11    1    4    4    0    0 -0.41383291345E-01 -0.60192358223E-03  0.20414761329E-01  0.46151519104E-01  0.51100000000E-03 0. -1.
         11    1    4    4    0    0 -0.60258517150E-01  0.56195181248E-01  0.43077685313E-01  0.92978144623E-01  0.51100000000E-03 0.  1.
</event>
<event>
 8    1  0.2190512E+004  0.1043930E+01  0.7957747E-01            NaN
         13   -1    0    0    0    0  0.00000000000E+00  0.00000000000E+00  0.74505805969E-08  0.10566000000E+00  0.10566000000E+00 0.  1.
     999900   -1    0    0    0    0 -0.00000000000E+00 -0.00000000000E+00 -0.74505805969E-08  0.93827000000E+00  0.93827000000E+00 0.  1.
     999902    2    1    2    0    0  0.16555618781E-02 -0.36102103185E-02 -0.13581941615E-01  0.10297792530E+01  0.10296820219E+01 0.  0.
     999903    2    3    3    0    0 -0.28915941338E-02 -0.13230741732E+00  0.99396632291E-02  0.14009564987E+00  0.44881847268E-01 0.  0.
         14    1    1    2    0    0 -0.16555618781E-02  0.36102103185E-02  0.13581941615E-01  0.14150747037E-01  0.00000000000E+00 0.  1.
     999901    1    3    3    0    0  0.45471560120E-02  0.12869720700E+00 -0.23521604844E-01  0.88968360309E+00  0.88000000000E+00 0.  1.
        -11    1    4    4    0    0 -0.10839338623E-01 -0.16371735914E-01  0.13497835845E-01  0.23832282562E-01  0.51100000000E-03 0.  1.
         11    1    4    4    0    0  0.79477444891E-02 -0.11593568140E+00 -0.35581726161E-02  0.11626336731E+00  0.51100000000E-03 0. -1.
</event>
<event>
 7    1  0.2190512E+004  0.1043930E+01  0.7957747E-01            NaN
         13   -1    0    0    0    0  0.00000000000E+00  0.00000000000E+00  0.74505805969E-08  0.10566000000E+00  0.10566000000E+00 0. -1.
     999900   -1    0    0    0    0 -0.00000000000E+00 -0.00000000000E+00 -0.74505805969E-08  0.93827000000E+00  0.93827000000E+00 0. -1.
     999902    2    1    2    0    0  0.19629030315E-02  0.10154590241E-01  0.93544054162E-02  0.10299846211E+01  0.10298902107E+01 0.  0.
         14    1    1    2    0    0 -0.19629030315E-02 -0.10154590241E-01 -0.93544054162E-02  0.13945378875E-01  0.00000000000E+00 0.  1.
     999901    1    3    3    0    0 -0.10606078867E+00 -0.94200477785E-02 -0.29905657859E-01  0.88692275682E+00  0.88000000000E+00 0. -1.
        -11    1    3    3    0    0  0.64681144932E-01  0.47833291989E-01  0.41976676186E-02  0.80557779678E-01  0.51100000000E-03 0. -1.
         11    1    3    3    0    0  0.43342546771E-01 -0.28258653969E-01  0.35062395657E-01  0.62504084626E-01  0.51100000000E-03 0.  1.
</event>
<event>
 8    1  0.2190512E+004  0.1043930E+01  0.7957747E-01            NaN
         13   -1    0    0    0    0  0.00000000000E+00  0.00000000000E+00  0.74505805969E-08  0.10566000000E+00  0.10566000000E+00 0. -1.
     999900   -1    0    0    0    0 -0.00000000000E+00 -0.00000000000E+00 -0.74505805969E-08  0.93827000000E+00  0.93827000000E+00 0. -1.
     999902    2    1    2    0    0 -0.42251397444E-02  0.14195960432E-01 -0.32405568390E-03  0.10291150714E+01  0.10290084295E+01 0.  0.
     999903    2    3    3    0    0  0.32874392006E-01 -0.12386167855E+00 -0.33272074411E-01  0.13697054334E+00  0.35092132257E-01 0.  0.
         14    1    1    2    0    0  0.42251397444E-02 -0.14195960432E-01  0.32405568390E-03  0.14814928637E-01  0.00000000000E+00 0.  1.
     999901    1    3    3    0    0 -0.37099531750E-01  0.13805763898E+00  0.32948018727E-01  0.89214452802E+00  0.88000000000E+00 0. -1.
        -11    1    4    4    0    0  0.92573932812E-02 -0.89236341302E-01 -0.13871729436E-01  0.90782762339E-01  0.51100000000E-03 0. -1.
         11    1    4    4    0    0  0.23616998725E-01 -0.34625337243E-01 -0.19400344975E-01  0.46187781005E-01  0.51100000000E-03 0.  1.
</event>
<event>
 8    1  0.2190512E+004  0.1043930E+01  0.7957747E-01            NaN
         13   -1    0    0    0    0  0.00000000000E+00  0.00000000000E+00  0.74505805969E-08  0.10566000000E+00  0.10566000000E+00 0. -1.
     999900   -1    0    0    0    0 -0.00000000000E+00 -0.00000000000E+00 -0.74505805969E-08  0.93827000000E+00  0.93827000000E+00 0. -1.
     999902    2    1    2    0    0 -0.55167147312E-02  0.75338929702E-02  0.10617371720E-01  0.10297906129E+01  0.10296935390E+01 0.  0.
     999903    2    3    3    0    0 -0.82854686160E-01  0.99432344513E-01 -0.23063167071E-01  0.14099318611E+00  0.50945840840E-01 0.  0.
         14    1    1    2    0    0  0.55167147312E-02 -0.75338929702E-02 -0.10617371720E-01  0.14139387078E-01  0.00000000000E+00 0.  1.
     999901    1    3    3    0    0  0.77337971429E-01 -0.91898451543E-01  0.33680538791E-01  0.88879742682E+00  0.88000000000E+00 0. -1.
        -11    1    4    4    0    0 -0.55458732758E-01  0.34303945720E-01 -0.26168677132E-01  0.70267293351E-01  0.51100000000E-03 0.  1.
         11    1    4    4    0    0 -0.27395953402E-01  0.65128398794E-01  0.31055100607E-02  0.70725892755E-01  0.51100000000E-03 0. -1.
</event>
<event>
 8    1  0.2190512E+004  0.1043930E+01  0.7957747E-01            NaN
         13   -1    0    0    0    0  0.00000000000E+00  0.00000000000E+00  0.74505805969E-08  0.10566000000E+00  0.10566000000E+00 0. -1.
     999900   -1    0    0    0    0 -0.00000000000E+00 -0.00000000000E+00 -0.74505805969E-08  0.93827000000E+00  0.93827000000E+00 0. -1.
     999902    2    1    2    0    0  0.59269028921E-02  0.45407090886E-02 -0.11575638665E-01  0.10301553266E+01  0.10300632288E+01 0.  0.
     999903    2    3    3    0    0 -0.77898770379E-02 -0.96729104372E-02 -0.13378996899E+00  0.14148974294E+00  0.44332202468E-01 0.  0.
         14    1    1    2    0    0 -0.59269028921E-02 -0.45407090886E-02  0.11575638665E-01  0.13774673405E-01  0.00000000000E+00 0. -1.
     999901    1    3    3    0    0  0.13716779930E-01  0.14213619526E-01  0.12221433032E+00  0.88866558365E+00  0.88000000000E+00 0.  1.
        -11    1    4    4    0    0 -0.23454055829E-01 -0.11242153367E-01 -0.51405090942E-01  0.57612700362E-01  0.51100000000E-03 0.  1.
         11    1    4    4    0    0  0.15664178791E-01  0.15692429302E-02 -0.82384878045E-01  0.83877042581E-01  0.51100000000E-03 0. -1.
</event>
<event>
 8    1  0.2190512E+004  0.1043930E+01  0.7957747E-01            NaN
         13   -1    0    0    0    0  0.00000000000E+00  0.00000000000E+00  0.74505805969E-08  0.10566000000E+00  0.10566000000E+00 0.  1.
     999900   -1    0    0    0    0 -0.00000000000E+00 -0.00000000000E+00 -0.74505805969E-08  0.93827000000E+00  0.93827000000E+00 0.  1.
     999902    2    1    2    0    0 -0.16937318713E-02 -0.85878429962E-02 -0.10522342300E-01  0.10302427993E+01  0.10301518753E+01 0.  0.
     999903    2    3    3    0    0 -0.70392851267E-01 -0.10646845579E+00 -0.41775118454E-01  0.14160512322E+00  0.44901723925E-01 0.  0.
         14    1    1    2    0    0  0.16937318713E-02  0.85878429962E-02  0.10522342300E-01  0.13687200680E-01  0.00000000000E+00 0. -1.
     999901    1    3    3    0    0  0.68699119396E-01  0.97880612799E-01  0.31252776155E-01  0.88863767610E+00  0.88000000000E+00 0. -1.
        -11    1    4    4    0    0 -0.19562675788E-01 -0.79347107661E-02 -0.19022617804E-01  0.28421453658E-01  0.51100000000E-03 0.  1.
         11    1    4    4    0    0 -0.50830175479E-01 -0.98533745029E-01 -0.22752500651E-01  0.11318366956E+00  0.51100000000E-03 0. -1.
</event>
<event>
 8    1  0.2190512E+004  0.1043930E+01  0.7957747E-01            NaN
         13   -1    0    0    0    0  0.00000000000E+00  0.00000000000E+00  0.74505805969E-08  0.10566000000E+00  0.10566000000E+00 0.  1.
     999900   -1    0    0    0    0 -0.00000000000E+00 -0.00000000000E+00 -0.74505805969E-08  0.93827000000E+00  0.93827000000E+00 0. -1.
     999902    2    1    2    0    0 -0.12413682934E-01 -0.80095320420E-03 -0.21044702687E-02  0.10313137468E+01  0.10312365754E+01 0.  0.
     999903    2    3    3    0    0  0.56723183850E-01  0.65203438474E-01 -0.10104452705E+00  0.14062546186E+00  0.45787728724E-01 0.  0.
         14    1    1    2    0    0  0.12413682934E-01  0.80095320420E-03  0.21044702687E-02  0.12616253213E-01  0.00000000000E+00 0.  1.
     999901    1    3    3    0    0 -0.69136866784E-01 -0.66004391678E-01  0.98940056782E-01  0.89068828493E+00  0.88000000000E+00 0.  1.
        -11    1    4    4    0    0  0.26334241992E-01  0.46150395105E-01 -0.87321309377E-01  0.10221850841E+00  0.51100000000E-03 0. -1.
         11    1    4    4    0    0  0.30388941858E-01  0.19053043369E-01 -0.13723217673E-01  0.38406953448E-01  0.51100000000E-03 0.  1.
</event>
<event>
 8    1  0.2190512E+004  0.1043930E+01  0.7957747E-01            NaN
         13   -1    0    0    0    0  0.00000000000E+00  0.00000000000E+00  0.74505805969E-08  0.10566000000E+00  0.10566000000E+00 0.  1.
     999900   -1    0    0    0    0 -0.00000000000E+00 -0.00000000000E+00 -0.74505805969E-08  0.93827000000E+00  0.93827000000E+00 0.  1.
     999902    2    1    2    0    0  0.71522822187E-02  0.11748413409E-01 -0.37102261619E-02  0.10296840835E+01  0.10295855310E+01 0.  0.
     999903    2    3    3    0    0  0.11229223389E+00  0.33131006107E-01 -0.65049914287E-01  0.14104794760E+00  0.44224685584E-01 0.  0.
         14    1    1    2    0    0 -0.71522822187E-02 -0.11748413409E-01  0.37102261619E-02  0.14245916493E-01  0.00000000000E+00 0.  1.
     999901    1    3    3    0    0 -0.10513995167E+00 -0.21382592698E-01  0.61339688125E-01  0.88863613591E+00  0.88000000000E+00 0.  1.
        -11    1    4    4    0    0  0.43421873080E-01  0.18967870761E-01 -0.50487677882E-01  0.69242370857E-01  0.51100000000E-03 0. -1.
         11    1    4    4    0    0  0.68870360808E-01  0.14163135346E-01 -0.14562236404E-01  0.71805576738E-01  0.51100000000E-03 0.  1.
</event>
<event>
 8    1  0.2190512E+004  0.1043930E+01  0.7957747E-01            NaN
         13   -1    0    0    0    0  0.00000000000E+00  0.00000000000E+00  0.74505805969E-08  0.10566000000E+00  0.10566000000E+00 0.  1.
     999900   -1    0    0    0    0 -0.00000000000E+00 -0.00000000000E+00 -0.74505805969E-08  0.93827000000E+00  0.93827000000E+00 0.  1.
     999902    2    1    2    0    0  0.89660539502E-02  0.73240877837E-02  0.82300994377E-02  0.10297255316E+01  0.10296275557E+01 0.  0.
     999903    2    3    3    0    0  0.56365366976E-01  0.10369582460E+00  0.63273492312E-01  0.14148908695E+00  0.45669993030E-01 0.  0.
         14    1    1    2    0    0 -0.89660539502E-02 -0.73240877837E-02 -0.82300994377E-02  0.14204468383E-01  0.00000000000E+00 0.  1.
     999901    1    3    3    0    0 -0.47399313026E-01 -0.96371736815E-01 -0.55043392874E-01  0.88823644467E+00  0.88000000000E+00 0.  1.
        -11    1    4    4    0    0  0.30883877266E-01  0.69538265282E-01  0.63132970668E-01  0.98870710120E-01  0.51100000000E-03 0.  1.
         11    1    4    4    0    0  0.25481489710E-01  0.34157559317E-01  0.14052164383E-03  0.42618376831E-01  0.51100000000E-03 0. -1.
</event>
<event>
 8    1  0.2190512E+004  0.1043930E+01  0.7957747E-01            NaN
         13   -1    0    0    0    0  0.00000000000E+00  0.00000000000E+00  0.74505805969E-08  0.10566000000E+00  0.10566000000E+00 0.  1.
     999900   -1    0    0    0    0 -0.00000000000E+00 -0.00000000000E+00 -0.74505805969E-08  0.93827000000E+00  0.93827000000E+00 0.  1.
     999902    2    1    2    0    0  0.91234745193E-02  0.85560634073E-02 -0.42251676938E-02  0.10307278771E+01  0.10306433236E+01 0.  0.
     999903    2    3    3    0    0  0.92640512376E-01 -0.83006748080E-01  0.48848207117E-01  0.14046071087E+00  0.43251349116E-01 0.  0.
         14    1    1    2    0    0 -0.91234745193E-02 -0.85560634073E-02  0.42251676938E-02  0.13202122950E-01  0.00000000000E+00 0.  1.
     999901    1    3    3    0    0 -0.83517037856E-01  0.91562811487E-01 -0.53073374811E-01  0.89026716618E+00  0.88000000000E+00 0.  1.
        -11    1    4    4    0    0  0.86929333900E-02 -0.27127457251E-01  0.22295171573E-01  0.36177366188E-01  0.51100000000E-03 0. -1.
         11    1    4    4    0    0  0.83947578986E-01 -0.55879290829E-01  0.26553035544E-01  0.10428334469E+00  0.51100000000E-03 0.  1.
</event>
<event>
 8    1  0.2190512E+004  0.1043930E+01  0.7957747E-01            NaN
         13   -1    0    0    0    0  0.00000000000E+00  0.00000000000E+00  0.74505805969E-08  0.10566000000E+00  0.10566000000E+00 0.  1.
     999900   -1    0    0    0    0 -0.00000000000E+00 -0.00000000000E+00 -0.74505805969E-08  0.93827000000E+00  0.93827000000E+00 0. -1.
     999902    2    1    2    0    0  0.43892525517E-04  0.11730045154E-01 -0.70154659594E-02  0.10302620576E+01  0.10301713910E+01 0.  0.
     999903    2    3    3    0    0  0.89770720089E-01  0.57880260686E-01  0.79143447845E-01  0.14031593320E+00  0.44899543531E-01 0.  0.
         14    1    1    2    0    0 -0.43892525517E-04 -0.11730045154E-01  0.70154659594E-02  0.13667942365E-01  0.00000000000E+00 0.  1.
     999901    1    3    3    0    0 -0.89726827563E-01 -0.46150215532E-01 -0.86158913805E-01  0.88994612444E+00  0.88000000000E+00 0.  1.
        -11    1    4    4    0    0  0.56475690457E-01  0.53760355676E-01  0.36608459217E-01  0.86140117612E-01  0.51100000000E-03 0.  1.
         11    1    4    4    0    0  0.33295029632E-01  0.41199050097E-02  0.42534988628E-01  0.54175815583E-01  0.51100000000E-03 0. -1.
</event>
<event>
 8    1  0.2190512E+004  0.1043930E+01  0.7957747E-01            NaN
         13   -1    0    0    0    0  0.00000000000E+00  0.00000000000E+00  0.74505805969E-08  0.10566000000E+00  0.10566000000E+00 0. -1.
     999900   -1    0    0    0    0 -0.00000000000E+00 -0.00000000000E+00 -0.74505805969E-08  0.93827000000E+00  0.93827000000E+00 0.  1.
     999902    2    1    2    0    0 -0.35627181751E-03 -0.68762618519E-02  0.11738080029E-01  0.10303214575E+01  0.10302315824E+01 0.  0.
     999903    2    3    3    0    0  0.83511906601E-01 -0.75239668995E-01 -0.70608903320E-01  0.13987861684E+00  0.44104012133E-01 0.  0.
         14    1    1    2    0    0  0.35627181751E-03  0.68762618519E-02 -0.11738080029E-01  0.13608542517E-01  0.00000000000E+00 0.  1.
     999901    1    3    3    0    0 -0.83868178419E-01  0.68363407143E-01  0.82346983349E-01  0.89044284064E+00  0.88000000000E+00 0. -1.
        -11    1    4    4    0    0  0.25269753385E-01 -0.52187770156E-01 -0.37099415147E-01  0.68838590306E-01  0.51100000000E-03 0.  1.
         11    1    4    4    0    0  0.58242153216E-01 -0.23051898839E-01 -0.33509488173E-01  0.71040026534E-01  0.51100000000E-03 0. -1.
</event>
<event>
 8    1  0.2190512E+004  0.1043930E+01  0.7957747E-01            NaN
         13   -1    0    0    0    0  0.00000000000E+00  0.00000000000E+00  0.74505805969E-08  0.10566000000E+00  0.10566000000E+00 0.  1.
     999900   -1    0    0    0    0 -0.00000000000E+00 -0.00000000000E+00 -0.74505805969E-08  0.93827000000E+00  0.93827000000E+00 0.  1.
     999902    2    1    2    0    0  0.12143992458E-01 -0.22787815858E-02  0.65932633849E-02  0.10299249823E+01  0.10298297571E+01 0.  0.
     999903    2    3    3    0    0  0.68875533614E-01  0.58023412989E-01  0.98692272544E-01  0.14125347387E+00  0.45845650118E-01 0.  0.
         14    1    1    2    0    0 -0.12143992458E-01  0.22787815858E-02 -0.65932633849E-02  0.14005017687E-01  0.00000000000E+00 0. -1.
     999901    1    3    3    0    0 -0.56731541156E-01 -0.60302194574E-01 -0.92099009159E-01  0.88867150844E+00  0.88000000000E+00 0.  1.
        -11    1    4    4    0    0  0.21971133589E-01  0.35533891579E-01  0.18562302049E-01  0.45718796357E-01  0.51100000000E-03 0.  1.
         11    1    4    4    0    0  0.46904400025E-01  0.22489521410E-01  0.80129970495E-01  0.95534677512E-01  0.51100000000E-03 0. -1.
</event>
<event>
 8    1  0.2190512E+004  0.1043930E+01  0.7957747E-01            NaN
         13   -1    0    0    0    0  0.00000000000E+00  0.00000000000E+00  0.74505805969E-08  0.10566000000E+00  0.10566000000E+00 0.  1.
     999900   -1    0    0    0    0 -0.00000000000E+00 -0.00000000000E+00 -0.74505805969E-08  0.93827000000E+00  0.93827000000E+00 0.  1.
     999902    2    1    2    0    0 -0.81571987030E-02 -0.62046121140E-02  0.40485023542E-02  0.10329105865E+01  0.10328518056E+01 0.  0.
     999903    2    3    3    0    0 -0.78737786052E-01 -0.64831778785E-01 -0.84002268958E-01  0.14376959527E+00  0.56661422876E-01 0.  0.
         14    1    1    2    0    0  0.81571987030E-02  0.62046121140E-02 -0.40485023542E-02  0.11019413481E-01  0.00000000000E+00 0. -1.
     999901    1    3    3    0    0  0.70580587349E-01  0.58627166671E-01  0.88050771312E-01  0.88914099124E+00  0.88000000000E+00 0.  1.
        -11    1    4    4    0    0 -0.72983658622E-01 -0.28568205254E-01 -0.67799600274E-01  0.10363302416E+00  0.51100000000E-03 0.  1.
         11    1    4    4    0    0 -0.57541274302E-02 -0.36263573530E-01 -0.16202668685E-01  0.40136571119E-01  0.51100000000E-03 0. -1.
</event>
<event>
 7    1  0.2190512E+004  0.1043930E+01  0.7957747E-01            NaN
         13   -1    0    0    0    0  0.00000000000E+00  0.00000000000E+00  0.74505805969E-08  0.10566000000E+00  0.10566000000E+00 0.  1.
     999900   -1    0    0    0    0 -0.00000000000E+00 -0.00000000000E+00 -0.74505805969E-08  0.93827000000E+00  0.93827000000E+00 0. -1.
     999902    2    1    2    0    0 -0.74547116660E-02  0.23230283150E-02 -0.25416419744E-02  0.10357184758E+01  0.10356859234E+01 0.  0.
         14    1    1    2    0    0  0.74547116660E-02 -0.23230283150E-02  0.25416419744E-02  0.82115242496E-02  0.00000000000E+00 0.  1.
     999901    1    3    3    0    0  0.77900141906E-01 -0.84457623502E-01 -0.52572477351E-01  0.88902496458E+00  0.88000000000E+00 0. -1.
        -11    1    3    3    0    0 -0.35791731424E-01  0.79949000368E-01  0.36208071837E-01  0.94784894816E-01  0.51100000000E-03 0.  1.
         11    1    3    3    0    0 -0.49563122148E-01  0.68316514494E-02  0.13822763540E-01  0.51908616351E-01  0.51100000000E-03 0. -1.
</event>
<event>
 8    1  0.2190512E+004  0.1043930E+01  0.7957747E-01            NaN
         13   -1    0    0    0    0  0.00000000000E+00  0.00000000000E+00  0.74505805969E-08  0.10566000000E+00  0.10566000000E+00 0. -1.
     999900   -1    0    0    0    0 -0.00000000000E+00 -0.00000000000E+00 -0.74505805969E-08  0.93827000000E+00  0.93827000000E+00 0.  1.
     999902    2    1    2    0    0  0.72843627492E-03 -0.10736559087E-01 -0.91592230105E-02  0.10297986276E+01  0.10297016644E+01 0.  0.
     999903    2    3    3    0    0  0.22090544074E-01 -0.71852368146E-02 -0.13154258841E+00  0.14106546196E+00  0.45347461069E-01 0.  0.
         14    1    1    2    0    0 -0.72843627492E-03  0.10736559087E-01  0.91592230105E-02  0.14131372424E-01  0.00000000000E+00 0.  1.
     999901    1    3    3    0    0 -0.21362107799E-01 -0.35513222726E-02  0.12238336540E+00  0.88873316562E+00  0.88000000000E+00 0. -1.
        -11    1    4    4    0    0  0.24198025588E-01 -0.20265541516E-01 -0.55274856834E-01  0.63653810053E-01  0.51100000000E-03 0.  1.
         11    1    4    4    0    0 -0.21074815136E-02  0.13080304701E-01 -0.76267731580E-01  0.77411651906E-01  0.51100000000E-03 0. -1.
</event>
<event>
 8    1  0.2190512E+004  0.1043930E+01  0.7957747E-01            NaN
         13   -1    0    0    0    0  0.00000000000E+00  0.00000000000E+00  0.74505805969E-08  0.10566000000E+00  0.10566000000E+00 0. -1.
     999900   -1    0    0    0    0 -0.00000000000E+00 -0.00000000000E+00 -0.74505805969E-08  0.93827000000E+00  0.93827000000E+00 0. -1.
     999902    2    1    2    0    0 -0.19554668299E-02 -0.90254830989E-02 -0.39809549086E-02  0.10338735992E+01  0.10338246891E+01 0.  0.
     999903    2    3    3    0    0  0.69561816500E-02  0.25671763801E-01 -0.13370699078E+00  0.14364207827E+00  0.45255489668E-01 0.  0.
         14    1    1    2    0    0  0.19554668299E-02  0.90254830989E-02  0.39809549086E-02  0.10056400831E-01  0.00000000000E+00 0. -1.
     999901    1    3    3    0    0 -0.89116484799E-02 -0.34697246900E-01  0.12972603587E+00  0.89023152090E+00  0.88000000000E+00 0.  1.
        -11    1    4    4    0    0  0.24550870265E-01  0.57245715045E-02 -0.76584757669E-01  0.80628792487E-01  0.51100000000E-03 0. -1.
         11    1    4    4    0    0 -0.17594688615E-01  0.19947192297E-01 -0.57122233114E-01  0.63013285781E-01  0.51100000000E-03 0.  1.
</event>
<event>
 8    1  0.2190512E+004  0.1043930E+01  0.7957747E-01            NaN
         13   -1    0    0    0    0  0.00000000000E+00  0.00000000000E+00  0.74505805969E-08  0.10566000000E+00  0.10566000000E+00 0. -1.
     999900   -1    0    0    0    0 -0.00000000000E+00 -0.00000000000E+00 -0.74505805969E-08  0.93827000000E+00  0.93827000000E+00 0.  1.
     999902    2    1    2    0    0 -0.72682589021E-02  0.86987676022E-02  0.83220068332E-02  0.10298675698E+01  0.10297715569E+01 0.  0.
     999903    2    3    3    0    0  0.11071560939E+00 -0.13828984403E-01 -0.68399635962E-01  0.13840029432E+00  0.45021598117E-01 0.  0.
         14    1    1    2    0    0  0.72682589021E-02 -0.86987676022E-02 -0.83220068332E-02  0.14062430195E-01  0.00000000000E+00 0.  1.
     999901    1    3    3    0    0 -0.11798386829E+00  0.22527752005E-01  0.76721642795E-01  0.89146727548E+00  0.88000000000E+00 0. -1.
        -11    1    4    4    0    0  0.61352855006E-01  0.12782014447E-01 -0.47151773391E-01  0.78428971469E-01  0.51100000000E-03 0. -1.
         11    1    4    4    0    0  0.49362754379E-01 -0.26610998850E-01 -0.21247862570E-01  0.59971322851E-01  0.51100000000E-03 0.  1.
</event>
<event>
 8    1  0.2190512E+004  0.1043930E+01  0.7957747E-01            NaN
         13   -1    0    0    0    0  0.00000000000E+00  0.00000000000E+00  0.74505805969E-08  0.10566000000E+00  0.10566000000E+00 0. -1.
     999900   -1    0    0    0    0 -0.00000000000E+00 -0.00000000000E+00 -0.74505805969E-08  0.93827000000E+00  0.93827000000E+00 0.  1.
     999902    2    1    2    0    0  0.59739655089E-02 -0.12055835105E-01 -0.13800706961E-02  0.10304046158E+01  0.10303158429E+01 0.  0.
     999903    2    3    3    0    0 -0.92947397186E-01  0.89000782028E-01 -0.25551415559E-01  0.13878691192E+00  0.45261178055E-01 0.  0.
         14    1    1    2    0    0 -0.59739655089E-02  0.12055835105E-01  0.13800706961E-02  0.13525384250E-01  0.00000000000E+00 0.  1.
     999901    1    3    3    0    0  0.98921362695E-01 -0.10105661713E+00  0.24171344863E-01  0.89161770383E+00  0.88000000000E+00 0.  1.
        -11    1    4    4    0    0 -0.44183049789E-01  0.64348391321E-01  0.93086873528E-03  0.78063980118E-01  0.51100000000E-03 0.  1.
         11    1    4    4    0    0 -0.48764347397E-01  0.24652390708E-01 -0.26482284294E-01  0.60722931806E-01  0.51100000000E-03 0. -1.
</event>
<event>
 7    1  0.2190512E+004  0.1043930E+01  0.7957747E-01            NaN
         13   -1    0    0    0    0  0.00000000000E+00  0.00000000000E+00  0.74505805969E-08  0.10566000000E+00  0.10566000000E+00 0.  1.
     999900   -1    0    0    0    0 -0.00000000000E+00 -0.00000000000E+00 -0.74505805969E-08  0.93827000000E+00  0.93827000000E+00 0. -1.
     999903    2    1    2    0    0  0.10029726519E+00  0.47954291233E-01 -0.18433323301E-01  0.12123888930E+00  0.44720525687E-01 0.  0.
         14    1    1    2    0    0  0.52171829268E-02  0.29785423267E-01  0.13137261810E-01  0.32969350688E-01  0.00000000000E+00 0.  1.
     999901    1    1    2    0    0 -0.10551444812E+00 -0.77739714501E-01  0.52960614911E-02  0.88972176001E+00  0.88000000000E+00 0.  1.
        -11    1    3    3    0    0  0.17050503879E-01  0.26001864686E-01 -0.16317221577E-01  0.35118791133E-01  0.51100000000E-03 0.  1.
         11    1    3    3    0    0  0.83246761314E-01  0.21952426547E-01 -0.21161017246E-02  0.86120098166E-01  0.51100000000E-03 0. -1.
</event>
<event>
 8    1  0.2190512E+004  0.1043930E+01  0.7957747E-01            NaN
         13   -1    0    0    0    0  0.00000000000E+00  0.00000000000E+00  0.74505805969E-08  0.10566000000E+00  0.10566000000E+00 0. -1.
     999900   -1    0    0    0    0 -0.00000000000E+00 -0.00000000000E+00 -0.74505805969E-08  0.93827000000E+00  0.93827000000E+00 0. -1.
     999902    2    1    2    0    0 -0.65748537372E-02  0.44687057319E-02  0.10112325282E-01  0.10310669850E+01  0.10309867460E+01 0.  0.
     999903    2    3    3    0    0 -0.10265305959E+00  0.15424757586E-01  0.87369640795E-01  0.14240521046E+00  0.43245994538E-01 0.  0.
         14    1    1    2    0    0  0.65748537372E-02 -0.44687057319E-02 -0.10112325282E-01  0.12863015011E-01  0.00000000000E+00 0.  1.
     999901    1    3    3    0    0  0.96078205850E-01 -0.10956051854E-01 -0.77257315514E-01  0.88866177453E+00  0.88000000000E+00 0. -1.
        -11    1    4    4    0    0 -0.29047879694E-01 -0.14431051862E-01  0.18946176085E-01  0.37566651193E-01  0.51100000000E-03 0. -1.
         11    1    4    4    0    0 -0.73605179893E-01  0.29855809447E-01  0.68423464710E-01  0.10483855927E+00  0.51100000000E-03 0.  1.
</event>
<event>
 8    1  0.2190512E+004  0.1043930E+01  0.7957747E-01            NaN
         13   -1    0    0    0    0  0.00000000000E+00  0.00000000000E+00  0.74505805969E-08  0.10566000000E+00  0.10566000000E+00 0. -1.
     999900   -1    0    0    0    0 -0.00000000000E+00 -0.00000000000E+00 -0.74505805969E-08  0.93827000000E+00  0.93827000000E+00 0.  1.
     999902    2    1    2    0    0 -0.27676659322E-02  0.12328596950E-01  0.60383053199E-02  0.10299258789E+01  0.10298306660E+01 0.  0.
     999903    2    3    3    0    0  0.65057715592E-02  0.11597277059E+00  0.67579464744E-01  0.14166047615E+00  0.44818499128E-01 0.  0.
         14    1    1    2    0    0  0.27676659322E-02 -0.12328596950E-01 -0.60383053199E-02  0.14004121129E-01  0.00000000000E+00 0.  1.
     999901    1    3    3    0    0 -0.92734374914E-02 -0.10364417365E+00 -0.61541159424E-01  0.88826540272E+00  0.88000000000E+00 0.  1.
        -11    1    4    4    0    0  0.23107137880E-01  0.89397956693E-01  0.43133509469E-01  0.10191513745E+00  0.51100000000E-03 0. -1.
         11    1    4    4    0    0 -0.16601366321E-01  0.26574813901E-01  0.24445955275E-01  0.39745338694E-01  0.51100000000E-03 0.  1.
</event>
<event>
 8    1  0.2190512E+004  0.1043930E+01  0.7957747E-01            NaN
         13   -1    0    0    0    0  0.00000000000E+00  0.00000000000E+00  0.74505805969E-08  0.10566000000E+00  0.10566000000E+00 0. -1.
     999900   -1    0    0    0    0 -0.00000000000E+00 -0.00000000000E+00 -0.74505805969E-08  0.93827000000E+00  0.93827000000E+00 0. -1.
     999902    2    1    2    0    0 -0.57974480214E-02 -0.91043189059E-02  0.88120301248E-02  0.10299961957E+01  0.10299019431E+01 0.  0.
     999903    2    3    3    0    0  0.74536796445E-01 -0.37564230563E-01 -0.10387367648E+00  0.13872652505E+00  0.38581117729E-01 0.  0.
         14    1    1    2    0    0  0.57974480214E-02  0.91043189059E-02 -0.88120301248E-02  0.13933804262E-01  0.00000000000E+00 0.  1.
     999901    1    3    3    0    0 -0.80334244466E-01  0.28459911657E-01  0.11268570661E+00  0.89126967068E+00  0.88000000000E+00 0.  1.
        -11    1    4    4    0    0  0.58910669990E-01 -0.92992268041E-02 -0.66423171174E-01  0.89270607972E-01  0.51100000000E-03 0. -1.
         11    1    4    4    0    0  0.15626126455E-01 -0.28265003759E-01 -0.37450505310E-01  0.49455917083E-01  0.51100000000E-03 0.  1.
</event>
<event>
 8    1  0.2190512E+004  0.1043930E+01  0.7957747E-01            NaN
         13   -1    0    0    0    0  0.00000000000E+00  0.00000000000E+00  0.74505805969E-08  0.10566000000E+00  0.10566000000E+00 0.  1.
     999900   -1    0    0    0    0 -0.00000000000E+00 -0.00000000000E+00 -0.74505805969E-08  0.93827000000E+00  0.93827000000E+00 0.  1.
     999902    2    1    2    0    0  0.76192254251E-02 -0.11665077596E-01  0.19371029506E-02  0.10298630530E+01  0.10297669779E+01 0.  0.
     999903    2    3    3    0    0 -0.11597614678E+00 -0.53616523594E-01  0.34097173621E-01  0.13965520644E+00  0.44897229433E-01 0.  0.
         14    1    1    2    0    0 -0.76192254251E-02  0.11665077596E-01 -0.19371029506E-02  0.14066947048E-01  0.00000000000E+00 0.  1.
     999901    1    3    3    0    0  0.12359537221E+00  0.41951445997E-01 -0.32160070671E-01  0.89020784652E+00  0.88000000000E+00 0.  1.
        -11    1    4    4    0    0 -0.74271169952E-01 -0.23804361052E-01  0.40682170169E-01  0.87966779991E-01  0.51100000000E-03 0. -1.
         11    1    4    4    0    0 -0.41704976831E-01 -0.29812162541E-01 -0.65849965482E-02  0.51688426446E-01  0.51100000000E-03 0.  1.
</event>
<event>
 8    1  0.2190512E+004  0.1043930E+01  0.7957747E-01            NaN
         13   -1    0    0    0    0  0.00000000000E+00  0.00000000000E+00  0.74505805969E-08  0.10566000000E+00  0.10566000000E+00 0.  1.
     999900   -1    0    0    0    0 -0.00000000000E+00 -0.00000000000E+00 -0.74505805969E-08  0.93827000000E+00  0.93827000000E+00 0.  1.
     999902    2    1    2    0    0  0.78026774608E-02  0.85749383924E-02  0.61840408945E-02  0.10307902243E+01  0.10307064727E+01 0.  0.
     999903    2    3    3    0    0 -0.82514769317E-01  0.10620535367E+00  0.20405161286E-02  0.14078679285E+00  0.41575149202E-01 0.  0.
         14    1    1    2    0    0 -0.78026774608E-02 -0.85749383924E-02 -0.61840408945E-02  0.13139775712E-01  0.00000000000E+00 0. -1.
     999901    1    3    3    0    0  0.90317446777E-01 -0.97630415274E-01  0.41435247658E-02  0.89000343144E+00  0.88000000000E+00 0. -1.
        -11    1    4    4    0    0 -0.47885244424E-01  0.28608905035E-01 -0.18299934395E-03  0.55783157769E-01  0.51100000000E-03 0. -1.
         11    1    4    4    0    0 -0.34629524893E-01  0.77596448631E-01  0.22235154726E-02  0.85003635078E-01  0.51100000000E-03 0.  1.
</event>
<event>
 8    1  0.2190512E+004  0.1043930E+01  0.7957747E-01            NaN
         13   -1    0    0    0    0  0.00000000000E+00  0.00000000000E+00  0.74505805969E-08  0.10566000000E+00  0.10566000000E+00 0. -1.
     999900   -1    0    0    0    0 -0.00000000000E+00 -0.00000000000E+00 -0.74505805969E-08  0.93827000000E+00  0.93827000000E+00 0.  1.
     999902    2    1    2    0    0 -0.84727190112E-02 -0.92147405429E-02 -0.33812806762E-03  0.10314075106E+01  0.10313314890E+01 0.  0.
     999903    2    3    3    0    0 -0.49621614112E-02 -0.12631910535E+00 -0.48036511841E-01  0.14236257803E+00  0.44479857583E-01 0.  0.
         14    1    1    2    0    0  0.84727190112E-02  0.92147405429E-02  0.33812806762E-03  0.12522489421E-01  0.00000000000E+00 0. -1.
     999901    1    3    3    0    0 -0.35105576000E-02  0.11710436481E+00  0.47698383774E-01  0.88904493255E+00  0.88000000000E+00 0. -1.
        -11    1    4    4    0    0 -0.23027399731E-01 -0.46067086475E-01 -0.14309169656E-01  0.53455131203E-01  0.51100000000E-03 0.  1.
         11    1    4    4    0    0  0.18065238320E-01 -0.80252018880E-01 -0.33727342185E-01  0.88907446829E-01  0.51100000000E-03 0. -1.
</event>
<event>
 8    1  0.2190512E+004  0.1043930E+01  0.7957747E-01            NaN
         13   -1    0    0    0    0  0.00000000000E+00  0.00000000000E+00  0.74505805969E-08  0.10566000000E+00  0.10566000000E+00 0.  1.
     999900   -1    0    0    0    0 -0.00000000000E+00 -0.00000000000E+00 -0.74505805969E-08  0.93827000000E+00  0.93827000000E+00 0.  1.
     999902    2    1    2    0    0 -0.14007639395E-01  0.19433026973E-02 -0.19232116773E-02  0.10296580299E+01  0.10295591141E+01 0.  0.
     999903    2    3    3    0    0  0.22740667155E-01 -0.12932975838E+00 -0.90405717904E-02  0.13913362744E+00  0.45090021090E-01 0.  0.
         14    1    1    2    0    0  0.14007639395E-01 -0.19433026973E-02  0.19232116773E-02  0.14271970080E-01  0.00000000000E+00 0.  1.
     999901    1    3    3    0    0 -0.36748306551E-01  0.13127306107E+00  0.71173601130E-02  0.89052440248E+00  0.88000000000E+00 0.  1.
        -11    1    4    4    0    0  0.13292307679E-01 -0.75343865355E-01  0.17120634801E-01  0.78401280264E-01  0.51100000000E-03 0.  1.
         11    1    4    4    0    0  0.94483594764E-02 -0.53985893021E-01 -0.26161206592E-01  0.60732347176E-01  0.51100000000E-03 0. -1.
</event>
<event>
 8    1  0.2713759E+004  0.1043930E+01  0.7957747E-01            NaN
         13   -1    0    0    0    0  0.00000000000E+00  0.00000000000E+00  0.74505805969E-08  0.10566000000E+00  0.10566000000E+00 0. -1.
     999900   -1    0    0    0    0 -0.00000000000E+00 -0.00000000000E+00 -0.74505805969E-08  0.93827000000E+00  0.93827000000E+00 0. -1.
     999902    2    1    2    0    0 -0.83044700482E-02  0.59073708555E-02 -0.11066962454E-01  0.10288854358E+01  0.10287754377E+01 0.  0.
     999903    2    3    3    0    0  0.15579080349E-01  0.17051134309E-01  0.12789262644E+00  0.13759178344E+00  0.45183249621E-01 0.  0.
         14    1    1    2    0    0  0.83044700482E-02 -0.59073708555E-02  0.11066962454E-01  0.15044564173E-01  0.00000000000E+00 0. -1.
     999901    1    3    3    0    0 -0.23883550398E-01 -0.11143763453E-01 -0.13895958889E+00  0.89129365239E+00  0.88000000000E+00 0. -1.
        -11    1    4    4    0    0 -0.14739586719E-01  0.13621953538E-01  0.45635789788E-01  0.49856789562E-01  0.51100000000E-03 0.  1.
         11    1    4    4    0    0  0.30318667069E-01  0.34291807712E-02  0.82256836650E-01  0.87734993875E-01  0.51100000000E-03 0. -1.
</event>
<event>
 8    1  0.2190512E+004  0.1043930E+01  0.7957747E-01            NaN
         13   -1    0    0    0    0  0.00000000000E+00  0.00000000000E+00  0.74505805969E-08  0.10566000000E+00  0.10566000000E+00 0.  1.
     999900   -1    0    0    0    0 -0.00000000000E+00 -0.00000000000E+00 -0.74505805969E-08  0.93827000000E+00  0.93827000000E+00 0.  1.
     999902    2    1    2    0    0 -0.10507367413E-01  0.81468381925E-02  0.35252533166E-02  0.10301748863E+01  0.10300830516E+01 0.  0.
     999903    2    3    3    0    0 -0.66410889495E-01  0.80529112471E-01 -0.83420667577E-01  0.14117320430E+00  0.45557893205E-01 0.  0.
         14    1    1    2    0    0  0.10507367413E-01 -0.81468381925E-02 -0.35252533166E-02  0.13755113720E-01  0.00000000000E+00 0. -1.
     999901    1    3    3    0    0  0.55903522082E-01 -0.72382274278E-01  0.86945920894E-01  0.88900168198E+00  0.88000000000E+00 0. -1.
        -11    1    4    4    0    0 -0.63301731805E-01  0.48015283765E-01 -0.47276634024E-01  0.92454951031E-01  0.51100000000E-03 0. -1.
         11    1    4    4    0    0 -0.31091576898E-02  0.32513828706E-01 -0.36144033553E-01  0.48718253265E-01  0.51100000000E-03 0.  1.
</event>
<event>
 8    1  0.2190512E+004  0.1043930E+01  0.7957747E-01            NaN
         13   -1    0    0    0    0  0.00000000000E+00  0.00000000000E+00  0.74505805969E-08  0.10566000000E+00  0.10566000000E+00 0. -1.
     999900   -1    0    0    0    0 -0.00000000000E+00 -0.00000000000E+00 -0.74505805969E-08  0.93827000000E+00  0.93827000000E+00 0. -1.
     999902    2    1    2    0    0 -0.36672060668E-02  0.11327934558E-01 -0.92624491563E-04  0.10320228979E+01  0.10319542057E+01 0.  0.
     999903    2    3    3    0    0 -0.21303911362E-01 -0.12037008751E+00 -0.52522596854E-01  0.14050490906E+00  0.45168481071E-01 0.  0.
         14    1    1    2    0    0  0.36672060668E-02 -0.11327934558E-01  0.92624491563E-04  0.11907102123E-01  0.00000000000E+00 0. -1.
     999901    1    3    3    0    0  0.17636705295E-01  0.13169802207E+00  0.52429972363E-01  0.89151798882E+00  0.88000000000E+00 0.  1.
        -11    1    4    4    0    0  0.77953872424E-02 -0.79015273121E-01 -0.27044461416E-01  0.83879946727E-01  0.51100000000E-03 0.  1.
         11    1    4    4    0    0 -0.29099298604E-01 -0.41354814388E-01 -0.25478135439E-01  0.56624962329E-01  0.51100000000E-03 0. -1.
</event>
<event>
 8    1  0.2190512E+004  0.1043930E+01  0.7957747E-01            NaN
         13   -1    0    0    0    0  0.00000000000E+00  0.00000000000E+00  0.74505805969E-08  0.10566000000E+00  0.10566000000E+00 0.  1.
     999900   -1    0    0    0    0 -0.00000000000E+00 -0.00000000000E+00 -0.74505805969E-08  0.93827000000E+00  0.93827000000E+00 0. -1.
     999902    2    1    2    0    0 -0.10188815112E-01 -0.12400745495E-01 -0.27699740504E-02  0.10276430973E+01  0.10275140254E+01 0.  0.
     999903    2    3    3    0    0 -0.25844311462E-01  0.17233335980E-01 -0.12661221791E+00  0.13833990116E+00  0.46285615755E-01 0.  0.
         14    1    1    2    0    0  0.10188815112E-01  0.12400745495E-01  0.27699740504E-02  0.16286902667E-01  0.00000000000E+00 0. -1.
     999901    1    3    3    0    0  0.15655496350E-01 -0.29634081476E-01  0.12384224386E+00  0.88930319617E+00  0.88000000000E+00 0.  1.
        -11    1    4    4    0    0  0.83005124433E-02 -0.39066672112E-02 -0.58902669549E-01  0.59614982651E-01  0.51100000000E-03 0.  1.
         11    1    4    4    0    0 -0.34144823905E-01  0.21140003192E-01 -0.67709548363E-01  0.78724918514E-01  0.51100000000E-03 0. -1.
</event>
<event>
 8    1  0.2190512E+004  0.1043930E+01  0.7957747E-01            NaN
         13   -1    0    0    0    0  0.00000000000E+00  0.00000000000E+00  0.74505805969E-08  0.10566000000E+00  0.10566000000E+00 0.  1.
     999900   -1    0    0    0    0 -0.00000000000E+00 -0.00000000000E+00 -0.74505805969E-08  0.93827000000E+00  0.93827000000E+00 0.  1.
     999902    2    1    2    0    0  0.13057812709E-01 -0.31738922013E-02 -0.10164918334E-03  0.10304916074E+01  0.10304039802E+01 0.  0.
     999903    2    3    3    0    0 -0.10009400590E+00 -0.42198710501E-01 -0.73771661915E-01  0.13933867924E+00  0.46620470249E-01 0.  0.
         14    1    1    2    0    0 -0.13057812709E-01  0.31738922013E-02  0.10164918334E-03  0.13438392649E-01  0.00000000000E+00 0. -1.
     999901    1    3    3    0    0  0.11315181861E+00  0.39024818300E-01  0.73670012731E-01  0.89115292811E+00  0.88000000000E+00 0. -1.
        -11    1    4    4    0    0 -0.10092168010E+00 -0.36267837926E-01 -0.56843761483E-01  0.12137551616E+00  0.51100000000E-03 0.  1.
         11    1    4    4    0    0  0.82767419638E-03 -0.59308725757E-02 -0.16927900431E-01  0.17963163087E-01  0.51100000000E-03 0. -1.
</event>
<event>
 7    1  0.2190512E+004  0.1043930E+01  0.7957747E-01            NaN
         13   -1    0    0    0    0  0.00000000000E+00  0.00000000000E+00  0.74505805969E-08  0.10566000000E+00  0.10566000000E+00 0. -1.
     999900   -1    0    0    0    0 -0.00000000000E+00 -0.00000000000E+00 -0.74505805969E-08  0.93827000000E+00  0.93827000000E+00 0.  1.
     999902    2    1    2    0    0 -0.10923110806E-01  0.73376427033E-02  0.26824066209E-02  0.10305005303E+01  0.10304130203E+01 0.  0.
         14    1    1    2    0    0  0.10923110806E-01 -0.73376427033E-02 -0.26824066209E-02  0.13429469662E-01  0.00000000000E+00 0. -1.
     999901    1    3    3    0    0 -0.12366848855E+00  0.28035916482E-01 -0.29355012231E-01  0.88957384427E+00  0.88000000000E+00 0. -1.
        -11    1    3    3    0    0  0.42705850029E-01 -0.45887530065E-01  0.17536972799E-01  0.65094251499E-01  0.51100000000E-03 0.  1.
         11    1    3    3    0    0  0.70039527718E-01  0.25189256287E-01  0.14500446053E-01  0.75832434564E-01  0.51100000000E-03 0. -1.
</event>
<event>
 8    1  0.2190512E+004  0.1043930E+01  0.7957747E-01            NaN
         13   -1    0    0    0    0  0.00000000000E+00  0.00000000000E+00  0.74505805969E-08  0.10566000000E+00  0.10566000000E+00 0. -1.
     999900   -1    0    0    0    0 -0.00000000000E+00 -0.00000000000E+00 -0.74505805969E-08  0.93827000000E+00  0.93827000000E+00 0. -1.
     999902    2    1    2    0    0  0.38463177839E-02 -0.11479847158E-01 -0.58599403449E-02  0.10304793512E+01  0.10303915631E+01 0.  0.
     999903    2    3    3    0    0  0.96662709408E-01  0.89815894036E-01  0.32866368522E-02  0.13977212122E+00  0.45987712229E-01 0.  0.
         14    1    1    2    0    0 -0.38463177839E-02  0.11479847158E-01  0.58599403449E-02  0.13450648761E-01  0.00000000000E+00 0. -1.
     999901    1    3    3    0    0 -0.92816391624E-01 -0.10129574119E+00 -0.91465771971E-02  0.89070723002E+00  0.88000000000E+00 0. -1.
        -11    1    4    4    0    0  0.21461442095E-01  0.48612086199E-01  0.87074854462E-02  0.53849882499E-01  0.51100000000E-03 0.  1.
         11    1    4    4    0    0  0.75201267313E-01  0.41203807838E-01 -0.54208485939E-02  0.85922238718E-01  0.51100000000E-03 0. -1.
</event>
<event>
 8    1  0.2190512E+004  0.1043930E+01  0.7957747E-01            NaN
         13   -1    0    0    0    0  0.00000000000E+00  0.00000000000E+00  0.74505805969E-08  0.10566000000E+00  0.10566000000E+00 0. -1.
     999900   -1    0    0    0    0 -0.00000000000E+00 -0.00000000000E+00 -0.74505805969E-08  0.93827000000E+00  0.93827000000E+00 0. -1.
     999902    2    1    2    0    0  0.10234764965E-03  0.50329860871E-02 -0.13171889082E-01  0.10298289332E+01  0.10297323883E+01 0.  0.
     999903    2    3    3    0    0 -0.40352637621E-01  0.11872702447E+00  0.41792919656E-01  0.13989406454E+00  0.45817676235E-01 0.  0.
         14    1    1    2    0    0 -0.10234764965E-03 -0.50329860871E-02  0.13171889082E-01  0.14101066838E-01  0.00000000000E+00 0. -1.
     999901    1    3    3    0    0  0.40454985270E-01 -0.11369403839E+00 -0.54964808738E-01  0.88993486863E+00  0.88000000000E+00 0. -1.
        -11    1    4    4    0    0 -0.23996138136E-01  0.11183527274E+00  0.28975694654E-01  0.11799489343E+00  0.51100000000E-03 0.  1.
         11    1    4    4    0    0 -0.16356499484E-01  0.68917517361E-02  0.12817225003E-01  0.21899171106E-01  0.51100000000E-03 0. -1.
</event>
<event>
 8    1  0.2190512E+004  0.1043930E+01  0.7957747E-01            NaN
         13   -1    0    0    0    0  0.00000000000E+00  0.00000000000E+00  0.74505805969E-08  0.10566000000E+00  0.10566000000E+00 0.  1.
     999900   -1    0    0    0    0 -0.00000000000E+00 -0.00000000000E+00 -0.74505805969E-08  0.93827000000E+00  0.93827000000E+00 0. -1.
     999902    2    1    2    0    0  0.85384237793E-02 -0.81155605268E-02  0.57074375628E-02  0.10308402389E+01  0.10307571276E+01 0.  0.
     999903    2    3    3    0    0 -0.33260798577E-01  0.12509555503E+00  0.26448139858E-01  0.13959248821E+00  0.45070833731E-01 0.  0.
         14    1    1    2    0    0 -0.85384237793E-02  0.81155605268E-02 -0.57074375628E-02  0.13089761145E-01  0.00000000000E+00 0. -1.
     999901    1    3    3    0    0  0.41799222356E-01 -0.13321111555E+00 -0.20740702296E-01  0.89124775064E+00  0.88000000000E+00 0. -1.
        -11    1    4    4    0    0  0.51764922453E-02  0.68059148760E-01  0.14515700746E-01  0.69784027478E-01  0.51100000000E-03 0. -1.
         11    1    4    4    0    0 -0.38437290822E-01  0.57036406268E-01  0.11932439112E-01  0.69808460733E-01  0.51100000000E-03 0.  1.
</event>
<event>
 7    1  0.2190512E+004  0.1043930E+01  0.7957747E-01            NaN
         13   -1    0    0    0    0  0.00000000000E+00  0.00000000000E+00  0.74505805969E-08  0.10566000000E+00  0.10566000000E+00 0. -1.
     999900   -1    0    0    0    0 -0.00000000000E+00 -0.00000000000E+00 -0.74505805969E-08  0.93827000000E+00  0.93827000000E+00 0. -1.
     999903    2    1    2    0    0 -0.80397794632E-01  0.89820357760E-01 -0.16103934361E-01  0.12862103936E+00  0.41863265697E-01 0.  0.
         14    1    1    2    0    0  0.26240032702E-01 -0.72878253351E-02  0.12050353928E-01  0.29780240833E-01  0.00000000000E+00 0.  1.
     999901    1    1    2    0    0  0.54157761930E-01 -0.82532532425E-01  0.40535804329E-02  0.88552871981E+00  0.88000000000E+00 0. -1.
        -11    1    3    3    0    0 -0.76938118727E-01  0.94176779988E-01 -0.13198460575E-01  0.12232416149E+00  0.51100000000E-03 0.  1.
         11    1    3    3    0    0 -0.34596759047E-02 -0.43564222279E-02 -0.29054737852E-02  0.62968778700E-02  0.51100000000E-03 0. -1.
</event>
<event>
 8    1  0.2190512E+004  0.1043930E+01  0.7957747E-01            NaN
         13   -1    0    0    0    0  0.00000000000E+00  0.00000000000E+00  0.74505805969E-08  0.10566000000E+00  0.10566000000E+00 0. -1.
     999900   -1    0    0    0    0 -0.00000000000E+00 -0.00000000000E+00 -0.74505805969E-08  0.93827000000E+00  0.93827000000E+00 0.  1.
     999902    2    1    2    0    0 -0.29387021134E-02 -0.49661086933E-02 -0.11119692445E-01  0.10314022003E+01  0.10313261138E+01 0.  0.
     999903    2    3    3    0    0  0.25737498179E-03 -0.45547139663E-01  0.12443380085E+00  0.14009317165E+00  0.45472164843E-01 0.  0.
         14    1    1    2    0    0  0.29387021134E-02  0.49661086933E-02  0.11119692445E-01  0.12527799717E-01  0.00000000000E+00 0. -1.
     999901    1    3    3    0    0 -0.31960770952E-02  0.40581030969E-01 -0.13555349329E+00  0.89130902864E+00  0.88000000000E+00 0.  1.
        -11    1    4    4    0    0  0.19114325439E-01 -0.13270559278E-01  0.72203020800E-01  0.75861732871E-01  0.51100000000E-03 0. -1.
         11    1    4    4    0    0 -0.18856950458E-01 -0.32276580385E-01  0.52230780048E-01  0.64231438777E-01  0.51100000000E-03 0.  1.
</event>
<event>
 8    1  0.2190512E+004  0.1043930E+01  0.7957747E-01            NaN
         13   -1    0    0    0    0  0.00000000000E+00  0.00000000000E+00  0.74505805969E-08  0.10566000000E+00  0.10566000000E+00 0.  1.
     999900   -1    0    0    0    0 -0.00000000000E+00 -0.00000000000E+00 -0.74505805969E-08  0.93827000000E+00  0.93827000000E+00 0.  1.
     999902    2    1    2    0    0 -0.10587443116E-02 -0.14133382478E-01  0.20167783453E-02  0.10296142452E+01  0.10295147173E+01 0.  0.
     999903    2    3    3    0    0  0.80763741925E-01 -0.41659985525E-01  0.97055226944E-01  0.14029712528E+00  0.44779793207E-01 0.  0.
         14    1    1    2    0    0  0.10587443116E-02  0.14133382478E-01 -0.20167783453E-02  0.14315754772E-01  0.00000000000E+00 0. -1.
     999901    1    3    3    0    0 -0.81822486236E-01  0.27526603047E-01 -0.95038448599E-01  0.88931711995E+00  0.88000000000E+00 0.  1.
        -11    1    4    4    0    0  0.85042661983E-01 -0.36195508058E-01  0.81384350907E-01  0.12315048865E+00  0.51100000000E-03 0. -1.
         11    1    4    4    0    0 -0.42789200578E-02 -0.54644774668E-02  0.15670876038E-01  0.17146636627E-01  0.51100000000E-03 0.  1.
</event>
<event>
 8    1  0.2190512E+004  0.1043930E+01  0.7957747E-01            NaN
         13   -1    0    0    0    0  0.00000000000E+00  0.00000000000E+00  0.74505805969E-08  0.10566000000E+00  0.10566000000E+00 0. -1.
     999900   -1    0    0    0    0 -0.00000000000E+00 -0.00000000000E+00 -0.74505805969E-08  0.93827000000E+00  0.93827000000E+00 0. -1.
     999902    2    1    2    0    0 -0.50095533756E-02  0.77253329528E-02 -0.97894458542E-02  0.10304908912E+01  0.10304032547E+01 0.  0.
     999903    2    3    3    0    0 -0.89903426043E-01 -0.78485506666E-01 -0.59294975345E-01  0.14083361119E+00  0.45558875855E-01 0.  0.
         14    1    1    2    0    0  0.50095533756E-02 -0.77253329528E-02  0.97894458542E-02  0.13439108765E-01  0.00000000000E+00 0. -1.
     999901    1    3    3    0    0  0.84893872667E-01  0.86210839619E-01  0.49505529491E-01  0.88965728004E+00  0.88000000000E+00 0.  1.
        -11    1    4    4    0    0 -0.47885101178E-01 -0.12989700462E-01 -0.27879988264E-01  0.56914586000E-01  0.51100000000E-03 0. -1.
         11    1    4    4    0    0 -0.42018324865E-01 -0.65495806205E-01 -0.31414987082E-01  0.83919025192E-01  0.51100000000E-03 0.  1.
</event>
<event>
 8    1  0.2190512E+004  0.1043930E+01  0.7957747E-01            NaN
         13   -1    0    0    0    0  0.00000000000E+00  0.00000000000E+00  0.74505805969E-08  0.10566000000E+00  0.10566000000E+00 0. -1.
     999900   -1    0    0    0    0 -0.00000000000E+00 -0.00000000000E+00 -0.74505805969E-08  0.93827000000E+00  0.93827000000E+00 0.  1.
     999902    2    1    2    0    0 -0.11779877600E-01 -0.66545923844E-02 -0.22646340644E-02  0.10302122129E+01  0.10301208793E+01 0.  0.
     999903    2    3    3    0    0  0.81254876727E-01 -0.46180196540E-01  0.93247206348E-01  0.13929120035E+00  0.44407560845E-01 0.  0.
         14    1    1    2    0    0  0.11779877600E-01  0.66545923844E-02  0.22646340644E-02  0.13717787122E-01  0.00000000000E+00 0.  1.
     999901    1    3    3    0    0 -0.93034754327E-01  0.39525604156E-01 -0.95511840412E-01  0.89092101252E+00  0.88000000000E+00 0.  1.
        -11    1    4    4    0    0  0.60017706043E-02 -0.19789284766E-01  0.70319253694E-02  0.21848252501E-01  0.51100000000E-03 0.  1.
         11    1    4    4    0    0  0.75253106122E-01 -0.26390911774E-01  0.86215280979E-01  0.11744294785E+00  0.51100000000E-03 0. -1.
</event>
<event>
 8    1  0.2190512E+004  0.1043930E+01  0.7957747E-01            NaN
         13   -1    0    0    0    0  0.00000000000E+00  0.00000000000E+00  0.74505805969E-08  0.10566000000E+00  0.10566000000E+00 0.  1.
     999900   -1    0    0    0    0 -0.00000000000E+00 -0.00000000000E+00 -0.74505805969E-08  0.93827000000E+00  0.93827000000E+00 0.  1.
     999902    2    1    2    0    0 -0.98748169806E-02 -0.56013968658E-02 -0.96513429640E-02  0.10290291249E+01  0.10289212331E+01 0.  0.
     999903    2    3    3    0    0 -0.92883433349E-02 -0.40717123127E-01  0.12341258212E+00  0.13833306770E+00  0.46488866998E-01 0.  0.
         14    1    1    2    0    0  0.98748169806E-02  0.56013968658E-02  0.96513429640E-02  0.14900875084E-01  0.00000000000E+00 0.  1.
     999901    1    3    3    0    0 -0.58647364573E-03  0.35115726262E-01 -0.13306392509E+00  0.89069605722E+00  0.88000000000E+00 0.  1.
        -11    1    4    4    0    0 -0.24565294766E-01 -0.90350092437E-02  0.39985916537E-01  0.47793511497E-01  0.51100000000E-03 0. -1.
         11    1    4    4    0    0  0.15276951431E-01 -0.31682113884E-01  0.83426665588E-01  0.90539556202E-01  0.51100000000E-03 0.  1.
</event>
<event>
 8    1  0.2190512E+004  0.1043930E+01  0.7957747E-01            NaN
         13   -1    0    0    0    0  0.00000000000E+00  0.00000000000E+00  0.74505805969E-08  0.10566000000E+00  0.10566000000E+00 0. -1.
     999900   -1    0    0    0    0 -0.00000000000E+00 -0.00000000000E+00 -0.74505805969E-08  0.93827000000E+00  0.93827000000E+00 0.  1.
     999902    2    1    2    0    0  0.68064835748E-02 -0.10187257799E-01 -0.76156885706E-02  0.10295040805E+01  0.10294030040E+01 0.  0.
     999903    2    3    3    0    0  0.68131928399E-01  0.10518655789E+00 -0.40782636336E-01  0.13923896611E+00  0.44923208145E-01 0.  0.
         14    1    1    2    0    0 -0.68064835748E-02  0.10187257799E-01  0.76156885706E-02  0.14425919469E-01  0.00000000000E+00 0. -1.
     999901    1    3    3    0    0 -0.61325444824E-01 -0.11537381569E+00  0.33166947765E-01  0.89026511442E+00  0.88000000000E+00 0.  1.
        -11    1    4    4    0    0  0.33513915469E-01  0.15466698411E-01 -0.96094851780E-02  0.38144522755E-01  0.51100000000E-03 0. -1.
         11    1    4    4    0    0  0.34618012930E-01  0.89719859476E-01 -0.31173151158E-01  0.10109444336E+00  0.51100000000E-03 0.  1.
</event>
<event>
 8    1  0.2190512E+004  0.1043930E+01  0.7957747E-01            NaN
         13   -1    0    0    0    0  0.00000000000E+00  0.00000000000E+00  0.74505805969E-08  0.10566000000E+00  0.10566000000E+00 0. -1.
     999900   -1    0    0    0    0 -0.00000000000E+00 -0.00000000000E+00 -0.74505805969E-08  0.93827000000E+00  0.93827000000E+00 0.  1.
     999902    2    1    2    0    0 -0.10522258453E-01  0.81916286509E-02 -0.14055850924E-02  0.10305211830E+01  0.10304339437E+01 0.  0.
     999903    2    3    3    0    0 -0.85554185950E-01 -0.85056278944E-01 -0.56543825652E-01  0.14070929955E+00  0.45252772735E-01 0.  0.
         14    1    1    2    0    0  0.10522258453E-01 -0.81916286509E-02  0.14055850924E-02  0.13408816964E-01  0.00000000000E+00 0. -1.
     999901    1    3    3    0    0  0.75031927497E-01  0.93247907595E-01  0.55138240559E-01  0.88981188348E+00  0.88000000000E+00 0.  1.
        -11    1    4    4    0    0 -0.33630189527E-01 -0.41867450591E-01 -0.49089505460E-01  0.72759286238E-01  0.51100000000E-03 0. -1.
         11    1    4    4    0    0 -0.51923996424E-01 -0.43188828353E-01 -0.74543201920E-02  0.67950013316E-01  0.51100000000E-03 0.  1.
</event>
<event>
 8    1  0.2190512E+004  0.1043930E+01  0.7957747E-01            NaN
         13   -1    0    0    0    0  0.00000000000E+00  0.00000000000E+00  0.74505805969E-08  0.10566000000E+00  0.10566000000E+00 0. -1.
     999900   -1    0    0    0    0 -0.00000000000E+00 -0.00000000000E+00 -0.74505805969E-08  0.93827000000E+00  0.93827000000E+00 0. -1.
     999902    2    1    2    0    0 -0.55535017629E-02 -0.11066164654E-01  0.13216186317E-02  0.10314781705E+01  0.10314030096E+01 0.  0.
     999903    2    3    3    0    0  0.89133337728E-01 -0.16242410995E-01  0.98030354796E-01  0.14111590112E+00  0.45773128328E-01 0.  0.
         14    1    1    2    0    0  0.55535017629E-02  0.11066164654E-01 -0.13216186317E-02  0.12451829495E-01  0.00000000000E+00 0. -1.
     999901    1    3    3    0    0 -0.94686839491E-01  0.51762463411E-02 -0.96708736165E-01  0.89036226939E+00  0.88000000000E+00 0. -1.
        -11    1    4    4    0    0  0.39152619768E-01  0.88400857632E-02  0.64318566559E-01  0.75816976174E-01  0.51100000000E-03 0. -1.
         11    1    4    4    0    0  0.49980717961E-01 -0.25082496758E-01  0.33711788237E-01  0.65298924942E-01  0.51100000000E-03 0.  1.
</event>
<event>
 8    1  0.2190512E+004  0.1043930E+01  0.7957747E-01            NaN
         13   -1    0    0    0    0  0.00000000000E+00  0.00000000000E+00  0.74505805969E-08  0.10566000000E+00  0.10566000000E+00 0.  1.
     999900   -1    0    0    0    0 -0.00000000000E+00 -0.00000000000E+00 -0.74505805969E-08  0.93827000000E+00  0.93827000000E+00 0. -1.
     999902    2    1    2    0    0  0.11702907529E-01 -0.12251133475E-01  0.13187706682E-01  0.10224599296E+01  0.10222344857E+01 0.  0.
     999903    2    3    3    0    0  0.71892269228E-01  0.10093032597E+00  0.18614441478E-01  0.13315556579E+00  0.45038629999E-01 0.  0.
         14    1    1    2    0    0 -0.11702907529E-01  0.12251133475E-01 -0.13187706682E-01  0.21470070414E-01  0.00000000000E+00 0. -1.
     999901    1    3    3    0    0 -0.60189361699E-01 -0.11318145945E+00 -0.54267347956E-02  0.88930436380E+00  0.88000000000E+00 0.  1.
        -11    1    4    4    0    0  0.52971283348E-01  0.62778500634E-01 -0.86353059395E-02  0.82594955240E-01  0.51100000000E-03 0. -1.
         11    1    4    4    0    0  0.18920985880E-01  0.38151825339E-01  0.27249747417E-01  0.50560610545E-01  0.51100000000E-03 0.  1.
</event>
<event>
 8    1  0.2190512E+004  0.1043930E+01  0.7957747E-01            NaN
         13   -1    0    0    0    0  0.00000000000E+00  0.00000000000E+00  0.74505805969E-08  0.10566000000E+00  0.10566000000E+00 0.  1.
     999900   -1    0    0    0    0 -0.00000000000E+00 -0.00000000000E+00 -0.74505805969E-08  0.93827000000E+00  0.93827000000E+00 0.  1.
     999902    2    1    2    0    0 -0.13765556763E-01  0.10873074467E-02  0.11177494589E-02  0.10300764028E+01  0.10299832394E+01 0.  0.
     999903    2    3    3    0    0 -0.32840739779E-02 -0.69885023311E-01  0.11263376520E+00  0.14014227326E+00  0.45373891906E-01 0.  0.
         14    1    1    2    0    0  0.13765556763E-01 -0.10873074467E-02 -0.11177494589E-02  0.13853597162E-01  0.00000000000E+00 0. -1.
     999901    1    3    3    0    0 -0.10481482785E-01  0.70972330757E-01 -0.11151601574E+00  0.88993412957E+00  0.88000000000E+00 0.  1.
        -11    1    4    4    0    0 -0.22782616580E-01 -0.22045224036E-01  0.41436638390E-01  0.52175623074E-01  0.51100000000E-03 0.  1.
         11    1    4    4    0    0  0.19498542602E-01 -0.47839799274E-01  0.71197126813E-01  0.87966650190E-01  0.51100000000E-03 0. -1.
</event>
<event>
 8    1  0.2190512E+004  0.1043930E+01  0.7957747E-01            NaN
         13   -1    0    0    0    0  0.00000000000E+00  0.00000000000E+00  0.74505805969E-08  0.10566000000E+00  0.10566000000E+00 0.  1.
     999900   -1    0    0    0    0 -0.00000000000E+00 -0.00000000000E+00 -0.74505805969E-08  0.93827000000E+00  0.93827000000E+00 0.  1.
     999902    2    1    2    0    0 -0.11926193814E-02  0.90973902222E-02  0.74796612967E-02  0.10320923405E+01  0.10320244518E+01 0.  0.
     999903    2    3    3    0    0 -0.45882411744E-01 -0.10770939869E+00 -0.63244318858E-01  0.14044056717E+00  0.44913235969E-01 0.  0.
         14    1    1    2    0    0  0.11926193814E-02 -0.90973902222E-02 -0.74796612967E-02  0.11837659522E-01  0.00000000000E+00 0. -1.
     999901    1    3    3    0    0  0.44689792363E-01  0.11680678891E+00  0.70723980155E-01  0.89165177331E+00  0.88000000000E+00 0. -1.
        -11    1    4    4    0    0 -0.26485609219E-01 -0.80046044990E-01 -0.65215027401E-01  0.10659323494E+00  0.51100000000E-03 0.  1.
         11    1    4    4    0    0 -0.19396802525E-01 -0.27663353699E-01  0.19707085420E-02  0.33847332232E-01  0.51100000000E-03 0. -1.
</event>
<event>
 7    1  0.2190512E+004  0.1043930E+01  0.7957747E-01            NaN
         13   -1    0    0    0    0  0.00000000000E+00  0.00000000000E+00  0.74505805969E-08  0.10566000000E+00  0.10566000000E+00 0. -1.
     999900   -1    0    0    0    0 -0.00000000000E+00 -0.00000000000E+00 -0.74505805969E-08  0.93827000000E+00  0.93827000000E+00 0.  1.
     999903    2    1    2    0    0 -0.16841285984E-01 -0.63392580327E-01 -0.77292116940E-01  0.11082231963E+00  0.44780208044E-01 0.  0.
         14    1    1    2    0    0  0.14835799683E-02 -0.38522252141E-01  0.24171096455E-01  0.45501723301E-01  0.00000000000E+00 0. -1.
     999901    1    1    2    0    0  0.15357706016E-01  0.10191483247E+00  0.53121020485E-01  0.88760595707E+00  0.88000000000E+00 0. -1.
        -11    1    3    3    0    0  0.88959075437E-03 -0.60485927583E-01 -0.66307527600E-01  0.89756827844E-01  0.51100000000E-03 0.  1.
         11    1    3    3    0    0 -0.17730876738E-01 -0.29066527439E-02 -0.10984589340E-01  0.21065491783E-01  0.51100000000E-03 0. -1.
</event>
<event>
 8    1  0.2190512E+004  0.1043930E+01  0.7957747E-01            NaN
         13   -1    0    0    0    0  0.00000000000E+00  0.00000000000E+00  0.74505805969E-08  0.10566000000E+00  0.10566000000E+00 0.  1.
     999900   -1    0    0    0    0 -0.00000000000E+00 -0.00000000000E+00 -0.74505805969E-08  0.93827000000E+00  0.93827000000E+00 0. -1.
     999902    2    1    2    0    0 -0.77797123564E-02 -0.46606970798E-02  0.10474914565E-01  0.10300746813E+01  0.10299814946E+01 0.  0.
     999903    2    3    3    0    0  0.10147498342E+00  0.21006182668E-01  0.83167068368E-01  0.13997382942E+00  0.44016811447E-01 0.  0.
         14    1    1    2    0    0  0.77797123564E-02  0.46606970798E-02 -0.10474914565E-01  0.13855318717E-01  0.00000000000E+00 0. -1.
     999901    1    3    3    0    0 -0.10925469578E+00 -0.25666879748E-01 -0.72692153803E-01  0.89010085186E+00  0.88000000000E+00 0. -1.
        -11    1    4    4    0    0  0.81767928105E-01 -0.25798799080E-02  0.62047418696E-01  0.10267810446E+00  0.51100000000E-03 0. -1.
         11    1    4    4    0    0  0.19707055319E-01  0.23586062576E-01  0.21119649671E-01  0.37295724961E-01  0.51100000000E-03 0.  1.
</event>
<event>
 7    1  0.2190512E+004  0.1043930E+01  0.7957747E-01            NaN
         13   -1    0    0    0    0  0.00000000000E+00  0.00000000000E+00  0.74505805969E-08  0.10566000000E+00  0.10566000000E+00 0.  1.
     999900   -1    0    0    0    0 -0.00000000000E+00 -0.00000000000E+00 -0.74505805969E-08  0.93827000000E+00  0.93827000000E+00 0.  1.
     999903    2    1    2    0    0  0.15808454538E-01  0.11276399729E+00  0.95054111791E-02  0.12270825416E+00  0.44736299349E-01 0.  0.
         14    1    1    2    0    0 -0.80653191128E-02 -0.11391213256E-01  0.31464589073E-01  0.34421352056E-01  0.00000000000E+00 0.  1.
     999901    1    1    2    0    0 -0.77431354249E-02 -0.10137278403E+00 -0.40970000252E-01  0.88680039378E+00  0.88000000000E+00 0.  1.
        -11    1    3    3    0    0  0.20120303754E-01  0.10391780186E+00 -0.40772115371E-02  0.10592743243E+00  0.51100000000E-03 0. -1.
         11    1    3    3    0    0 -0.43118492163E-02  0.88461954267E-02  0.13582622716E-01  0.16780821733E-01  0.51100000000E-03 0.  1.
</event>
<event>
 7    1  0.3432738E+004  0.1043930E+01  0.7957747E-01            NaN
         13   -1    0    0    0    0  0.00000000000E+00  0.00000000000E+00  0.74505805969E-08  0.10566000000E+00  0.10566000000E+00 0. -1.
     999900   -1    0    0    0    0 -0.00000000000E+00 -0.00000000000E+00 -0.74505805969E-08  0.93827000000E+00  0.93827000000E+00 0. -1.
     999902    2    1    2    0    0 -0.41249397008E-02  0.26442517956E-02  0.14734634073E-01  0.10284020692E+01  0.10282848337E+01 0.  0.
         14    1    1    2    0    0  0.41249397008E-02 -0.26442517956E-02 -0.14734634073E-01  0.15527930846E-01  0.00000000000E+00 0.  1.
     999901    1    3    3    0    0  0.86612467338E-02  0.13733641640E+00  0.20122502718E-01  0.89092155860E+00  0.88000000000E+00 0. -1.
        -11    1    3    3    0    0 -0.15011951027E-02 -0.81411282024E-01  0.66600534499E-02  0.81698640506E-01  0.51100000000E-03 0.  1.
         11    1    3    3    0    0 -0.11284991332E-01 -0.53280882582E-01 -0.12047922095E-01  0.55781870047E-01  0.51100000000E-03 0. -1.
</event>
<event>
 8    1  0.2190512E+004  0.1043930E+01  0.7957747E-01            NaN
         13   -1    0    0    0    0  0.00000000000E+00  0.00000000000E+00  0.74505805969E-08  0.10566000000E+00  0.10566000000E+00 0. -1.
     999900   -1    0    0    0    0 -0.00000000000E+00 -0.00000000000E+00 -0.74505805969E-08  0.93827000000E+00  0.93827000000E+00 0.  1.
     999902    2    1    2    0    0  0.13666215277E-01 -0.69279095969E-02 -0.42316348697E-02  0.10280344627E+01  0.10279115665E+01 0.  0.
     999903    2    3    3    0    0  0.14038418665E-02 -0.11873825975E+00  0.55822709913E-01  0.13884469416E+00  0.45397456475E-01 0.  0.
         14    1    1    2    0    0 -0.13666215277E-01  0.69279095969E-02  0.42316348697E-02  0.15895537268E-01  0.00000000000E+00 0. -1.
     999901    1    3    3    0    0  0.12262373411E-01  0.11181035015E+00 -0.60054344782E-01  0.88918976857E+00  0.88000000000E+00 0.  1.
        -11    1    4    4    0    0 -0.16894064390E-01 -0.95818243651E-01  0.47964907515E-01  0.10847782585E+00  0.51100000000E-03 0.  1.
         11    1    4    4    0    0  0.18297906256E-01 -0.22920016098E-01  0.78578023980E-02  0.30366868308E-01  0.51100000000E-03 0. -1.
</event>
<event>
 8    1  0.2190512E+004  0.1043930E+01  0.7957747E-01            NaN
         13   -1    0    0    0    0  0.00000000000E+00  0.00000000000E+00  0.74505805969E-08  0.10566000000E+00  0.10566000000E+00 0. -1.
     999900   -1    0    0    0    0 -0.00000000000E+00 -0.00000000000E+00 -0.74505805969E-08  0.93827000000E+00  0.93827000000E+00 0. -1.
     999902    2    1    2    0    0  0.10669609867E-01 -0.13528352803E-02 -0.77836455712E-02  0.10306538606E+01  0.10305683503E+01 0.  0.
     999903    2    3    3    0    0 -0.44817204730E-01 -0.12469020221E+00  0.51855895864E-02  0.14022750560E+00  0.45613973966E-01 0.  0.
         14    1    1    2    0    0 -0.10669609867E-01  0.13528352803E-02  0.77836455712E-02  0.13276139363E-01  0.00000000000E+00 0. -1.
     999901    1    3    3    0    0  0.55486814596E-01  0.12333736693E+00 -0.12969235158E-01  0.89042635503E+00  0.88000000000E+00 0.  1.
        -11    1    4    4    0    0 -0.24410320594E-01 -0.64905265105E-01 -0.20071161106E-01  0.72191895799E-01  0.51100000000E-03 0. -1.
         11    1    4    4    0    0 -0.20406884135E-01 -0.59784937108E-01  0.25256750692E-01  0.68035609806E-01  0.51100000000E-03 0.  1.
</event>
<event>
 8    1  0.2190512E+004  0.1043930E+01  0.7957747E-01            NaN
         13   -1    0    0    0    0  0.00000000000E+00  0.00000000000E+00  0.74505805969E-08  0.10566000000E+00  0.10566000000E+00 0.  1.
     999900   -1    0    0    0    0 -0.00000000000E+00 -0.00000000000E+00 -0.74505805969E-08  0.93827000000E+00  0.93827000000E+00 0. -1.
     999902    2    1    2    0    0  0.92236370252E-02 -0.77210869121E-02 -0.29847758169E-02  0.10315364715E+01  0.10314620169E+01 0.  0.
     999903    2    3    3    0    0  0.35424046064E-02  0.13188680930E+00  0.15455784651E-01  0.14032230227E+00  0.45219333680E-01 0.  0.
         14    1    1    2    0    0 -0.92236370252E-02  0.77210869121E-02  0.29847758169E-02  0.12393528543E-01  0.00000000000E+00 0.  1.
     999901    1    3    3    0    0  0.56812324188E-02 -0.13960789621E+00 -0.18440560468E-01  0.89121416919E+00  0.88000000000E+00 0. -1.
        -11    1    4    4    0    0 -0.16569168611E-01  0.32129044862E-01 -0.50687170193E-02  0.36507066239E-01  0.51100000000E-03 0.  1.
         11    1    4    4    0    0  0.20111573217E-01  0.99757764436E-01  0.20524501671E-01  0.10381523603E+00  0.51100000000E-03 0. -1.
</event>
<event>
 8    1  0.2190512E+004  0.1043930E+01  0.7957747E-01            NaN
         13   -1    0    0    0    0  0.00000000000E+00  0.00000000000E+00  0.74505805969E-08  0.10566000000E+00  0.10566000000E+00 0. -1.
     999900   -1    0    0    0    0 -0.00000000000E+00 -0.00000000000E+00 -0.74505805969E-08  0.93827000000E+00  0.93827000000E+00 0.  1.
     999902    2    1    2    0    0  0.10446770311E-01 -0.58722924569E-02 -0.65836201010E-02  0.10302565629E+01  0.10301658228E+01 0.  0.
     999903    2    3    3    0    0 -0.10486102878E+00  0.43893883836E-03  0.78468938532E-01  0.13864585305E+00  0.45489232027E-01 0.  0.
         14    1    1    2    0    0 -0.10446770311E-01  0.58722924569E-02  0.65836201010E-02  0.13673437105E-01  0.00000000000E+00 0. -1.
     999901    1    3    3    0    0  0.11530779909E+00 -0.63112312953E-02 -0.85052558633E-01  0.89161070984E+00  0.88000000000E+00 0. -1.
        -11    1    4    4    0    0 -0.94300710733E-01  0.11829679750E-01  0.53028598143E-01  0.10883408800E+00  0.51100000000E-03 0.  1.
         11    1    4    4    0    0 -0.10560318048E-01 -0.11390740912E-01  0.25440340389E-01  0.29811765059E-01  0.51100000000E-03 0. -1.
</event>
<event>
 8    1  0.2190512E+004  0.1043930E+01  0.7957747E-01            NaN
         13   -1    0    0    0    0  0.00000000000E+00  0.00000000000E+00  0.74505805969E-08  0.10566000000E+00  0.10566000000E+00 0. -1.
     999900   -1    0    0    0    0 -0.00000000000E+00 -0.00000000000E+00 -0.74505805969E-08  0.93827000000E+00  0.93827000000E+00 0. -1.
     999902    2    1    2    0    0 -0.85608633827E-02 -0.99194601920E-02 -0.56212429299E-02  0.10296722847E+01  0.10295735678E+01 0.  0.
     999903    2    3    3    0    0  0.72243373703E-02  0.12888925219E+00 -0.24276444135E-01  0.13845679580E+00  0.43775657410E-01 0.  0.
         14    1    1    2    0    0  0.85608633827E-02  0.99194601920E-02  0.56212429299E-02  0.14257715260E-01  0.00000000000E+00 0. -1.
     999901    1    3    3    0    0 -0.15785200753E-01 -0.13880871239E+00  0.18655201205E-01  0.89121548894E+00  0.88000000000E+00 0.  1.
        -11    1    4    4    0    0  0.17818148207E-01  0.19597322304E-01 -0.39071785591E-02  0.26778136834E-01  0.51100000000E-03 0. -1.
         11    1    4    4    0    0 -0.10593810837E-01  0.10929192989E+00 -0.20369265576E-01  0.11167865896E+00  0.51100000000E-03 0.  1.
</event>
<event>
 8    1  0.2190512E+004  0.1043930E+01  0.7957747E-01            NaN
         13   -1    0    0    0    0  0.00000000000E+00  0.00000000000E+00  0.74505805969E-08  0.10566000000E+00  0.10566000000E+00 0.  1.
     999900   -1    0    0    0    0 -0.00000000000E+00 -0.00000000000E+00 -0.74505805969E-08  0.93827000000E+00  0.93827000000E+00 0. -1.
     999902    2    1    2    0    0  0.12356085911E-01 -0.35501875066E-02 -0.75211414804E-02  0.10290355628E+01  0.10289277648E+01 0.  0.
     999903    2    3    3    0    0 -0.71203857807E-01 -0.98772389148E-01  0.52904011736E-01  0.13791226548E+00  0.37349488454E-01 0.  0.
         14    1    1    2    0    0 -0.12356085911E-01  0.35501875066E-02  0.75211414804E-02  0.14894437201E-01  0.00000000000E+00 0.  1.
     999901    1    3    3    0    0  0.83559943719E-01  0.95222201642E-01 -0.60425153217E-01  0.89112329732E+00  0.88000000000E+00 0. -1.
        -11    1    4    4    0    0 -0.23445611170E-01 -0.47490912861E-01  0.53762595125E-02  0.53237663124E-01  0.51100000000E-03 0. -1.
         11    1    4    4    0    0 -0.47758246637E-01 -0.51281476287E-01  0.47527752224E-01  0.84674602358E-01  0.51100000000E-03 0.  1.
</event>
<event>
 8    1  0.2190512E+004  0.1043930E+01  0.7957747E-01            NaN
         13   -1    0    0    0    0  0.00000000000E+00  0.00000000000E+00  0.74505805969E-08  0.10566000000E+00  0.10566000000E+00 0. -1.
     999900   -1    0    0    0    0 -0.00000000000E+00 -0.00000000000E+00 -0.74505805969E-08  0.93827000000E+00  0.93827000000E+00 0. -1.
     999902    2    1    2    0    0 -0.11134178254E-01 -0.13383048638E-02 -0.77699600229E-02  0.10302869335E+01  0.10301965987E+01 0.  0.
     999903    2    3    3    0    0 -0.98797725104E-01  0.90646049420E-02  0.88167014486E-01  0.14068195313E+00  0.46635093502E-01 0.  0.
         14    1    1    2    0    0  0.11134178254E-01  0.13383048638E-02  0.77699600229E-02  0.13643066519E-01  0.00000000000E+00 0. -1.
     999901    1    3    3    0    0  0.87663546850E-01 -0.10402909806E-01 -0.95936974509E-01  0.88960498035E+00  0.88000000000E+00 0. -1.
        -11    1    4    4    0    0 -0.10006240899E+00 -0.34718020746E-03  0.81703116144E-01  0.12918307372E+00  0.51100000000E-03 0. -1.
         11    1    4    4    0    0  0.12646838858E-02  0.94117851494E-02  0.64638983422E-02  0.11498879415E-01  0.51100000000E-03 0.  1.
</event>
<event>
 8    1  0.2190512E+004  0.1043930E+01  0.7957747E-01            NaN
         13   -1    0    0    0    0  0.00000000000E+00  0.00000000000E+00  0.74505805969E-08  0.10566000000E+00  0.10566000000E+00 0. -1.
     999900   -1    0    0    0    0 -0.00000000000E+00 -0.00000000000E+00 -0.74505805969E-08  0.93827000000E+00  0.93827000000E+00 0.  1.
     999902    2    1    2    0    0  0.11018952404E-01 -0.10397932362E-02  0.88105603053E-02  0.10297834649E+01  0.10296862921E+01 0.  0.
     999903    2    3    3    0    0 -0.13051941259E+00  0.85347942512E-02  0.13917451195E-01  0.13840763967E+00  0.43067615408E-01 0.  0.
         14    1    1    2    0    0 -0.11018952404E-01  0.10397932362E-02 -0.88105603053E-02  0.14146535087E-01  0.00000000000E+00 0.  1.
     999901    1    3    3    0    0  0.14153836499E+00 -0.95745874874E-02 -0.51068908896E-02  0.89137582524E+00  0.88000000000E+00 0.  1.
        -11    1    4    4    0    0 -0.47336652649E-01  0.23939140776E-01  0.73434401430E-02  0.53553976316E-01  0.51100000000E-03 0.  1.
         11    1    4    4    0    0 -0.83182759937E-01 -0.15404346524E-01  0.65740110519E-02  0.84853663356E-01  0.51100000000E-03 0. -1.
</event>
<event>
 8    1  0.2190512E+004  0.1043930E+01  0.7957747E-01            NaN
         13   -1    0    0    0    0  0.00000000000E+00  0.00000000000E+00  0.74505805969E-08  0.10566000000E+00  0.10566000000E+00 0.  1.
     999900   -1    0    0    0    0 -0.00000000000E+00 -0.00000000000E+00 -0.74505805969E-08  0.93827000000E+00  0.93827000000E+00 0. -1.
     999902    2    1    2    0    0 -0.46519370605E-02  0.11178485130E-01 -0.70903740480E-02  0.10298988756E+01  0.10298032926E+01 0.  0.
     999903    2    3    3    0    0  0.12590545822E+00 -0.24890701429E-02  0.37722021227E-01  0.13903402259E+00  0.45267302461E-01 0.  0.
         14    1    1    2    0    0  0.46519370605E-02 -0.11178485130E-01  0.70903740480E-02  0.14031124415E-01  0.00000000000E+00 0.  1.
     999901    1    3    3    0    0 -0.13055739528E+00  0.13667555273E-01 -0.44812395275E-01  0.89086485299E+00  0.88000000000E+00 0. -1.
        -11    1    4    4    0    0  0.76501630816E-01  0.13623834695E-01  0.39222834863E-01  0.87044817680E-01  0.51100000000E-03 0.  1.
         11    1    4    4    0    0  0.49403827406E-01 -0.16112904838E-01 -0.15008136355E-02  0.51989204911E-01  0.51100000000E-03 0. -1.
</event>
<event>
 8    1  0.2190512E+004  0.1043930E+01  0.7957747E-01            NaN
         13   -1    0    0    0    0  0.00000000000E+00  0.00000000000E+00  0.74505805969E-08  0.10566000000E+00  0.10566000000E+00 0. -1.
     999900   -1    0    0    0    0 -0.00000000000E+00 -0.00000000000E+00 -0.74505805969E-08  0.93827000000E+00  0.93827000000E+00 0.  1.
     999902    2    1    2    0    0 -0.30722213691E-02  0.12515685785E-01 -0.61978333023E-02  0.10296298576E+01  0.10295305482E+01 0.  0.
     999903    2    3    3    0    0  0.49285974280E-01  0.12425985774E+00  0.14967577946E-01  0.14076759873E+00  0.41495408881E-01 0.  0.
         14    1    1    2    0    0  0.30722213691E-02 -0.12515685785E-01  0.61978333023E-02  0.14300142393E-01  0.00000000000E+00 0.  1.
     999901    1    3    3    0    0 -0.52358195649E-01 -0.11174417195E+00 -0.21165411248E-01  0.88886225887E+00  0.88000000000E+00 0. -1.
        -11    1    4    4    0    0  0.37104453343E-01  0.94286272277E-01  0.29153261035E-01  0.10543630944E+00  0.51100000000E-03 0. -1.
         11    1    4    4    0    0  0.12181520937E-01  0.29973585459E-01 -0.14185683089E-01  0.35331289296E-01  0.51100000000E-03 0.  1.
</event>
<event>
 8    1  0.2190512E+004  0.1043930E+01  0.7957747E-01            NaN
         13   -1    0    0    0    0  0.00000000000E+00  0.00000000000E+00  0.74505805969E-08  0.10566000000E+00  0.10566000000E+00 0. -1.
     999900   -1    0    0    0    0 -0.00000000000E+00 -0.00000000000E+00 -0.74505805969E-08  0.93827000000E+00  0.93827000000E+00 0. -1.
     999902    2    1    2    0    0 -0.11733347280E-01 -0.73440449444E-02 -0.35030813350E-02  0.10296514142E+01  0.10295524060E+01 0.  0.
     999903    2    3    3    0    0  0.10236030501E+00  0.47386740889E-01 -0.66547150227E-01  0.13836729839E+00  0.44652556565E-01 0.  0.
         14    1    1    2    0    0  0.11733347280E-01  0.73440449444E-02  0.35030813350E-02  0.14278585833E-01  0.00000000000E+00 0. -1.
     999901    1    3    3    0    0 -0.11409365229E+00 -0.54730785834E-01  0.63044068892E-01  0.89128411577E+00  0.88000000000E+00 0.  1.
        -11    1    4    4    0    0  0.31280192678E-01  0.22482462090E-01 -0.10269783656E-02  0.38538647630E-01  0.51100000000E-03 0.  1.
         11    1    4    4    0    0  0.71080112329E-01  0.24904278799E-01 -0.65520171861E-01  0.99828650762E-01  0.51100000000E-03 0. -1.
</event>
<event>
 7    1  0.2190512E+004  0.1043930E+01  0.7957747E-01            NaN
         13   -1    0    0    0    0  0.00000000000E+00  0.00000000000E+00  0.74505805969E-08  0.10566000000E+00  0.10566000000E+00 0.  1.
     999900   -1    0    0    0    0 -0.00000000000E+00 -0.00000000000E+00 -0.74505805969E-08  0.93827000000E+00  0.93827000000E+00 0.  1.
     999903    2    1    2    0    0 -0.82645763528E-02  0.50242201857E-01  0.86437727260E-01  0.11020078603E+00  0.45608666689E-01 0.  0.
         14    1    1    2    0    0 -0.23397078549E-02 -0.42529846526E-01  0.20297055292E-01  0.47182968663E-01  0.00000000000E+00 0.  1.
     999901    1    1    2    0    0  0.10604284208E-01 -0.77123553320E-02 -0.10673478255E+00  0.88654624531E+00  0.88000000000E+00 0.  1.
        -11    1    3    3    0    0 -0.81541346887E-02  0.57380999436E-01  0.85031256798E-01  0.10290599964E+00  0.51100000000E-03 0.  1.
         11    1    3    3    0    0 -0.11044166410E-03 -0.71387975781E-02  0.14064704616E-02  0.72947863836E-02  0.51100000000E-03 0. -1.
</event>
<event>
 8    1  0.2190512E+004  0.1043930E+01  0.7957747E-01            NaN
         13   -1    0    0    0    0  0.00000000000E+00  0.00000000000E+00  0.74505805969E-08  0.10566000000E+00  0.10566000000E+00 0.  1.
     999900   -1    0    0    0    0 -0.00000000000E+00 -0.00000000000E+00 -0.74505805969E-08  0.93827000000E+00  0.93827000000E+00 0. -1.
     999902    2    1    2    0    0 -0.10436572324E-01 -0.85145836977E-02 -0.26698837391E-02  0.10301987052E+01  0.10301071904E+01 0.  0.
     999903    2    3    3    0    0 -0.42202478018E-01  0.22141469328E-01 -0.12462922813E+00  0.14069156750E+00  0.44613662114E-01 0.  0.
         14    1    1    2    0    0  0.10436572324E-01  0.85145836977E-02  0.26698837391E-02  0.13731294790E-01  0.00000000000E+00 0.  1.
     999901    1    3    3    0    0  0.31765905694E-01 -0.30656053026E-01  0.12195934439E+00  0.88950713771E+00  0.88000000000E+00 0.  1.
        -11    1    4    4    0    0 -0.44834900822E-01  0.84392970806E-02 -0.64774497267E-01  0.79229960773E-01  0.51100000000E-03 0.  1.
         11    1    4    4    0    0  0.26324228035E-02  0.13702172248E-01 -0.59854730862E-01  0.61461606728E-01  0.51100000000E-03 0. -1.
</event>
<event>
 8    1  0.2190512E+004  0.1043930E+01  0.7957747E-01            NaN
         13   -1    0    0    0    0  0.00000000000E+00  0.00000000000E+00  0.74505805969E-08  0.10566000000E+00  0.10566000000E+00 0.  1.
     999900   -1    0    0    0    0 -0.00000000000E+00 -0.00000000000E+00 -0.74505805969E-08  0.93827000000E+00  0.93827000000E+00 0.  1.
     999902    2    1    2    0    0  0.11974257207E-01  0.36662668538E-02  0.66355829486E-02  0.10297576569E+01  0.10296601267E+01 0.  0.
     999903    2    3    3    0    0  0.28122831320E-01 -0.50331154159E-01 -0.11831066701E+00  0.13914659514E+00  0.45169041269E-01 0.  0.
         14    1    1    2    0    0 -0.11974257207E-01 -0.36662668538E-02 -0.66355829486E-02  0.14172343115E-01  0.00000000000E+00 0. -1.
     999901    1    3    3    0    0 -0.16148574113E-01  0.53997421013E-01  0.12494624996E+00  0.89061106174E+00  0.88000000000E+00 0. -1.
        -11    1    4    4    0    0 -0.56977568952E-02 -0.36078461284E-01 -0.57988398725E-01  0.68534920369E-01  0.51100000000E-03 0. -1.
         11    1    4    4    0    0  0.33820588215E-01 -0.14252692875E-01 -0.60322268290E-01  0.70611674772E-01  0.51100000000E-03 0.  1.
</event>
<event>
 8    1  0.2190512E+004  0.1043930E+01  0.7957747E-01            NaN
         13   -1    0    0    0    0  0.00000000000E+00  0.00000000000E+00  0.74505805969E-08  0.10566000000E+00  0.10566000000E+00 0. -1.
     999900   -1    0    0    0    0 -0.00000000000E+00 -0.00000000000E+00 -0.74505805969E-08  0.93827000000E+00  0.93827000000E+00 0. -1.
     999902    2    1    2    0    0 -0.10728448111E-01 -0.78822264602E-02 -0.60983424690E-02  0.10292869514E+01  0.10291827871E+01 0.  0.
     999903    2    3    3    0    0 -0.56490015983E-01  0.19383070651E-02  0.11888454346E+00  0.13922443347E+00  0.45332430567E-01 0.  0.
         14    1    1    2    0    0  0.10728448111E-01  0.78822264602E-02  0.60983424690E-02  0.14643048648E-01  0.00000000000E+00 0. -1.
     999901    1    3    3    0    0  0.45761567872E-01 -0.98205335253E-02 -0.12498288592E+00  0.89006251789E+00  0.88000000000E+00 0. -1.
        -11    1    4    4    0    0 -0.24754976605E-01  0.21291104799E-01  0.37332036655E-01  0.49599013015E-01  0.51100000000E-03 0. -1.
         11    1    4    4    0    0 -0.31735039378E-01 -0.19352797734E-01  0.81552506800E-01  0.89625420450E-01  0.51100000000E-03 0.  1.
</event>
<event>
 8    1  0.2190512E+004  0.1043930E+01  0.7957747E-01            NaN
         13   -1    0    0    0    0  0.00000000000E+00  0.00000000000E+00  0.74505805969E-08  0.10566000000E+00  0.10566000000E+00 0.  1.
     999900   -1    0    0    0    0 -0.00000000000E+00 -0.00000000000E+00 -0.74505805969E-08  0.93827000000E+00  0.93827000000E+00 0.  1.
     999902    2    1    2    0    0  0.62660905901E-02  0.54100354612E-02 -0.11086689196E-01  0.10300935607E+01  0.10300006295E+01 0.  0.
     999903    2    3    3    0    0  0.23630447315E-01 -0.71222426946E-01 -0.11121251313E+00  0.14093708640E+00  0.43174148588E-01 0.  0.
         14    1    1    2    0    0 -0.62660905901E-02 -0.54100354612E-02  0.11086689196E-01  0.13836439293E-01  0.00000000000E+00 0.  1.
     999901    1    3    3    0    0 -0.17364356725E-01  0.76632462407E-01  0.10012582393E+00  0.88915647430E+00  0.88000000000E+00 0. -1.
        -11    1    4    4    0    0  0.77572543405E-02 -0.26812532478E-01 -0.79091539362E-01  0.83873831511E-01  0.51100000000E-03 0. -1.
         11    1    4    4    0    0  0.15873192975E-01 -0.44409894468E-01 -0.32120973769E-01  0.57063254891E-01  0.51100000000E-03 0.  1.
</event>
<event>
 8    1  0.2190512E+004  0.1043930E+01  0.7957747E-01            NaN
         13   -1    0    0    0    0  0.00000000000E+00  0.00000000000E+00  0.74505805969E-08  0.10566000000E+00  0.10566000000E+00 0. -1.
     999900   -1    0    0    0    0 -0.00000000000E+00 -0.00000000000E+00 -0.74505805969E-08  0.93827000000E+00  0.93827000000E+00 0. -1.
     999902    2    1    2    0    0  0.30022894730E-02  0.12684765679E-01 -0.34881859684E-02  0.10304361324E+01  0.10303477755E+01 0.  0.
     999903    2    3    3    0    0  0.48053720531E-01  0.57645240983E-01  0.11070439280E+00  0.14077832128E+00  0.43942454333E-01 0.  0.
         14    1    1    2    0    0 -0.30022894730E-02 -0.12684765679E-01  0.34881859684E-02  0.13493867636E-01  0.00000000000E+00 0.  1.
     999901    1    3    3    0    0 -0.45051431058E-01 -0.44960475304E-01 -0.11419257876E+00  0.88965781109E+00  0.88000000000E+00 0. -1.
        -11    1    4    4    0    0  0.52497677752E-03  0.25555739734E-01  0.16302866499E-01  0.30321873475E-01  0.51100000000E-03 0.  1.
         11    1    4    4    0    0  0.47528743754E-01  0.32089501250E-01  0.94401526297E-01  0.11045644780E+00  0.51100000000E-03 0. -1.
</event>
<event>
 8    1  0.2190512E+004  0.1043930E+01  0.7957747E-01            NaN
         13   -1    0    0    0    0  0.00000000000E+00  0.00000000000E+00  0.74505805969E-08  0.10566000000E+00  0.10566000000E+00 0.  1.
     999900   -1    0    0    0    0 -0.00000000000E+00 -0.00000000000E+00 -0.74505805969E-08  0.93827000000E+00  0.93827000000E+00 0. -1.
     999902    2    1    2    0    0  0.14362422569E-01  0.49699758360E-03  0.52759054669E-02  0.10286211344E+01  0.10285072079E+01 0.  0.
     999903    2    3    3    0    0  0.24105982745E-01 -0.10564969783E+00 -0.73892388490E-01  0.13866064272E+00  0.44985905644E-01 0.  0.
         14    1    1    2    0    0 -0.14362422569E-01 -0.49699758360E-03 -0.52759054669E-02  0.15308865639E-01  0.00000000000E+00 0. -1.
     999901    1    3    3    0    0 -0.97435601760E-02  0.10614669542E+00  0.79168293957E-01  0.88996049164E+00  0.88000000000E+00 0. -1.
        -11    1    4    4    0    0  0.16346756958E-01 -0.29567089604E-01 -0.22443650695E-02  0.33863365844E-01  0.51100000000E-03 0.  1.
         11    1    4    4    0    0  0.77592257872E-02 -0.76082608229E-01 -0.71648023421E-01  0.10479727688E+00  0.51100000000E-03 0. -1.
</event>
<event>
 8    1  0.2190512E+004  0.1043930E+01  0.7957747E-01            NaN
         13   -1    0    0    0    0  0.00000000000E+00  0.00000000000E+00  0.74505805969E-08  0.10566000000E+00  0.10566000000E+00 0. -1.
     999900   -1    0    0    0    0 -0.00000000000E+00 -0.00000000000E+00 -0.74505805969E-08  0.93827000000E+00  0.93827000000E+00 0.  1.
     999902    2    1    2    0    0 -0.19333227000E-01  0.15156151743E-01 -0.10450580956E-01  0.10172336099E+01  0.10168832381E+01 0.  0.
     999903    2    3    3    0    0 -0.19694673251E-02  0.40505988737E-01 -0.11553887467E+00  0.13044859432E+00  0.44977664181E-01 0.  0.
         14    1    1    2    0    0  0.19333227000E-01 -0.15156151743E-01  0.10450580956E-01  0.26696390096E-01  0.00000000000E+00 0. -1.
     999901    1    3    3    0    0 -0.17363759675E-01 -0.25349836994E-01  0.10508829371E+00  0.88678501558E+00  0.88000000000E+00 0. -1.
        -11    1    4    4    0    0 -0.20303774824E-01  0.65622026295E-02 -0.50525330965E-01  0.54848664209E-01  0.51100000000E-03 0.  1.
         11    1    4    4    0    0  0.18334307499E-01  0.33943786108E-01 -0.65013543706E-01  0.75599930112E-01  0.51100000000E-03 0. -1.
</event>
<event>
 8    1  0.2190512E+004  0.1043930E+01  0.7957747E-01            NaN
         13   -1    0    0    0    0  0.00000000000E+00  0.00000000000E+00  0.74505805969E-08  0.10566000000E+00  0.10566000000E+00 0. -1.
     999900   -1    0    0    0    0 -0.00000000000E+00 -0.00000000000E+00 -0.74505805969E-08  0.93827000000E+00  0.93827000000E+00 0. -1.
     999902    2    1    2    0    0  0.11231068391E-01 -0.69401690886E-02 -0.18863684832E-02  0.10305935376E+01  0.10305072433E+01 0.  0.
     999903    2    3    3    0    0  0.41659818859E-01 -0.12819262140E+00 -0.13213807956E-01  0.14168613129E+00  0.41610892693E-01 0.  0.
         14    1    1    2    0    0 -0.11231068391E-01  0.69401690886E-02  0.18863684832E-02  0.13336462433E-01  0.00000000000E+00 0. -1.
     999901    1    3    3    0    0 -0.30428750468E-01  0.12125245231E+00  0.11327439472E-01  0.88890740628E+00  0.88000000000E+00 0. -1.
        -11    1    4    4    0    0  0.66355480760E-02 -0.54872084207E-01 -0.22945260202E-01  0.59847491261E-01  0.51100000000E-03 0. -1.
         11    1    4    4    0    0  0.35024270783E-01 -0.73320537193E-01  0.97314522460E-02  0.81838640030E-01  0.51100000000E-03 0.  1.
</event>
<event>
 8    1  0.2190512E+004  0.1043930E+01  0.7957747E-01            NaN
         13   -1    0    0    0    0  0.00000000000E+00  0.00000000000E+00  0.74505805969E-08  0.10566000000E+00  0.10566000000E+00 0. -1.
     999900   -1    0    0    0    0 -0.00000000000E+00 -0.00000000000E+00 -0.74505805969E-08  0.93827000000E+00  0.93827000000E+00 0.  1.
     999902    2    1    2    0    0 -0.46465785732E-02 -0.13312359069E-01 -0.41286732251E-02  0.10292379770E+01  0.10291331099E+01 0.  0.
     999903    2    3    3    0    0 -0.13175429595E+00 -0.98556645768E-02  0.82727375661E-02  0.14001240635E+00  0.45592840680E-01 0.  0.
         14    1    1    2    0    0  0.46465785732E-02  0.13312359069E-01  0.41286732251E-02  0.14692022972E-01  0.00000000000E+00 0. -1.
     999901    1    3    3    0    0  0.12710771737E+00 -0.34566944921E-02 -0.12401410791E-01  0.88922557067E+00  0.88000000000E+00 0. -1.
        -11    1    4    4    0    0 -0.86026233212E-01 -0.27419799242E-01  0.10938468984E-01  0.90952017107E-01  0.51100000000E-03 0. -1.
         11    1    4    4    0    0 -0.45728062734E-01  0.17564134665E-01 -0.26657314175E-02  0.49060389246E-01  0.51100000000E-03 0.  1.
</event>
<event>
 8    1  0.2190512E+004  0.1043930E+01  0.7957747E-01            NaN
         13   -1    0    0    0    0  0.00000000000E+00  0.00000000000E+00  0.74505805969E-08  0.10566000000E+00  0.10566000000E+00 0. -1.
     999900   -1    0    0    0    0 -0.00000000000E+00 -0.00000000000E+00 -0.74505805969E-08  0.93827000000E+00  0.93827000000E+00 0.  1.
     999902    2    1    2    0    0 -0.73730126843E-02 -0.26892443816E-02  0.10169973207E-01  0.10310839225E+01  0.10310038960E+01 0.  0.
     999903    2    3    3    0    0  0.44061712084E-01 -0.76388611295E-01 -0.98671594007E-01  0.13983557647E+00  0.45180201148E-01 0.  0.
         14    1    1    2    0    0  0.73730126843E-02  0.26892443816E-02 -0.10169973207E-01  0.12846077472E-01  0.00000000000E+00 0.  1.
     999901    1    3    3    0    0 -0.51434724768E-01  0.73699366914E-01  0.10884156721E+00  0.89124834606E+00  0.88000000000E+00 0. -1.
        -11    1    4    4    0    0 -0.57991487644E-03 -0.37521661365E-01 -0.23995494315E-01  0.44544991203E-01  0.51100000000E-03 0. -1.
         11    1    4    4    0    0  0.44641626960E-01 -0.38866949930E-01 -0.74676099692E-01  0.95290585268E-01  0.51100000000E-03 0.  1.
</event>
<event>
 8    1  0.2190512E+004  0.1043930E+01  0.7957747E-01            NaN
         13   -1    0    0    0    0  0.00000000000E+00  0.00000000000E+00  0.74505805969E-08  0.10566000000E+00  0.10566000000E+00 0.  1.
     999900   -1    0    0    0    0 -0.00000000000E+00 -0.00000000000E+00 -0.74505805969E-08  0.93827000000E+00  0.93827000000E+00 0.  1.
     999902    2    1    2    0    0  0.96682188300E-02  0.93362333098E-02 -0.21746037319E-02  0.10303149859E+01  0.10302250247E+01 0.  0.
     999903    2    3    3    0    0  0.98025016397E-01 -0.54537185080E-01  0.72178623681E-01  0.14047503417E+00  0.44048531335E-01 0.  0.
         14    1    1    2    0    0 -0.96682188300E-02 -0.93362333098E-02  0.21746037319E-02  0.13615014108E-01  0.00000000000E+00 0. -1.
     999901    1    3    3    0    0 -0.88356797567E-01  0.63873418389E-01 -0.74353227413E-01  0.88983995172E+00  0.88000000000E+00 0.  1.
        -11    1    4    4    0    0  0.13607672245E-01 -0.21377502229E-01  0.13223650716E-02  0.25380624812E-01  0.51100000000E-03 0. -1.
         11    1    4    4    0    0  0.84417344152E-01 -0.33159682850E-01  0.70856258610E-01  0.11509440936E+00  0.51100000000E-03 0.  1.
</event>
<event>
 8    1  0.2190512E+004  0.1043930E+01  0.7957747E-01            NaN
         13   -1    0    0    0    0  0.00000000000E+00  0.00000000000E+00  0.74505805969E-08  0.10566000000E+00  0.10566000000E+00 0.  1.
     999900   -1    0    0    0    0 -0.00000000000E+00 -0.00000000000E+00 -0.74505805969E-08  0.93827000000E+00  0.93827000000E+00 0.  1.
     999902    2    1    2    0    0 -0.18132409439E-02 -0.14601206262E-01  0.44364070187E-02  0.10285623465E+01  0.10284475368E+01 0.  0.
     999903    2    3    3    0    0 -0.35198726737E-01  0.39439166144E-01  0.11972077392E+00  0.13877279960E+00  0.46156559785E-01 0.  0.
         14    1    1    2    0    0  0.18132409439E-02  0.14601206262E-01 -0.44364070187E-02  0.15367653505E-01  0.00000000000E+00 0. -1.
     999901    1    3    3    0    0  0.33385485793E-01 -0.54040372406E-01 -0.11528436690E+00  0.88978954689E+00  0.88000000000E+00 0.  1.
        -11    1    4    4    0    0 -0.52297173611E-02  0.38626259870E-01  0.54675869673E-01  0.67149458231E-01  0.51100000000E-03 0.  1.
         11    1    4    4    0    0 -0.29969009376E-01  0.81290627403E-03  0.65044904245E-01  0.71623341369E-01  0.51100000000E-03 0. -1.
</event>
<event>
 8    1  0.2190512E+004  0.1043930E+01  0.7957747E-01            NaN
         13   -1    0    0    0    0  0.00000000000E+00  0.00000000000E+00  0.74505805969E-08  0.10566000000E+00  0.10566000000E+00 0. -1.
     999900   -1    0    0    0    0 -0.00000000000E+00 -0.00000000000E+00 -0.74505805969E-08  0.93827000000E+00  0.93827000000E+00 0. -1.
     999902    2    1    2    0    0  0.10453102534E-01  0.33283154720E-02  0.27857242250E-02  0.10326116390E+01  0.10325496074E+01 0.  0.
     999903    2    3    3    0    0 -0.10823613682E-01 -0.13383023994E+00  0.77090410213E-03  0.14173048672E+00  0.45378991133E-01 0.  0.
         14    1    1    2    0    0 -0.10453102534E-01 -0.33283154720E-02 -0.27857242250E-02  0.11318361008E-01  0.00000000000E+00 0.  1.
     999901    1    3    3    0    0  0.21276716216E-01  0.13715855541E+00  0.20148201229E-02  0.89088115227E+00  0.88000000000E+00 0. -1.
        -11    1    4    4    0    0  0.90151640686E-02 -0.10641915880E+00 -0.69240437730E-02  0.10702576347E+00  0.51100000000E-03 0.  1.
         11    1    4    4    0    0 -0.19838777751E-01 -0.27411081140E-01  0.76949478751E-02  0.34704723248E-01  0.51100000000E-03 0. -1.
</event>
<event>
 8    1  0.2190512E+004  0.1043930E+01  0.7957747E-01            NaN
         13   -1    0    0    0    0  0.00000000000E+00  0.00000000000E+00  0.74505805969E-08  0.10566000000E+00  0.10566000000E+00 0.  1.
     999900   -1    0    0    0    0 -0.00000000000E+00 -0.00000000000E+00 -0.74505805969E-08  0.93827000000E+00  0.93827000000E+00 0.  1.
     999902    2    1    2    0    0  0.32227414332E-02  0.12911095393E-01 -0.11786699044E-02  0.10305706696E+01  0.10304840772E+01 0.  0.
     999903    2    3    3    0    0  0.93238280922E-01  0.21861302805E-01  0.93164385438E-01  0.14091707651E+00  0.44796497067E-01 0.  0.
         14    1    1    2    0    0 -0.32227414332E-02 -0.12911095393E-01  0.11786699044E-02  0.13359330422E-01  0.00000000000E+00 0.  1.
     999901    1    3    3    0    0 -0.90015539488E-01 -0.89502074118E-02 -0.94343055342E-01  0.88965359306E+00  0.88000000000E+00 0.  1.
        -11    1    4    4    0    0  0.36716840813E-01 -0.13406340063E-01  0.35440009266E-01  0.52764682610E-01  0.51100000000E-03 0. -1.
         11    1    4    4    0    0  0.56521440108E-01  0.35267642868E-01  0.57724376172E-01  0.88152393902E-01  0.51100000000E-03 0.  1.
</event>
<event>
 8    1  0.2190512E+004  0.1043930E+01  0.7957747E-01            NaN
         13   -1    0    0    0    0  0.00000000000E+00  0.00000000000E+00  0.74505805969E-08  0.10566000000E+00  0.10566000000E+00 0. -1.
     999900   -1    0    0    0    0 -0.00000000000E+00 -0.00000000000E+00 -0.74505805969E-08  0.93827000000E+00  0.93827000000E+00 0.  1.
     999902    2    1    2    0    0 -0.73849392350E-02  0.12287082734E-01 -0.36220036049E-02  0.10291439038E+01  0.10290376797E+01 0.  0.
     999903    2    3    3    0    0 -0.90067665839E-01  0.10452689673E-01 -0.97168833836E-01  0.14032963318E+00  0.45046426369E-01 0.  0.
         14    1    1    2    0    0  0.73849392350E-02 -0.12287082734E-01  0.36220036049E-02  0.14786096162E-01  0.00000000000E+00 0. -1.
     999901    1    3    3    0    0  0.82682726604E-01  0.18343930601E-02  0.93546830231E-01  0.88881427066E+00  0.88000000000E+00 0. -1.
        -11    1    4    4    0    0 -0.54449875618E-01  0.21129712948E-01 -0.35601391832E-01  0.68403025851E-01  0.51100000000E-03 0. -1.
         11    1    4    4    0    0 -0.35617790220E-01 -0.10677023275E-01 -0.61567442004E-01  0.71926607331E-01  0.51100000000E-03 0.  1.
</event>
<event>
 8    1  0.2190512E+004  0.1043930E+01  0.7957747E-01            NaN
         13   -1    0    0    0    0  0.00000000000E+00  0.00000000000E+00  0.74505805969E-08  0.10566000000E+00  0.10566000000E+00 0. -1.
     999900   -1    0    0    0    0 -0.00000000000E+00 -0.00000000000E+00 -0.74505805969E-08  0.93827000000E+00  0.93827000000E+00 0. -1.
     999902    2    1    2    0    0 -0.96421202734E-02  0.36282041330E-02  0.87668164817E-02  0.10304025679E+01  0.10303137680E+01 0.  0.
     999903    2    3    3    0    0  0.21291858914E-01 -0.11618170040E+00 -0.59353144124E-01  0.13913849179E+00  0.43418814074E-01 0.  0.
         14    1    1    2    0    0  0.96421202734E-02 -0.36282041330E-02 -0.87668164817E-02  0.13527432122E-01  0.00000000000E+00 0.  1.
     999901    1    3    3    0    0 -0.30933979187E-01  0.11980990454E+00  0.68119960605E-01  0.89126407609E+00  0.88000000000E+00 0. -1.
        -11    1    4    4    0    0  0.12115144376E-01 -0.76779906705E-01 -0.60750185218E-01  0.98654837296E-01  0.51100000000E-03 0. -1.
         11    1    4    4    0    0  0.91767145380E-02 -0.39401793697E-01  0.13970410946E-02  0.40483654493E-01  0.51100000000E-03 0.  1.
</event>
<event>
 8    1  0.2190512E+004  0.1043930E+01  0.7957747E-01            NaN
         13   -1    0    0    0    0  0.00000000000E+00  0.00000000000E+00  0.74505805969E-08  0.10566000000E+00  0.10566000000E+00 0. -1.
     999900   -1    0    0    0    0 -0.00000000000E+00 -0.00000000000E+00 -0.74505805969E-08  0.93827000000E+00  0.93827000000E+00 0. -1.
     999902    2    1    2    0    0  0.68749323701E-02 -0.10994225693E-01 -0.17041396950E-02  0.10308517055E+01  0.10307687408E+01 0.  0.
     999903    2    3    3    0    0  0.91810203316E-01  0.91566805040E-01  0.29491640656E-01  0.14028674891E+00  0.44688050233E-01 0.  0.
         14    1    1    2    0    0 -0.68749323701E-02  0.10994225693E-01  0.17041396950E-02  0.13078294452E-01  0.00000000000E+00 0. -1.
     999901    1    3    3    0    0 -0.84935270946E-01 -0.10256103073E+00 -0.31195780351E-01  0.89056495664E+00  0.88000000000E+00 0.  1.
        -11    1    4    4    0    0  0.54911131446E-01  0.23525173289E-01  0.13536054867E-01  0.61254812361E-01  0.51100000000E-03 0. -1.
         11    1    4    4    0    0  0.36899071869E-01  0.68041631751E-01  0.15955585789E-01  0.79031936551E-01  0.51100000000E-03 0.  1.
</event>
<event>
 8    1  0.2190512E+004  0.1043930E+01  0.7957747E-01            NaN
         13   -1    0    0    0    0  0.00000000000E+00  0.00000000000E+00  0.74505805969E-08  0.10566000000E+00  0.10566000000E+00 0. -1.
     999900   -1    0    0    0    0 -0.00000000000E+00 -0.00000000000E+00 -0.74505805969E-08  0.93827000000E+00  0.93827000000E+00 0. -1.
     999902    2    1    2    0    0 -0.34002758103E-02  0.10204327226E-01  0.70218687581E-02  0.10310848916E+01  0.10310048772E+01 0.  0.
     999903    2    3    3    0    0 -0.12590812555E+00  0.55440788419E-02  0.46939221702E-01  0.14168999265E+00  0.44600118754E-01 0.  0.
         14    1    1    2    0    0  0.34002758103E-02 -0.10204327226E-01 -0.70218687581E-02  0.12845108430E-01  0.00000000000E+00 0.  1.
     999901    1    3    3    0    0  0.12250784974E+00  0.46602483844E-02 -0.39917352944E-01  0.88939489892E+00  0.88000000000E+00 0.  1.
        -11    1    4    4    0    0 -0.89145360127E-01 -0.13657865588E-01  0.20455898121E-01  0.92477767131E-01  0.51100000000E-03 0. -1.
         11    1    4    4    0    0 -0.36762765423E-01  0.19201944430E-01  0.26483323581E-01  0.49212225517E-01  0.51100000000E-03 0.  1.
</event>
<event>
 8    1  0.2190512E+004  0.1043930E+01  0.7957747E-01            NaN
         13   -1    0    0    0    0  0.00000000000E+00  0.00000000000E+00  0.74505805969E-08  0.10566000000E+00  0.10566000000E+00 0.  1.
     999900   -1    0    0    0    0 -0.00000000000E+00 -0.00000000000E+00 -0.74505805969E-08  0.93827000000E+00  0.93827000000E+00 0. -1.
     999902    2    1    2    0    0  0.12294193772E-01 -0.10255177602E-02 -0.20857999166E-02  0.10314180278E+01  0.10313421346E+01 0.  0.
     999903    2    3    3    0    0 -0.84294622082E-01  0.71892762127E-01 -0.72959659072E-01  0.14031220983E+00  0.45719271852E-01 0.  0.
         14    1    1    2    0    0 -0.12294193772E-01  0.10255177602E-02  0.20857999166E-02  0.12511972206E-01  0.00000000000E+00 0.  1.
     999901    1    3    3    0    0  0.96588815854E-01 -0.72918279887E-01  0.70873859156E-01  0.89110581796E+00  0.88000000000E+00 0.  1.
        -11    1    4    4    0    0 -0.79013301718E-01  0.59557290357E-01 -0.43796716667E-01  0.10820622068E+00  0.51100000000E-03 0.  1.
         11    1    4    4    0    0 -0.52813203640E-02  0.12335471769E-01 -0.29162942406E-01  0.32105989150E-01  0.51100000000E-03 0. -1.
</event>
<event>
 8    1  0.2190512E+004  0.1043930E+01  0.7957747E-01            NaN
         13   -1    0    0    0    0  0.00000000000E+00  0.00000000000E+00  0.74505805969E-08  0.10566000000E+00  0.10566000000E+00 0. -1.
     999900   -1    0    0    0    0 -0.00000000000E+00 -0.00000000000E+00 -0.74505805969E-08  0.93827000000E+00  0.93827000000E+00 0. -1.
     999902    2    1    2    0    0 -0.10561507276E-01 -0.89324603584E-03 -0.13158913876E-01  0.10270332447E+01  0.10268942426E+01 0.  0.
     999903    2    3    3    0    0 -0.45369734749E-01 -0.74351164553E-01 -0.98689110729E-01  0.13915763797E+00  0.45153063329E-01 0.  0.
         14    1    1    2    0    0  0.10561507276E-01  0.89324603584E-03  0.13158913876E-01  0.16896755275E-01  0.00000000000E+00 0. -1.
     999901    1    3    3    0    0  0.34808227473E-01  0.73457918517E-01  0.85530196854E-01  0.88787560675E+00  0.88000000000E+00 0.  1.
        -11    1    4    4    0    0 -0.33141806135E-01 -0.36894140760E-01 -0.83110660752E-01  0.96784296185E-01  0.51100000000E-03 0.  1.
         11    1    4    4    0    0 -0.12227928614E-01 -0.37457023792E-01 -0.15578449978E-01  0.42373341788E-01  0.51100000000E-03 0. -1.
</event>
<event>
 8    1  0.2190512E+004  0.1043930E+01  0.7957747E-01            NaN
         13   -1    0    0    0    0  0.00000000000E+00  0.00000000000E+00  0.74505805969E-08  0.10566000000E+00  0.10566000000E+00 0.  1.
     999900   -1    0    0    0    0 -0.00000000000E+00 -0.00000000000E+00 -0.74505805969E-08  0.93827000000E+00  0.93827000000E+00 0.  1.
     999902    2    1    2    0    0 -0.41282666106E-02 -0.26870491728E-02  0.13519623478E-01  0.10295410099E+01  0.10294404538E+01 0.  0.
     999903    2    3    3    0    0  0.11736088529E+00  0.59278433868E-01 -0.17368862663E-02  0.13890522784E+00  0.44767571170E-01 0.  0.
         14    1    1    2    0    0  0.41282666106E-02  0.26870491728E-02 -0.13519623478E-01  0.14388990147E-01  0.00000000000E+00 0. -1.
     999901    1    3    3    0    0 -0.12148915190E+00 -0.61965483041E-01  0.15256509744E-01  0.89063578202E+00  0.88000000000E+00 0.  1.
        -11    1    4    4    0    0  0.21768657480E-01  0.54374452850E-02  0.16275139973E-01  0.27723303588E-01  0.51100000000E-03 0. -1.
         11    1    4    4    0    0  0.95592227811E-01  0.53840988583E-01 -0.18012026239E-01  0.11118192425E+00  0.51100000000E-03 0.  1.
</event>
<event>
 8    1  0.2190512E+004  0.1043930E+01  0.7957747E-01            NaN
         13   -1    0    0    0    0  0.00000000000E+00  0.00000000000E+00  0.74505805969E-08  0.10566000000E+00  0.10566000000E+00 0.  1.
     999900   -1    0    0    0    0 -0.00000000000E+00 -0.00000000000E+00 -0.74505805969E-08  0.93827000000E+00  0.93827000000E+00 0. -1.
     999902    2    1    2    0    0  0.39955368467E-02 -0.45414907918E-02 -0.13935283471E-01  0.10287385031E+01  0.10286263297E+01 0.  0.
     999903    2    3    3    0    0  0.46338749942E-01 -0.47555295768E-01 -0.11567504858E+00  0.14082290184E+00  0.45183923226E-01 0.  0.
         14    1    1    2    0    0 -0.39955368467E-02  0.45414907918E-02  0.13935283471E-01  0.15191496921E-01  0.00000000000E+00 0.  1.
     999901    1    3    3    0    0 -0.42343213095E-01  0.43013804976E-01  0.10173976511E+00  0.88791560124E+00  0.88000000000E+00 0.  1.
        -11    1    4    4    0    0  0.28324807989E-01 -0.50369167487E-01 -0.10454958821E+00  0.11945804827E+00  0.51100000000E-03 0. -1.
         11    1    4    4    0    0  0.18013941953E-01  0.28138717190E-02 -0.11125460369E-01  0.21364853572E-01  0.51100000000E-03 0.  1.
</event>
<event>
 8    1  0.2190512E+004  0.1043930E+01  0.7957747E-01            NaN
         13   -1    0    0    0    0  0.00000000000E+00  0.00000000000E+00  0.74505805969E-08  0.10566000000E+00  0.10566000000E+00 0.  1.
     999900   -1    0    0    0    0 -0.00000000000E+00 -0.00000000000E+00 -0.74505805969E-08  0.93827000000E+00  0.93827000000E+00 0. -1.
     999902    2    1    2    0    0  0.51136488118E-02  0.26925445005E-02 -0.88197696969E-02  0.10333854499E+01  0.10333316508E+01 0.  0.
     999903    2    3    3    0    0  0.10681946990E+00 -0.42979563578E-01 -0.73742114138E-01  0.14397838541E+00  0.45102483646E-01 0.  0.
         14    1    1    2    0    0 -0.51136488118E-02 -0.26925445005E-02  0.88197696969E-02  0.10544550136E-01  0.00000000000E+00 0. -1.
     999901    1    3    3    0    0 -0.10170582109E+00  0.45672108079E-01  0.64922344441E-01  0.88940706446E+00  0.88000000000E+00 0.  1.
        -11    1    4    4    0    0  0.80483034736E-01 -0.14317026933E-01 -0.34583768530E-01  0.88762572672E-01  0.51100000000E-03 0. -1.
         11    1    4    4    0    0  0.26336435166E-01 -0.28662536645E-01 -0.39158345608E-01  0.55215812734E-01  0.51100000000E-03 0.  1.
</event>
<event>
 8    1  0.2190512E+004  0.1043930E+01  0.7957747E-01            NaN
         13   -1    0    0    0    0  0.00000000000E+00  0.00000000000E+00  0.74505805969E-08  0.10566000000E+00  0.10566000000E+00 0.  1.
     999900   -1    0    0    0    0 -0.00000000000E+00 -0.00000000000E+00 -0.74505805969E-08  0.93827000000E+00  0.93827000000E+00 0.  1.
     999902    2    1    2    0    0  0.58856156520E-02 -0.44886995966E-02 -0.10648747346E-01  0.10309613950E+01  0.10308798248E+01 0.  0.
     999903    2    3    3    0    0  0.46369436647E-01 -0.12156419371E+00 -0.34947964133E-01  0.14195292315E+00  0.44735828440E-01 0.  0.
         14    1    1    2    0    0 -0.58856156520E-02  0.44886995966E-02  0.10648747346E-01  0.12968605003E-01  0.00000000000E+00 0.  1.
     999901    1    3    3    0    0 -0.40483820995E-01  0.11707549411E+00  0.24299216787E-01  0.88900847185E+00  0.88000000000E+00 0. -1.
        -11    1    4    4    0    0  0.21023002749E-01 -0.66064433488E-01 -0.41149659601E-01  0.80622773600E-01  0.51100000000E-03 0. -1.
         11    1    4    4    0    0  0.25346433898E-01 -0.55499760220E-01  0.62016954680E-02  0.61330149548E-01  0.51100000000E-03 0.  1.
</event>
<event>
 8    1  0.2190512E+004  0.1043930E+01  0.7957747E-01            NaN
         13   -1    0    0    0    0  0.00000000000E+00  0.00000000000E+00  0.74505805969E-08  0.10566000000E+00  0.10566000000E+00 0.  1.
     999900   -1    0    0    0    0 -0.00000000000E+00 -0.00000000000E+00 -0.74505805969E-08  0.93827000000E+00  0.93827000000E+00 0.  1.
     999902    2    1    2    0    0  0.88917628703E-02  0.36204862019E-02  0.11611243294E-01  0.10288637351E+01  0.10287534170E+01 0.  0.
     999903    2    3    3    0    0  0.27891247097E-01 -0.13986503219E-01 -0.12786902376E+00  0.13750200641E+00  0.39784049461E-01 0.  0.
         14    1    1    2    0    0 -0.88917628703E-02 -0.36204862019E-02 -0.11611243294E-01  0.15066264902E-01  0.00000000000E+00 0. -1.
     999901    1    3    3    0    0 -0.18999484227E-01  0.17606989421E-01  0.13948026705E+00  0.89136172869E+00  0.88000000000E+00 0. -1.
        -11    1    4    4    0    0 -0.93558020397E-02 -0.72303925017E-02 -0.42458263271E-01  0.44076919681E-01  0.51100000000E-03 0. -1.
         11    1    4    4    0    0  0.37247049137E-01 -0.67561107173E-02 -0.85410760489E-01  0.93425086726E-01  0.51100000000E-03 0.  1.
</event>
<event>
 8    1  0.2190512E+004  0.1043930E+01  0.7957747E-01            NaN
         13   -1    0    0    0    0  0.00000000000E+00  0.00000000000E+00  0.74505805969E-08  0.10566000000E+00  0.10566000000E+00 0.  1.
     999900   -1    0    0    0    0 -0.00000000000E+00 -0.00000000000E+00 -0.74505805969E-08  0.93827000000E+00  0.93827000000E+00 0. -1.
     999902    2    1    2    0    0  0.13351437275E-02 -0.79668826561E-02  0.11143451151E-01  0.10301666308E+01  0.10300746851E+01 0.  0.
     999903    2    3    3    0    0 -0.11187166772E+00 -0.52217135111E-01 -0.47663179912E-01  0.13986775579E+00  0.45269318004E-01 0.  0.
         14    1    1    2    0    0 -0.13351437275E-02  0.79668826561E-02 -0.11143451151E-01  0.13763369195E-01  0.00000000000E+00 0. -1.
     999901    1    3    3    0    0  0.11320681145E+00  0.44250252454E-01  0.58806631063E-01  0.89029887502E+00  0.88000000000E+00 0. -1.
        -11    1    4    4    0    0 -0.82223785615E-01 -0.29121693016E-01 -0.11993119507E-01  0.88050667013E-01  0.51100000000E-03 0.  1.
         11    1    4    4    0    0 -0.29647882104E-01 -0.23095442094E-01 -0.35670060406E-01  0.51817088775E-01  0.51100000000E-03 0. -1.
</event>
<event>
 7    1  0.2190512E+004  0.1043930E+01  0.7957747E-01            NaN
         13   -1    0    0    0    0  0.00000000000E+00  0.00000000000E+00  0.74505805969E-08  0.10566000000E+00  0.10566000000E+00 0.  1.
     999900   -1    0    0    0    0 -0.00000000000E+00 -0.00000000000E+00 -0.74505805969E-08  0.93827000000E+00  0.93827000000E+00 0. -1.
     999903    2    1    2    0    0 -0.79215240712E-01  0.67140284095E-01  0.50215214724E-01  0.11982120136E+00  0.32445036557E-01 0.  0.
         14    1    1    2    0    0 -0.18594292190E-01  0.15809243091E-01  0.20682306773E-01  0.31991212585E-01  0.00000000000E+00 0. -1.
     999901    1    1    2    0    0  0.97809532903E-01 -0.82949527186E-01 -0.70897521497E-01  0.89211758605E+00  0.88000000000E+00 0. -1.
        -11    1    3    3    0    0 -0.45411035863E-01  0.18645044956E-01  0.16642316298E-01  0.51836547844E-01  0.51100000000E-03 0. -1.
         11    1    3    3    0    0 -0.33804204849E-01  0.48495239139E-01  0.33572898426E-01  0.67984653521E-01  0.51100000000E-03 0.  1.
</event>
<event>
 8    1  0.2190512E+004  0.1043930E+01  0.7957747E-01            NaN
         13   -1    0    0    0    0  0.00000000000E+00  0.00000000000E+00  0.74505805969E-08  0.10566000000E+00  0.10566000000E+00 0. -1.
     999900   -1    0    0    0    0 -0.00000000000E+00 -0.00000000000E+00 -0.74505805969E-08  0.93827000000E+00  0.93827000000E+00 0.  1.
     999902    2    1    2    0    0  0.89347037537E-02  0.30356636264E-02 -0.10423874391E-01  0.10298693691E+01  0.10297733809E+01 0.  0.
     999903    2    3    3    0    0 -0.10234704221E+00  0.69546654640E-01 -0.46597970155E-01  0.13963574574E+00  0.44890048377E-01 0.  0.
         14    1    1    2    0    0 -0.89347037537E-02 -0.30356636264E-02  0.10423874391E-01  0.14060630929E-01  0.00000000000E+00 0.  1.
     999901    1    3    3    0    0  0.11128174597E+00 -0.66510991014E-01  0.36174095764E-01  0.89023362333E+00  0.88000000000E+00 0. -1.
        -11    1    4    4    0    0 -0.24654851774E-01  0.23423644797E-01  0.67980022656E-02  0.34684330863E-01  0.51100000000E-03 0. -1.
         11    1    4    4    0    0 -0.77692190439E-01  0.46123009843E-01 -0.53395972421E-01  0.10495141487E+00  0.51100000000E-03 0.  1.
</event>
<event>
 8    1  0.2190512E+004  0.1043930E+01  0.7957747E-01            NaN
         13   -1    0    0    0    0  0.00000000000E+00  0.00000000000E+00  0.74505805969E-08  0.10566000000E+00  0.10566000000E+00 0. -1.
     999900   -1    0    0    0    0 -0.00000000000E+00 -0.00000000000E+00 -0.74505805969E-08  0.93827000000E+00  0.93827000000E+00 0.  1.
     999902    2    1    2    0    0  0.29127413789E-02  0.12522479065E-01  0.39567812648E-02  0.10304781354E+01  0.10303903313E+01 0.  0.
     999903    2    3    3    0    0 -0.39878123289E-02 -0.12391318036E+00  0.44609448500E-01  0.13901027494E+00  0.44311112930E-01 0.  0.
         14    1    1    2    0    0 -0.29127413789E-02 -0.12522479065E-01 -0.39567812648E-02  0.13451864638E-01  0.00000000000E+00 0. -1.
     999901    1    3    3    0    0  0.69005537078E-02  0.13643565943E+00 -0.40652667236E-01  0.89146786042E+00  0.88000000000E+00 0. -1.
        -11    1    4    4    0    0  0.13855278227E-01 -0.69908972185E-01  0.88321797085E-02  0.71815747898E-01  0.51100000000E-03 0.  1.
         11    1    4    4    0    0 -0.17843090556E-01 -0.54004208180E-01  0.35777268792E-01  0.67194527046E-01  0.51100000000E-03 0. -1.
</event>
<event>
 8    1  0.2190512E+004  0.1043930E+01  0.7957747E-01            NaN
         13   -1    0    0    0    0  0.00000000000E+00  0.00000000000E+00  0.74505805969E-08  0.10566000000E+00  0.10566000000E+00 0. -1.
     999900   -1    0    0    0    0 -0.00000000000E+00 -0.00000000000E+00 -0.74505805969E-08  0.93827000000E+00  0.93827000000E+00 0. -1.
     999902    2    1    2    0    0 -0.52902886281E-02  0.20954922323E-02  0.13161897064E-01  0.10295907610E+01  0.10294909039E+01 0.  0.
     999903    2    3    3    0    0 -0.11152544706E+00 -0.59321939739E-01 -0.39197757795E-01  0.13953483953E+00  0.44457725449E-01 0.  0.
         14    1    1    2    0    0  0.52902886281E-02 -0.20954922323E-02 -0.13161897064E-01  0.14339239024E-01  0.00000000000E+00 0.  1.
     999901    1    3    3    0    0  0.10623515843E+00  0.61417431971E-01  0.52359654859E-01  0.89005592144E+00  0.88000000000E+00 0. -1.
        -11    1    4    4    0    0 -0.61223899008E-01 -0.52024061810E-01 -0.37529012483E-01  0.88676697705E-01  0.51100000000E-03 0.  1.
         11    1    4    4    0    0 -0.50301548049E-01 -0.72978779290E-02 -0.16687453117E-02  0.50858141829E-01  0.51100000000E-03 0. -1.
</event>
<event>
 8    1  0.2190512E+004  0.1043930E+01  0.7957747E-01            NaN
         13   -1    0    0    0    0  0.00000000000E+00  0.00000000000E+00  0.74505805969E-08  0.10566000000E+00  0.10566000000E+00 0. -1.
     999900   -1    0    0    0    0 -0.00000000000E+00 -0.00000000000E+00 -0.74505805969E-08  0.93827000000E+00  0.93827000000E+00 0.  1.
     999902    2    1    2    0    0  0.20815336689E-04 -0.13563547685E-01  0.39217017945E-02  0.10298108639E+01  0.10297140697E+01 0.  0.
     999903    2    3    3    0    0  0.10903738668E+00  0.26233768603E-01  0.70870455944E-01  0.13967010263E+00  0.43677840294E-01 0.  0.
         14    1    1    2    0    0 -0.20815336689E-04  0.13563547685E-01 -0.39217017945E-02  0.14119136094E-01  0.00000000000E+00 0.  1.
     999901    1    3    3    0    0 -0.10901657134E+00 -0.39797316288E-01 -0.66948754150E-01  0.89014076128E+00  0.88000000000E+00 0. -1.
        -11    1    4    4    0    0  0.84636174538E-01  0.51660446950E-02  0.35833379930E-01  0.92055756454E-01  0.51100000000E-03 0. -1.
         11    1    4    4    0    0  0.24401212141E-01  0.21067723908E-01  0.35037076015E-01  0.47614346171E-01  0.51100000000E-03 0.  1.
</event>
<event>
 8    1  0.2190512E+004  0.1043930E+01  0.7957747E-01            NaN
         13   -1    0    0    0    0  0.00000000000E+00  0.00000000000E+00  0.74505805969E-08  0.10566000000E+00  0.10566000000E+00 0.  1.
     999900   -1    0    0    0    0 -0.00000000000E+00 -0.00000000000E+00 -0.74505805969E-08  0.93827000000E+00  0.93827000000E+00 0.  1.
     999902    2    1    2    0    0  0.35804511406E-02  0.11206927247E-01  0.21496939794E-02  0.10319702327E+01  0.10319009280E+01 0.  0.
     999903    2    3    3    0    0  0.10782489790E+00  0.82040961568E-01  0.50663610378E-02  0.14298605288E+00  0.45413823010E-01 0.  0.
         14    1    1    2    0    0 -0.35804511406E-02 -0.11206927247E-01 -0.21496939794E-02  0.11959767259E-01  0.00000000000E+00 0. -1.
     999901    1    3    3    0    0 -0.10424444676E+00 -0.70834034321E-01 -0.29166670584E-02  0.88898417986E+00  0.88000000000E+00 0.  1.
        -11    1    4    4    0    0  0.40210645503E-01  0.32733089504E-01  0.24076258222E-01  0.57168859454E-01  0.51100000000E-03 0.  1.
         11    1    4    4    0    0  0.67614252402E-01  0.49307872063E-01 -0.19009897184E-01  0.85817193424E-01  0.51100000000E-03 0. -1.
</event>
<event>
 8    1  0.2190512E+004  0.1043930E+01  0.7957747E-01            NaN
         13   -1    0    0    0    0  0.00000000000E+00  0.00000000000E+00  0.74505805969E-08  0.10566000000E+00  0.10566000000E+00 0.  1.
     999900   -1    0    0    0    0 -0.00000000000E+00 -0.00000000000E+00 -0.74505805969E-08  0.93827000000E+00  0.93827000000E+00 0.  1.
     999902    2    1    2    0    0  0.10971951880E-01 -0.17750675790E-02  0.82916147794E-02  0.10300632964E+01  0.10299699554E+01 0.  0.
     999903    2    3    3    0    0 -0.90036407378E-01 -0.81250901577E-01  0.51554340946E-01  0.13967531338E+00  0.46293405989E-01 0.  0.
         14    1    1    2    0    0 -0.10971951880E-01  0.17750675790E-02 -0.82916147794E-02  0.13866703596E-01  0.00000000000E+00 0. -1.
     999901    1    3    3    0    0  0.10100835926E+00  0.79475833998E-01 -0.43262726166E-01  0.89038798302E+00  0.88000000000E+00 0.  1.
        -11    1    4    4    0    0 -0.52791877607E-01 -0.40006405624E-01  0.37113380513E-02  0.66344027488E-01  0.51100000000E-03 0.  1.
         11    1    4    4    0    0 -0.37244529772E-01 -0.41244495953E-01  0.47843002894E-01  0.73331285897E-01  0.51100000000E-03 0. -1.
</event>
<event>
 8    1  0.2190512E+004  0.1043930E+01  0.7957747E-01            NaN
         13   -1    0    0    0    0  0.00000000000E+00  0.00000000000E+00  0.74505805969E-08  0.10566000000E+00  0.10566000000E+00 0.  1.
     999900   -1    0    0    0    0 -0.00000000000E+00 -0.00000000000E+00 -0.74505805969E-08  0.93827000000E+00  0.93827000000E+00 0.  1.
     999902    2    1    2    0    0  0.95769631142E-02  0.89225575411E-02  0.17977206360E-02  0.10307178066E+01  0.10306331232E+01 0.  0.
     999903    2    3    3    0    0 -0.39211333870E-01 -0.32940851199E-01 -0.12182483004E+00  0.13975463228E+00  0.45469106539E-01 0.  0.
         14    1    1    2    0    0 -0.95769631142E-02 -0.89225575411E-02 -0.17977206360E-02  0.13212193423E-01  0.00000000000E+00 0.  1.
     999901    1    3    3    0    0  0.48788296984E-01  0.41863408740E-01  0.12362255067E+00  0.89096317429E+00  0.88000000000E+00 0. -1.
        -11    1    4    4    0    0 -0.38009405573E-02 -0.26238521523E-01 -0.81325819659E-01  0.85539799070E-01  0.51100000000E-03 0. -1.
         11    1    4    4    0    0 -0.35410393313E-01 -0.67023296758E-02 -0.40499010378E-01  0.54214833212E-01  0.51100000000E-03 0.  1.
</event>
<event>
 8    1  0.2190512E+004  0.1043930E+01  0.7957747E-01            NaN
         13   -1    0    0    0    0  0.00000000000E+00  0.00000000000E+00  0.74505805969E-08  0.10566000000E+00  0.10566000000E+00 0. -1.
     999900   -1    0    0    0    0 -0.00000000000E+00 -0.00000000000E+00 -0.74505805969E-08  0.93827000000E+00  0.93827000000E+00 0.  1.
     999902    2    1    2    0    0 -0.12091024667E-01 -0.12400433770E-01 -0.71762684420E-03  0.10265956808E+01  0.10264493232E+01 0.  0.
     999903    2    3    3    0    0  0.52806892031E-01 -0.56756289621E-01  0.10442677812E+00  0.13685722063E+00  0.42604020856E-01 0.  0.
         14    1    1    2    0    0  0.12091024667E-01  0.12400433770E-01  0.71762684420E-03  0.17334319239E-01  0.00000000000E+00 0. -1.
     999901    1    3    3    0    0 -0.64897916698E-01  0.44355855851E-01 -0.10514440496E+00  0.88973846013E+00  0.88000000000E+00 0.  1.
        -11    1    4    4    0    0  0.50448809898E-01 -0.24477232341E-01  0.67375791613E-01  0.87658289623E-01  0.51100000000E-03 0. -1.
         11    1    4    4    0    0  0.23580821329E-02 -0.32279057280E-01  0.37050986506E-01  0.49198931008E-01  0.51100000000E-03 0.  1.
</event>
<event>
 8    1  0.2190512E+004  0.1043930E+01  0.7957747E-01            NaN
         13   -1    0    0    0    0  0.00000000000E+00  0.00000000000E+00  0.74505805969E-08  0.10566000000E+00  0.10566000000E+00 0.  1.
     999900   -1    0    0    0    0 -0.00000000000E+00 -0.00000000000E+00 -0.74505805969E-08  0.93827000000E+00  0.93827000000E+00 0.  1.
     999902    2    1    2    0    0  0.74615979930E-02  0.75531031898E-02  0.89781811930E-02  0.10300255924E+01  0.10299317397E+01 0.  0.
     999903    2    3    3    0    0 -0.13708475354E-01  0.88238230252E-02  0.13268439216E+00  0.14112007812E+00  0.45210025160E-01 0.  0.
         14    1    1    2    0    0 -0.74615979930E-02 -0.75531031898E-02 -0.89781811930E-02  0.13904407572E-01  0.00000000000E+00 0. -1.
     999901    1    3    3    0    0  0.21170073347E-01 -0.12707198354E-02 -0.12370621097E+00  0.88890551431E+00  0.88000000000E+00 0.  1.
        -11    1    4    4    0    0 -0.84882309365E-02 -0.11305540166E-01  0.11692988925E-01  0.18353539546E-01  0.51100000000E-03 0. -1.
         11    1    4    4    0    0 -0.52202444178E-02  0.20129363191E-01  0.12099140324E+00  0.12276653857E+00  0.51100000000E-03 0.  1.
</event>
<event>
 8    1  0.2190512E+004  0.1043930E+01  0.7957747E-01            NaN
         13   -1    0    0    0    0  0.00000000000E+00  0.00000000000E+00  0.74505805969E-08  0.10566000000E+00  0.10566000000E+00 0. -1.
     999900   -1    0    0    0    0 -0.00000000000E+00 -0.00000000000E+00 -0.74505805969E-08  0.93827000000E+00  0.93827000000E+00 0. -1.
     999902    2    1    2    0    0  0.12412782703E-01  0.61592190978E-02 -0.12984387452E-03  0.10300725106E+01  0.10299792944E+01 0.  0.
     999903    2    3    3    0    0  0.95480747336E-01 -0.83082804350E-01 -0.41900863620E-01  0.14068550616E+00  0.44915518258E-01 0.  0.
         14    1    1    2    0    0 -0.12412782703E-01 -0.61592190978E-02  0.12984387452E-03  0.13857489446E-01  0.00000000000E+00 0. -1.
     999901    1    3    3    0    0 -0.83067964634E-01  0.89242023448E-01  0.41771019745E-01  0.88938700440E+00  0.88000000000E+00 0.  1.
        -11    1    4    4    0    0  0.78216657750E-01 -0.72386453628E-01 -0.51327383988E-01  0.11828949948E+00  0.51100000000E-03 0.  1.
         11    1    4    4    0    0  0.17264089586E-01 -0.10696350722E-01  0.94265203686E-02  0.22396006681E-01  0.51100000000E-03 0. -1.
</event>
<event>
 8    1  0.2190512E+004  0.1043930E+01  0.7957747E-01            NaN
         13   -1    0    0    0    0  0.00000000000E+00  0.00000000000E+00  0.74505805969E-08  0.10566000000E+00  0.10566000000E+00 0.  1.
     999900   -1    0    0    0    0 -0.00000000000E+00 -0.00000000000E+00 -0.74505805969E-08  0.93827000000E+00  0.93827000000E+00 0. -1.
     999902    2    1    2    0    0  0.11567453729E-01 -0.89412604655E-02 -0.92411287623E-03  0.10292805594E+01  0.10291763036E+01 0.  0.
     999903    2    3    3    0    0 -0.23494256480E-01 -0.96802914348E-01  0.83637843459E-01  0.14018004868E+00  0.52272104191E-01 0.  0.
         14    1    1    2    0    0 -0.11567453729E-01  0.89412604655E-02  0.92411287623E-03  0.14649440573E-01  0.00000000000E+00 0.  1.
     999901    1    3    3    0    0  0.35061710209E-01  0.87861653883E-01 -0.84561956335E-01  0.88910051074E+00  0.88000000000E+00 0. -1.
        -11    1    4    4    0    0  0.79630620462E-02 -0.40714465895E-01  0.10514603856E-01  0.42800655433E-01  0.51100000000E-03 0. -1.
         11    1    4    4    0    0 -0.31457318526E-01 -0.56088448453E-01  0.73123239603E-01  0.97379393250E-01  0.51100000000E-03 0.  1.
</event>
<event>
 8    1  0.2190512E+004  0.1043930E+01  0.7957747E-01            NaN
         13   -1    0    0    0    0  0.00000000000E+00  0.00000000000E+00  0.74505805969E-08  0.10566000000E+00  0.10566000000E+00 0. -1.
     999900   -1    0    0    0    0 -0.00000000000E+00 -0.00000000000E+00 -0.74505805969E-08  0.93827000000E+00  0.93827000000E+00 0.  1.
     999902    2    1    2    0    0 -0.26311531893E-02 -0.14954740878E-01  0.24870467950E-02  0.10285432315E+01  0.10284281339E+01 0.  0.
     999903    2    3    3    0    0 -0.36494402779E-01  0.13262109013E-01  0.12559407811E+00  0.13888135675E+00  0.44793234186E-01 0.  0.
         14    1    1    2    0    0  0.26311531893E-02  0.14954740878E-01 -0.24870467950E-02  0.15386768458E-01  0.00000000000E+00 0. -1.
     999901    1    3    3    0    0  0.33863249589E-01 -0.28216849891E-01 -0.12310703131E+00  0.88966187479E+00  0.88000000000E+00 0.  1.
        -11    1    4    4    0    0 -0.23850629457E-01 -0.62020257415E-02  0.10497790350E+00  0.10783292166E+00  0.51100000000E-03 0.  1.
         11    1    4    4    0    0 -0.12643773322E-01  0.19464134754E-01  0.20616174604E-01  0.31048435095E-01  0.51100000000E-03 0. -1.
</event>
<event>
 8    1  0.2190512E+004  0.1043930E+01  0.7957747E-01            NaN
         13   -1    0    0    0    0  0.00000000000E+00  0.00000000000E+00  0.74505805969E-08  0.10566000000E+00  0.10566000000E+00 0.  1.
     999900   -1    0    0    0    0 -0.00000000000E+00 -0.00000000000E+00 -0.74505805969E-08  0.93827000000E+00  0.93827000000E+00 0. -1.
     999902    2    1    2    0    0  0.33896399566E-02 -0.11197906172E-01  0.74628713315E-02  0.10300527809E+01  0.10299592974E+01 0.  0.
     999903    2    3    3    0    0 -0.10036638578E+00  0.14448290561E-01  0.85469749735E-01  0.14016058890E+00  0.45362408076E-01 0.  0.
         14    1    1    2    0    0 -0.33896399566E-02  0.11197906172E-01 -0.74628713315E-02  0.13877219109E-01  0.00000000000E+00 0. -1.
     999901    1    3    3    0    0  0.10375602574E+00 -0.25646196733E-01 -0.78006878403E-01  0.88989219199E+00  0.88000000000E+00 0. -1.
        -11    1    4    4    0    0 -0.94483622285E-01 -0.10583053863E-02  0.72452969392E-01  0.11907127607E+00  0.51100000000E-03 0.  1.
         11    1    4    4    0    0 -0.58827634991E-02  0.15506595947E-01  0.13016780343E-01  0.21089312832E-01  0.51100000000E-03 0. -1.
</event>
<event>
 7    1  0.2190512E+004  0.1043930E+01  0.7957747E-01            NaN
         13   -1    0    0    0    0  0.00000000000E+00  0.00000000000E+00  0.74505805969E-08  0.10566000000E+00  0.10566000000E+00 0.  1.
     999900   -1    0    0    0    0 -0.00000000000E+00 -0.00000000000E+00 -0.74505805969E-08  0.93827000000E+00  0.93827000000E+00 0.  1.
     999903    2    1    2    0    0  0.24835782767E-02 -0.91288745202E-01 -0.71114555407E-01  0.12402534180E+00  0.44555608573E-01 0.  0.
         14    1    1    2    0    0  0.21851495165E-01  0.45748552360E-02  0.25842097786E-01  0.34150126784E-01  0.00000000000E+00 0.  1.
     999901    1    1    2    0    0 -0.24335073442E-01  0.86713889966E-01  0.45272457620E-01  0.88575453142E+00  0.88000000000E+00 0. -1.
        -11    1    3    3    0    0 -0.13871226559E-01 -0.25303562821E-01 -0.51841846454E-02  0.29322655219E-01  0.51100000000E-03 0.  1.
         11    1    3    3    0    0  0.16354804836E-01 -0.65985182381E-01 -0.65930370761E-01  0.94702686576E-01  0.51100000000E-03 0. -1.
</event>
<event>
 8    1  0.3056892E+004  0.1043930E+01  0.7957747E-01            NaN
         13   -1    0    0    0    0  0.00000000000E+00  0.00000000000E+00  0.74505805969E-08  0.10566000000E+00  0.10566000000E+00 0. -1.
     999900   -1    0    0    0    0 -0.00000000000E+00 -0.00000000000E+00 -0.74505805969E-08  0.93827000000E+00  0.93827000000E+00 0.  1.
     999902    2    1    2    0    0 -0.13495517899E-01 -0.10015091976E-02 -0.18124282422E-03  0.10303961582E+01  0.10303072736E+01 0.  0.
     999903    2    3    3    0    0  0.65288602339E-01 -0.75530380213E-01  0.86239403081E-01  0.13953701210E+00  0.45452207539E-01 0.  0.
         14    1    1    2    0    0  0.13495517899E-01  0.10015091976E-02  0.18124282422E-03  0.13533841768E-01  0.00000000000E+00 0.  1.
     999901    1    3    3    0    0 -0.78784120239E-01  0.74528871015E-01 -0.86420645905E-01  0.89085914614E+00  0.88000000000E+00 0.  1.
        -11    1    4    4    0    0  0.63232705948E-01 -0.70151202149E-01  0.58264723158E-01  0.11097119153E+00  0.51100000000E-03 0. -1.
         11    1    4    4    0    0  0.20558963907E-02 -0.53791780639E-02  0.27974679923E-01  0.28565820563E-01  0.51100000000E-03 0.  1.
</event>
<event>
 7    1  0.2190512E+004  0.1043930E+01  0.7957747E-01            NaN
         13   -1    0    0    0    0  0.00000000000E+00  0.00000000000E+00  0.74505805969E-08  0.10566000000E+00  0.10566000000E+00 0.  1.
     999900   -1    0    0    0    0 -0.00000000000E+00 -0.00000000000E+00 -0.74505805969E-08  0.93827000000E+00  0.93827000000E+00 0.  1.
     999903    2    1    2    0    0 -0.92554556479E-01  0.58073686436E-01 -0.30946240313E-01  0.12218870691E+00  0.45094471117E-01 0.  0.
         14    1    1    2    0    0  0.33835665239E-03  0.95068121431E-02  0.32999537649E-01  0.34343317361E-01  0.00000000000E+00 0.  1.
     999901    1    1    2    0    0  0.92216199826E-01 -0.67580498580E-01 -0.20532973359E-02  0.88739797573E+00  0.88000000000E+00 0. -1.
        -11    1    3    3    0    0 -0.86538265021E-01  0.33420688388E-01 -0.22767649514E-01  0.95521938373E-01  0.51100000000E-03 0. -1.
         11    1    3    3    0    0 -0.60162914576E-02  0.24652998048E-01 -0.81785907995E-02  0.26666768536E-01  0.51100000000E-03 0.  1.
</event>
<event>
 7    1  0.2190512E+004  0.1043930E+01  0.7957747E-01            NaN
         13   -1    0    0    0    0  0.00000000000E+00  0.00000000000E+00  0.74505805969E-08  0.10566000000E+00  0.10566000000E+00 0. -1.
     999900   -1    0    0    0    0 -0.00000000000E+00 -0.00000000000E+00 -0.74505805969E-08  0.93827000000E+00  0.93827000000E+00 0. -1.
     999902    2    1    2    0    0 -0.10239292465E-01 -0.77706015243E-02 -0.34921412931E-02  0.10306100747E+01  0.10305239957E+01 0.  0.
         14    1    1    2    0    0  0.10239292465E-01  0.77706015243E-02  0.34921412931E-02  0.13319925264E-01  0.00000000000E+00 0.  1.
     999901    1    3    3    0    0  0.11642763874E+00 -0.46179756648E-01  0.35048135826E-01  0.88955963083E+00  0.88000000000E+00 0. -1.
        -11    1    3    3    0    0 -0.66247117310E-01  0.17274662543E-01 -0.46526297628E-02  0.68622172820E-01  0.51100000000E-03 0.  1.
         11    1    3    3    0    0 -0.60419813892E-01  0.21134492581E-01 -0.33887647357E-01  0.72428271081E-01  0.51100000000E-03 0. -1.
</event>
<event>
 8    1  0.2190512E+004  0.1043930E+01  0.7957747E-01            NaN
         13   -1    0    0    0    0  0.00000000000E+00  0.00000000000E+00  0.74505805969E-08  0.10566000000E+00  0.10566000000E+00 0.  1.
     999900   -1    0    0    0    0 -0.00000000000E+00 -0.00000000000E+00 -0.74505805969E-08  0.93827000000E+00  0.93827000000E+00 0.  1.
     999902    2    1    2    0    0 -0.38066211705E-02  0.48287758188E-02  0.11686713034E-01  0.10307244443E+01  0.10306398466E+01 0.  0.
     999903    2    3    3    0    0  0.53391347782E-01 -0.76143382609E-01 -0.92806223223E-01  0.13901436144E+00  0.45426279666E-01 0.  0.
         14    1    1    2    0    0  0.38066211705E-02 -0.48287758188E-02 -0.11686713034E-01  0.13205555732E-01  0.00000000000E+00 0. -1.
     999901    1    3    3    0    0 -0.57197968952E-01  0.80972158428E-01  0.10449293626E+00  0.89171008283E+00  0.88000000000E+00 0. -1.
        -11    1    4    4    0    0  0.43011157157E-01 -0.35588306073E-01 -0.75053846856E-01  0.93540516451E-01  0.51100000000E-03 0.  1.
         11    1    4    4    0    0  0.10380190625E-01 -0.40555076537E-01 -0.17752376367E-01  0.45473844988E-01  0.51100000000E-03 0. -1.
</event>
<event>
 8    1  0.2190512E+004  0.1043930E+01  0.7957747E-01            NaN
         13   -1    0    0    0    0  0.00000000000E+00  0.00000000000E+00  0.74505805969E-08  0.10566000000E+00  0.10566000000E+00 0. -1.
     999900   -1    0    0    0    0 -0.00000000000E+00 -0.00000000000E+00 -0.74505805969E-08  0.93827000000E+00  0.93827000000E+00 0.  1.
     999902    2    1    2    0    0 -0.83343419582E-02 -0.48433822527E-02 -0.20501990030E-02  0.10340749037E+01  0.10340279414E+01 0.  0.
     999903    2    3    3    0    0 -0.41555686872E-01  0.82027286658E-01 -0.10055293525E+00  0.14370814783E+00  0.45670429137E-01 0.  0.
         14    1    1    2    0    0  0.83343419582E-02  0.48433822527E-02  0.20501990030E-02  0.98550963199E-02  0.00000000000E+00 0. -1.
     999901    1    3    3    0    0  0.33221344914E-01 -0.86870668910E-01  0.98502736247E-01  0.89036675585E+00  0.88000000000E+00 0. -1.
        -11    1    4    4    0    0  0.28827005442E-02  0.35656542224E-01 -0.21076942365E-01  0.41523458265E-01  0.51100000000E-03 0. -1.
         11    1    4    4    0    0 -0.44438387416E-01  0.46370744433E-01 -0.79475992885E-01  0.10218468957E+00  0.51100000000E-03 0.  1.
</event>
<event>
 8    1  0.2190512E+004  0.1043930E+01  0.7957747E-01            NaN
         13   -1    0    0    0    0  0.00000000000E+00  0.00000000000E+00  0.74505805969E-08  0.10566000000E+00  0.10566000000E+00 0.  1.
     999900   -1    0    0    0    0 -0.00000000000E+00 -0.00000000000E+00 -0.74505805969E-08  0.93827000000E+00  0.93827000000E+00 0. -1.
     999902    2    1    2    0    0 -0.90864197313E-02 -0.98249180508E-02  0.40486058637E-02  0.10299484676E+01  0.10298535637E+01 0.  0.
     999903    2    3    3    0    0 -0.53289144872E-01 -0.11784806165E+00 -0.34374653730E-01  0.14141077718E+00  0.45689084981E-01 0.  0.
         14    1    1    2    0    0  0.90864197313E-02  0.98249180508E-02 -0.40486058637E-02  0.13981532379E-01  0.00000000000E+00 0. -1.
     999901    1    3    3    0    0  0.44202725141E-01  0.10802314360E+00  0.38423259593E-01  0.88853769044E+00  0.88000000000E+00 0.  1.
        -11    1    4    4    0    0 -0.40120997717E-01 -0.38031143858E-01 -0.22321826031E-01  0.59620360610E-01  0.51100000000E-03 0.  1.
         11    1    4    4    0    0 -0.13168147155E-01 -0.79816917793E-01 -0.12052827699E-01  0.81790416566E-01  0.51100000000E-03 0. -1.
</event>
<event>
 8    1  0.2190512E+004  0.1043930E+01  0.7957747E-01            NaN
         13   -1    0    0    0    0  0.00000000000E+00  0.00000000000E+00  0.74505805969E-08  0.10566000000E+00  0.10566000000E+00 0. -1.
     999900   -1    0    0    0    0 -0.00000000000E+00 -0.00000000000E+00 -0.74505805969E-08  0.93827000000E+00  0.93827000000E+00 0. -1.
     999902    2    1    2    0    0  0.13232613940E-01  0.37371741971E-02 -0.17990224047E-02  0.10300625913E+01  0.10299692408E+01 0.  0.
     999903    2    3    3    0    0  0.65607403746E-01  0.11673540476E+00 -0.13071976049E-03  0.14129124727E+00  0.45074530705E-01 0.  0.
         14    1    1    2    0    0 -0.13232613940E-01 -0.37371741971E-02  0.17990224047E-02  0.13867408708E-01  0.00000000000E+00 0.  1.
     999901    1    3    3    0    0 -0.52374789807E-01 -0.11299823056E+00 -0.16683026443E-02  0.88877134402E+00  0.88000000000E+00 0. -1.
        -11    1    4    4    0    0  0.27854073975E-01  0.86962022443E-01  0.10885332240E-01  0.91961918006E-01  0.51100000000E-03 0.  1.
         11    1    4    4    0    0  0.37753329771E-01  0.29773382313E-01 -0.11016052001E-01  0.49329329266E-01  0.51100000000E-03 0. -1.
</event>
<event>
 8    1  0.2190512E+004  0.1043930E+01  0.7957747E-01            NaN
         13   -1    0    0    0    0  0.00000000000E+00  0.00000000000E+00  0.74505805969E-08  0.10566000000E+00  0.10566000000E+00 0.  1.
     999900   -1    0    0    0    0 -0.00000000000E+00 -0.00000000000E+00 -0.74505805969E-08  0.93827000000E+00  0.93827000000E+00 0. -1.
     999902    2    1    2    0    0  0.83986720209E-02 -0.33533499028E-02  0.11300482178E-01  0.10294564536E+01  0.10293547039E+01 0.  0.
     999903    2    3    3    0    0  0.15145287888E-01 -0.57034114608E-01  0.11992249166E+00  0.14112887763E+00  0.45317613797E-01 0.  0.
         14    1    1    2    0    0 -0.83986720209E-02  0.33533499028E-02 -0.11300482178E-01  0.14473546378E-01  0.00000000000E+00 0. -1.
     999901    1    3    3    0    0 -0.67466158672E-02  0.53680764705E-01 -0.10862200948E+00  0.88832757599E+00  0.88000000000E+00 0. -1.
        -11    1    4    4    0    0  0.88290947601E-02 -0.55700488284E-02  0.64071514829E-01  0.64918398715E-01  0.51100000000E-03 0.  1.
         11    1    4    4    0    0  0.63161931280E-02 -0.51464065780E-01  0.55850976833E-01  0.76210478915E-01  0.51100000000E-03 0. -1.
</event>
<event>
 8    1  0.2190512E+004  0.1043930E+01  0.7957747E-01            NaN
         13   -1    0    0    0    0  0.00000000000E+00  0.00000000000E+00  0.74505805969E-08  0.10566000000E+00  0.10566000000E+00 0. -1.
     999900   -1    0    0    0    0 -0.00000000000E+00 -0.00000000000E+00 -0.74505805969E-08  0.93827000000E+00  0.93827000000E+00 0. -1.
     999902    2    1    2    0    0 -0.51828314788E-02 -0.82168090227E-02 -0.11059493734E-01  0.10292096028E+01  0.10291043272E+01 0.  0.
     999903    2    3    3    0    0 -0.10716412576E+00  0.31312214339E-01 -0.72453952725E-01  0.14031590404E+00  0.44433917716E-01 0.  0.
         14    1    1    2    0    0  0.51828314788E-02  0.82168090227E-02  0.11059493734E-01  0.14720397220E-01  0.00000000000E+00 0. -1.
     999901    1    3    3    0    0  0.10198129428E+00 -0.39529023361E-01  0.61394458991E-01  0.88889369874E+00  0.88000000000E+00 0. -1.
        -11    1    4    4    0    0 -0.90604684464E-01  0.18866191793E-01 -0.75413361799E-01  0.11938416268E+00  0.51100000000E-03 0. -1.
         11    1    4    4    0    0 -0.16559441296E-01  0.12446022545E-01  0.29594090741E-02  0.20931741359E-01  0.51100000000E-03 0.  1.
</event>
<event>
 8    1  0.2190512E+004  0.1043930E+01  0.7957747E-01            NaN
         13   -1    0    0    0    0  0.00000000000E+00  0.00000000000E+00  0.74505805969E-08  0.10566000000E+00  0.10566000000E+00 0.  1.
     999900   -1    0    0    0    0 -0.00000000000E+00 -0.00000000000E+00 -0.74505805969E-08  0.93827000000E+00  0.93827000000E+00 0.  1.
     999902    2    1    2    0    0  0.48020865817E-02 -0.10786107459E-01 -0.62328659469E-02  0.10305790162E+01  0.10304925327E+01 0.  0.
     999903    2    3    3    0    0 -0.90157895719E-01  0.88714847180E-01  0.34867598116E-01  0.13894731740E+00  0.45736608359E-01 0.  0.
         14    1    1    2    0    0 -0.48020865817E-02  0.10786107459E-01  0.62328659469E-02  0.13350983767E-01  0.00000000000E+00 0.  1.
     999901    1    3    3    0    0  0.94959982301E-01 -0.99500954639E-01 -0.41100464063E-01  0.89163169883E+00  0.88000000000E+00 0.  1.
        -11    1    4    4    0    0 -0.19214376822E-01 -0.67456943822E-03 -0.11767517187E-02  0.19268969515E-01  0.51100000000E-03 0. -1.
         11    1    4    4    0    0 -0.70943518898E-01  0.89389416618E-01  0.36044349834E-01  0.11967834789E+00  0.51100000000E-03 0.  1.
</event>
<event>
 8    1  0.2190512E+004  0.1043930E+01  0.7957747E-01            NaN
         13   -1    0    0    0    0  0.00000000000E+00  0.00000000000E+00  0.74505805969E-08  0.10566000000E+00  0.10566000000E+00 0.  1.
     999900   -1    0    0    0    0 -0.00000000000E+00 -0.00000000000E+00 -0.74505805969E-08  0.93827000000E+00  0.93827000000E+00 0. -1.
     999902    2    1    2    0    0  0.72230219522E-02  0.12321788270E-01  0.38801605864E-02  0.10291295217E+01  0.10290230893E+01 0.  0.
     999903    2    3    3    0    0 -0.13308466623E-01 -0.12791066378E-01 -0.12959305426E+00  0.13847397851E+00  0.45165875958E-01 0.  0.
         14    1    1    2    0    0 -0.72230219522E-02 -0.12321788270E-01 -0.38801605864E-02  0.14800478319E-01  0.00000000000E+00 0.  1.
     999901    1    3    3    0    0  0.20531488575E-01  0.25112854648E-01  0.13347321484E+00  0.89065554317E+00  0.88000000000E+00 0.  1.
        -11    1    4    4    0    0 -0.29984232100E-01 -0.57341358680E-02 -0.76067501046E-01  0.81966214534E-01  0.51100000000E-03 0. -1.
         11    1    4    4    0    0  0.16675765477E-01 -0.70569305098E-02 -0.53525553212E-01  0.56507763981E-01  0.51100000000E-03 0.  1.
</event>
<event>
 8    1  0.2190512E+004  0.1043930E+01  0.7957747E-01            NaN
         13   -1    0    0    0    0  0.00000000000E+00  0.00000000000E+00  0.74505805969E-08  0.10566000000E+00  0.10566000000E+00 0. -1.
     999900   -1    0    0    0    0 -0.00000000000E+00 -0.00000000000E+00 -0.74505805969E-08  0.93827000000E+00  0.93827000000E+00 0.  1.
     999902    2    1    2    0    0 -0.25064606685E-02  0.62936805489E-02  0.12037045473E-01  0.10301175700E+01  0.10300249632E+01 0.  0.
     999903    2    3    3    0    0 -0.72953790911E-01 -0.41609212790E-02 -0.11012216123E+00  0.13882917846E+00  0.42509781502E-01 0.  0.
         14    1    1    2    0    0  0.25064606685E-02 -0.62936805489E-02 -0.12037045473E-01  0.13812430041E-01  0.00000000000E+00 0.  1.
     999901    1    3    3    0    0  0.70447330242E-01  0.10454601828E-01  0.12215920670E+00  0.89128839150E+00  0.88000000000E+00 0. -1.
        -11    1    4    4    0    0 -0.27806582756E-01 -0.11619204801E-01 -0.75962176671E-01  0.81723468908E-01  0.51100000000E-03 0.  1.
         11    1    4    4    0    0 -0.45147208155E-01  0.74582835216E-02 -0.34159984561E-01  0.57105709552E-01  0.51100000000E-03 0. -1.
</event>
<event>
 8    1  0.2190512E+004  0.1043930E+01  0.7957747E-01            NaN
         13   -1    0    0    0    0  0.00000000000E+00  0.00000000000E+00  0.74505805969E-08  0.10566000000E+00  0.10566000000E+00 0. -1.
     999900   -1    0    0    0    0 -0.00000000000E+00 -0.00000000000E+00 -0.74505805969E-08  0.93827000000E+00  0.93827000000E+00 0.  1.
     999902    2    1    2    0    0 -0.75165325011E-03 -0.18063908237E-02  0.15681934545E-01  0.10281264845E+01  0.10280050180E+01 0.  0.
     999903    2    3    3    0    0  0.12273146104E+00  0.39174722787E-01 -0.18704819754E-01  0.13789618844E+00  0.45473267638E-01 0.  0.
         14    1    1    2    0    0  0.75165325011E-03  0.18063908237E-02 -0.15681934545E-01  0.15803515479E-01  0.00000000000E+00 0.  1.
     999901    1    3    3    0    0 -0.12348311429E+00 -0.40981113611E-01  0.34386754299E-01  0.89023029608E+00  0.88000000000E+00 0. -1.
        -11    1    4    4    0    0  0.62370024662E-01  0.61491779764E-02  0.97666709193E-02  0.63430917919E-01  0.51100000000E-03 0.  1.
         11    1    4    4    0    0  0.60361436379E-01  0.33025544811E-01 -0.28471490673E-01  0.74465270522E-01  0.51100000000E-03 0. -1.
</event>
<event>
 7    1  0.2190512E+004  0.1043930E+01  0.7957747E-01            NaN
         13   -1    0    0    0    0  0.00000000000E+00  0.00000000000E+00  0.74505805969E-08  0.10566000000E+00  0.10566000000E+00 0.  1.
     999900   -1    0    0    0    0 -0.00000000000E+00 -0.00000000000E+00 -0.74505805969E-08  0.93827000000E+00  0.93827000000E+00 0.  1.
     999903    2    1    2    0    0 -0.10057639909E+00 -0.56569233022E-01  0.11171291163E-01  0.12442987434E+00  0.45191876517E-01 0.  0.
         14    1    1    2    0    0 -0.27957016489E-01  0.62627931612E-02 -0.14875084891E-02  0.28688499972E-01  0.00000000000E+00 0.  1.
     999901    1    1    2    0    0  0.12853341558E+00  0.50306439861E-01 -0.96837826743E-02  0.89081162569E+00  0.88000000000E+00 0. -1.
        -11    1    3    3    0    0 -0.38586063554E-01 -0.88084611569E-03 -0.67686010786E-02  0.39188458403E-01  0.51100000000E-03 0. -1.
         11    1    3    3    0    0 -0.61990335538E-01 -0.55688386907E-01  0.17939892242E-01  0.85241415938E-01  0.51100000000E-03 0.  1.
</event>
<event>
 8    1  0.2190512E+004  0.1043930E+01  0.7957747E-01            NaN
         13   -1    0    0    0    0  0.00000000000E+00  0.00000000000E+00  0.74505805969E-08  0.10566000000E+00  0.10566000000E+00 0. -1.
     999900   -1    0    0    0    0 -0.00000000000E+00 -0.00000000000E+00 -0.74505805969E-08  0.93827000000E+00  0.93827000000E+00 0. -1.
     999902    2    1    2    0    0 -0.10318487410E-01 -0.77877774349E-02 -0.21338904424E-02  0.10308275518E+01  0.10307442784E+01 0.  0.
     999903    2    3    3    0    0  0.10210496523E+00  0.38201533749E-02  0.83439911743E-01  0.13948213484E+00  0.45310369349E-01 0.  0.
         14    1    1    2    0    0  0.10318487410E-01  0.77877774349E-02  0.21338904424E-02  0.13102448177E-01  0.00000000000E+00 0. -1.
     999901    1    3    3    0    0 -0.11242345264E+00 -0.11607930810E-01 -0.85573802185E-01  0.89134541699E+00  0.88000000000E+00 0.  1.
        -11    1    4    4    0    0  0.53608514772E-01  0.11983860975E-01  0.18385269328E-01  0.57928965373E-01  0.51100000000E-03 0. -1.
         11    1    4    4    0    0  0.48496450458E-01 -0.81637076004E-02  0.65054642415E-01  0.81553169464E-01  0.51100000000E-03 0.  1.
</event>
<event>
 8    1  0.2190512E+004  0.1043930E+01  0.7957747E-01            NaN
         13   -1    0    0    0    0  0.00000000000E+00  0.00000000000E+00  0.74505805969E-08  0.10566000000E+00  0.10566000000E+00 0. -1.
     999900   -1    0    0    0    0 -0.00000000000E+00 -0.00000000000E+00 -0.74505805969E-08  0.93827000000E+00  0.93827000000E+00 0.  1.
     999902    2    1    2    0    0  0.98281266325E-02 -0.63956902724E-02 -0.56094511351E-02  0.10309314282E+01  0.10308494782E+01 0.  0.
     999903    2    3    3    0    0  0.43378485219E-01  0.69171272698E-02  0.12562158754E+00  0.14046837832E+00  0.44956005410E-01 0.  0.
         14    1    1    2    0    0 -0.98281266325E-02  0.63956902724E-02  0.56094511351E-02  0.12998571814E-01  0.00000000000E+00 0.  1.
     999901    1    3    3    0    0 -0.33550358586E-01 -0.13312817542E-01 -0.13123103867E+00  0.89046304987E+00  0.88000000000E+00 0.  1.
        -11    1    4    4    0    0  0.36543705085E-01 -0.15255848598E-01  0.81661204189E-01  0.90757901521E-01  0.51100000000E-03 0.  1.
         11    1    4    4    0    0  0.68347801338E-02  0.22172975868E-01  0.43960383346E-01  0.49710476796E-01  0.51100000000E-03 0. -1.
</event>
<event>
 8    1  0.2190512E+004  0.1043930E+01  0.7957747E-01            NaN
         13   -1    0    0    0    0  0.00000000000E+00  0.00000000000E+00  0.74505805969E-08  0.10566000000E+00  0.10566000000E+00 0.  1.
     999900   -1    0    0    0    0 -0.00000000000E+00 -0.00000000000E+00 -0.74505805969E-08  0.93827000000E+00  0.93827000000E+00 0.  1.
     999902    2    1    2    0    0  0.75967514441E-02  0.97712695171E-02 -0.55342700330E-02  0.10303721062E+01  0.10302829032E+01 0.  0.
     999903    2    3    3    0    0  0.72275197306E-01 -0.11077863899E+00 -0.63976328051E-02  0.13980131886E+00  0.44809240648E-01 0.  0.
         14    1    1    2    0    0 -0.75967514441E-02 -0.97712695171E-02  0.55342700330E-02  0.13557893836E-01  0.00000000000E+00 0. -1.
     999901    1    3    3    0    0 -0.64678445862E-01  0.12054990851E+00  0.86336277201E-03  0.89057078730E+00  0.88000000000E+00 0.  1.
        -11    1    4    4    0    0 -0.55601897661E-02 -0.31761008162E-02 -0.26372953469E-02  0.69440459659E-02  0.51100000000E-03 0. -1.
         11    1    4    4    0    0  0.77835387072E-01 -0.10760253818E+00 -0.37603374581E-02  0.13285727290E+00  0.51100000000E-03 0.  1.
</event>
<event>
 8    1  0.2190512E+004  0.1043930E+01  0.7957747E-01            NaN
         13   -1    0    0    0    0  0.00000000000E+00  0.00000000000E+00  0.74505805969E-08  0.10566000000E+00  0.10566000000E+00 0. -1.
     999900   -1    0    0    0    0 -0.00000000000E+00 -0.00000000000E+00 -0.74505805969E-08  0.93827000000E+00  0.93827000000E+00 0.  1.
     999902    2    1    2    0    0 -0.18532891247E-01 -0.47058215302E-03 -0.47076137197E-03  0.10253851592E+01  0.10252174469E+01 0.  0.
     999903    2    3    3    0    0  0.96411787112E-01 -0.53294401477E-01 -0.61754457670E-01  0.13422954626E+00  0.45480018952E-01 0.  0.
         14    1    1    2    0    0  0.18532891247E-01  0.47058215302E-03  0.47076137197E-03  0.18544840841E-01  0.00000000000E+00 0.  1.
     999901    1    3    3    0    0 -0.11494467836E+00  0.52823819324E-01  0.61283696298E-01  0.89115561290E+00  0.88000000000E+00 0. -1.
        -11    1    4    4    0    0  0.34627788861E-01 -0.13827307253E-01 -0.46042883190E-01  0.59249357808E-01  0.51100000000E-03 0. -1.
         11    1    4    4    0    0  0.61783998252E-01 -0.39467094225E-01 -0.15711574479E-01  0.74980188451E-01  0.51100000000E-03 0.  1.
</event>
<event>
 8    1  0.2190512E+004  0.1043930E+01  0.7957747E-01            NaN
         13   -1    0    0    0    0  0.00000000000E+00  0.00000000000E+00  0.74505805969E-08  0.10566000000E+00  0.10566000000E+00 0.  1.
     999900   -1    0    0    0    0 -0.00000000000E+00 -0.00000000000E+00 -0.74505805969E-08  0.93827000000E+00  0.93827000000E+00 0. -1.
     999902    2    1    2    0    0  0.11108805841E-01 -0.83724057677E-03 -0.91413729566E-02  0.10295191972E+01  0.10294183339E+01 0.  0.
     999903    2    3    3    0    0  0.14846647443E-01 -0.10630352974E+00  0.76230814226E-01  0.13911169497E+00  0.44945113910E-01 0.  0.
         14    1    1    2    0    0 -0.11108805841E-01  0.83724057677E-03  0.91413729566E-02  0.14410802841E-01  0.00000000000E+00 0.  1.
     999901    1    3    3    0    0 -0.37378416026E-02  0.10546628916E+00 -0.85372187182E-01  0.89040750219E+00  0.88000000000E+00 0. -1.
        -11    1    4    4    0    0 -0.49170930138E-02 -0.76711176043E-01  0.34474872660E-01  0.84247019529E-01  0.51100000000E-03 0. -1.
         11    1    4    4    0    0  0.19763740457E-01 -0.29592353697E-01  0.41755941566E-01  0.54864675441E-01  0.51100000000E-03 0.  1.
</event>
<event>
 8    1  0.2190512E+004  0.1043930E+01  0.7957747E-01            NaN
         13   -1    0    0    0    0  0.00000000000E+00  0.00000000000E+00  0.74505805969E-08  0.10566000000E+00  0.10566000000E+00 0.  1.
     999900   -1    0    0    0    0 -0.00000000000E+00 -0.00000000000E+00 -0.74505805969E-08  0.93827000000E+00  0.93827000000E+00 0. -1.
     999902    2    1    2    0    0  0.14479350928E-02 -0.70129596655E-02 -0.11193678696E-01  0.10306417886E+01  0.10305561216E+01 0.  0.
     999903    2    3    3    0    0 -0.11331855446E+00 -0.71671681681E-02  0.67332804675E-01  0.13972216288E+00  0.45783328100E-01 0.  0.
         14    1    1    2    0    0 -0.14479350928E-02  0.70129596655E-02  0.11193678696E-01  0.13288211394E-01  0.00000000000E+00 0.  1.
     999901    1    3    3    0    0  0.11476648955E+00  0.15420850257E-03 -0.78526483371E-01  0.89091962572E+00  0.88000000000E+00 0. -1.
        -11    1    4    4    0    0 -0.44859147475E-01 -0.25377193130E-01  0.30206218314E-01  0.59741290488E-01  0.51100000000E-03 0. -1.
         11    1    4    4    0    0 -0.68459406983E-01  0.18210024962E-01  0.37126586361E-01  0.79980872397E-01  0.51100000000E-03 0.  1.
</event>
<event>
 8    1  0.2190512E+004  0.1043930E+01  0.7957747E-01            NaN
         13   -1    0    0    0    0  0.00000000000E+00  0.00000000000E+00  0.74505805969E-08  0.10566000000E+00  0.10566000000E+00 0. -1.
     999900   -1    0    0    0    0 -0.00000000000E+00 -0.00000000000E+00 -0.74505805969E-08  0.93827000000E+00  0.93827000000E+00 0. -1.
     999902    2    1    2    0    0  0.78747748495E-02  0.28055908101E-02 -0.11635090583E-01  0.10296031458E+01  0.10295034624E+01 0.  0.
     999903    2    3    3    0    0 -0.12826379910E+00  0.18251605130E-01 -0.24757004368E-01  0.13890427675E+00  0.43551872346E-01 0.  0.
         14    1    1    2    0    0 -0.78747748495E-02 -0.28055908101E-02  0.11635090583E-01  0.14326854212E-01  0.00000000000E+00 0. -1.
     999901    1    3    3    0    0  0.13613857395E+00 -0.15446014320E-01  0.13121913785E-01  0.89069886903E+00  0.88000000000E+00 0. -1.
        -11    1    4    4    0    0 -0.32921673479E-01  0.13454712534E-01 -0.24938083895E-01  0.43440016384E-01  0.51100000000E-03 0.  1.
         11    1    4    4    0    0 -0.95342125625E-01  0.47968925962E-02  0.18107952698E-03  0.95464260371E-01  0.51100000000E-03 0. -1.
</event>
<event>
 8    1  0.2190512E+004  0.1043930E+01  0.7957747E-01            NaN
         13   -1    0    0    0    0  0.00000000000E+00  0.00000000000E+00  0.74505805969E-08  0.10566000000E+00  0.10566000000E+00 0. -1.
     999900   -1    0    0    0    0 -0.00000000000E+00 -0.00000000000E+00 -0.74505805969E-08  0.93827000000E+00  0.93827000000E+00 0. -1.
     999902    2    1    2    0    0 -0.18637852832E-02 -0.73159159831E-02 -0.11090142734E-01  0.10305140547E+01  0.10304267220E+01 0.  0.
     999903    2    3    3    0    0  0.12635925394E+00  0.30812288662E-01  0.23654584920E-01  0.13972670417E+00  0.45254328854E-01 0.  0.
         14    1    1    2    0    0  0.18637852832E-02  0.73159159831E-02  0.11090142734E-01  0.13415945294E-01  0.00000000000E+00 0. -1.
     999901    1    3    3    0    0 -0.12822303923E+00 -0.38128204645E-01 -0.34744727655E-01  0.89078735054E+00  0.88000000000E+00 0.  1.
        -11    1    4    4    0    0  0.69312741112E-01  0.24655389108E-01  0.34620851051E-01  0.81308109934E-01  0.51100000000E-03 0. -1.
         11    1    4    4    0    0  0.57046512833E-01  0.61568995542E-02 -0.10966266131E-01  0.58418594235E-01  0.51100000000E-03 0.  1.
</event>
<event>
 8    1  0.2190512E+004  0.1043930E+01  0.7957747E-01            NaN
         13   -1    0    0    0    0  0.00000000000E+00  0.00000000000E+00  0.74505805969E-08  0.10566000000E+00  0.10566000000E+00 0. -1.
     999900   -1    0    0    0    0 -0.00000000000E+00 -0.00000000000E+00 -0.74505805969E-08  0.93827000000E+00  0.93827000000E+00 0. -1.
     999902    2    1    2    0    0 -0.62417036755E-02 -0.29927767825E-02 -0.11727552149E-01  0.10303119584E+01  0.10302219569E+01 0.  0.
     999903    2    3    3    0    0  0.64715009192E-01 -0.21957917563E-01 -0.11509847484E+00  0.14122249197E+00  0.45010562858E-01 0.  0.
         14    1    1    2    0    0  0.62417036755E-02  0.29927767825E-02  0.11727552149E-01  0.13618041601E-01  0.00000000000E+00 0. -1.
     999901    1    3    3    0    0 -0.70956712867E-01  0.18965140780E-01  0.10337092269E+00  0.88908946643E+00  0.88000000000E+00 0.  1.
        -11    1    4    4    0    0  0.46853984787E-01  0.72434317654E-02 -0.62149882790E-01  0.78170533105E-01  0.51100000000E-03 0.  1.
         11    1    4    4    0    0  0.17861024405E-01 -0.29201349328E-01 -0.52948592047E-01  0.63051958860E-01  0.51100000000E-03 0. -1.
</event>
<event>
 8    1  0.2190512E+004  0.1043930E+01  0.7957747E-01            NaN
         13   -1    0    0    0    0  0.00000000000E+00  0.00000000000E+00  0.74505805969E-08  0.10566000000E+00  0.10566000000E+00 0. -1.
     999900   -1    0    0    0    0 -0.00000000000E+00 -0.00000000000E+00 -0.74505805969E-08  0.93827000000E+00  0.93827000000E+00 0.  1.
     999902    2    1    2    0    0  0.60587778176E-03 -0.92949282540E-02  0.93786838941E-02  0.10307117365E+01  0.10306269748E+01 0.  0.
     999903    2    3    3    0    0 -0.95472905220E-01  0.77957447166E-01  0.49272565168E-01  0.14029855636E+00  0.45425323746E-01 0.  0.
         14    1    1    2    0    0 -0.60587778176E-03  0.92949282540E-02 -0.93786838941E-02  0.13218263529E-01  0.00000000000E+00 0. -1.
     999901    1    3    3    0    0  0.96078783002E-01 -0.87252375420E-01 -0.39893881274E-01  0.89041318012E+00  0.88000000000E+00 0.  1.
        -11    1    4    4    0    0 -0.29460946432E-01  0.10776237354E-01 -0.47299130635E-02  0.31728659833E-01  0.51100000000E-03 0.  1.
         11    1    4    4    0    0 -0.66011958788E-01  0.67181209812E-01  0.54002478232E-01  0.10856989652E+00  0.51100000000E-03 0. -1.
</event>
<event>
 8    1  0.2190512E+004  0.1043930E+01  0.7957747E-01            NaN
         13   -1    0    0    0    0  0.00000000000E+00  0.00000000000E+00  0.74505805969E-08  0.10566000000E+00  0.10566000000E+00 0. -1.
     999900   -1    0    0    0    0 -0.00000000000E+00 -0.00000000000E+00 -0.74505805969E-08  0.93827000000E+00  0.93827000000E+00 0.  1.
     999902    2    1    2    0    0  0.56894561777E-02  0.27120722677E-02  0.11852807646E-01  0.10305056081E+01  0.10304181647E+01 0.  0.
     999903    2    3    3    0    0  0.11246669627E+00 -0.30490058211E-01 -0.63680341526E-01  0.14021968941E+00  0.45033032120E-01 0.  0.
         14    1    1    2    0    0 -0.56894561777E-02 -0.27120722677E-02 -0.11852807646E-01  0.13424391855E-01  0.00000000000E+00 0.  1.
     999901    1    3    3    0    0 -0.10677724009E+00  0.33202130479E-01  0.75533149173E-01  0.89028591873E+00  0.88000000000E+00 0.  1.
        -11    1    4    4    0    0  0.48862319568E-01 -0.11025090693E-01 -0.52863483875E-01  0.72827796525E-01  0.51100000000E-03 0. -1.
         11    1    4    4    0    0  0.63604376704E-01 -0.19464967518E-01 -0.10816857651E-01  0.67391892886E-01  0.51100000000E-03 0.  1.
</event>
<event>
 8    1  0.2190512E+004  0.1043930E+01  0.7957747E-01            NaN
         13   -1    0    0    0    0  0.00000000000E+00  0.00000000000E+00  0.74505805969E-08  0.10566000000E+00  0.10566000000E+00 0. -1.
     999900   -1    0    0    0    0 -0.00000000000E+00 -0.00000000000E+00 -0.74505805969E-08  0.93827000000E+00  0.93827000000E+00 0.  1.
     999902    2    1    2    0    0  0.13103265945E-01  0.45930229175E-02  0.10932293312E-01  0.10262578050E+01  0.10261056358E+01 0.  0.
     999903    2    3    3    0    0 -0.96986849131E-01 -0.21844947198E-01  0.81439164360E-01  0.13620723424E+00  0.45126738694E-01 0.  0.
         14    1    1    2    0    0 -0.13103265945E-01 -0.45930229175E-02 -0.10932293312E-01  0.17672194969E-01  0.00000000000E+00 0.  1.
     999901    1    3    3    0    0  0.11009011508E+00  0.26437970116E-01 -0.70506871048E-01  0.89005057079E+00  0.88000000000E+00 0.  1.
        -11    1    4    4    0    0 -0.43165890156E-01 -0.30983453800E-01  0.29127576490E-01  0.60596578414E-01  0.51100000000E-03 0. -1.
         11    1    4    4    0    0 -0.53820958976E-01  0.91385066016E-02  0.52311587870E-01  0.75610655826E-01  0.51100000000E-03 0.  1.
</event>
<event>
 8    1  0.2190512E+004  0.1043930E+01  0.7957747E-01            NaN
         13   -1    0    0    0    0  0.00000000000E+00  0.00000000000E+00  0.74505805969E-08  0.10566000000E+00  0.10566000000E+00 0. -1.
     999900   -1    0    0    0    0 -0.00000000000E+00 -0.00000000000E+00 -0.74505805969E-08  0.93827000000E+00  0.93827000000E+00 0. -1.
     999902    2    1    2    0    0 -0.13474670693E-01 -0.53180628030E-02 -0.18847829797E-01  0.10201583945E+01  0.10198813953E+01 0.  0.
     999903    2    3    3    0    0  0.86368545628E-01  0.79873353888E-01  0.28379585670E-01  0.12917204546E+00  0.45174529435E-01 0.  0.
         14    1    1    2    0    0  0.13474670693E-01  0.53180628030E-02  0.18847829797E-01  0.23771605548E-01  0.00000000000E+00 0. -1.
     999901    1    3    3    0    0 -0.99843216322E-01 -0.85191416691E-01 -0.47227415467E-01  0.89098634899E+00  0.88000000000E+00 0.  1.
        -11    1    4    4    0    0  0.38515802576E-01  0.51137254352E-01 -0.48580586629E-02  0.64205511334E-01  0.51100000000E-03 0.  1.
         11    1    4    4    0    0  0.47852743053E-01  0.28736099535E-01  0.33237644333E-01  0.64966534123E-01  0.51100000000E-03 0. -1.
</event>
<event>
 8    1  0.2190512E+004  0.1043930E+01  0.7957747E-01            NaN
         13   -1    0    0    0    0  0.00000000000E+00  0.00000000000E+00  0.74505805969E-08  0.10566000000E+00  0.10566000000E+00 0.  1.
     999900   -1    0    0    0    0 -0.00000000000E+00 -0.00000000000E+00 -0.74505805969E-08  0.93827000000E+00  0.93827000000E+00 0.  1.
     999902    2    1    2    0    0 -0.17068296696E-03 -0.37479888982E-03  0.14399197765E-01  0.10295249140E+01  0.10294241313E+01 0.  0.
     999903    2    3    3    0    0  0.53726703281E-01  0.72682801441E-01  0.98535320540E-01  0.14086230738E+00  0.44312887257E-01 0.  0.
         14    1    1    2    0    0  0.17068296696E-03  0.37479888982E-03 -0.14399197765E-01  0.14405086018E-01  0.00000000000E+00 0. -1.
     999901    1    3    3    0    0 -0.53897386247E-01 -0.73057600331E-01 -0.84136122774E-01  0.88866260660E+00  0.88000000000E+00 0.  1.
        -11    1    4    4    0    0  0.47831285398E-01  0.31800410012E-01  0.43519587858E-01  0.72064648671E-01  0.51100000000E-03 0. -1.
         11    1    4    4    0    0  0.58954178829E-02  0.40882391429E-01  0.55015732682E-01  0.68797658713E-01  0.51100000000E-03 0.  1.
</event>
<event>
 8    1  0.2190512E+004  0.1043930E+01  0.7957747E-01            NaN
         13   -1    0    0    0    0  0.00000000000E+00  0.00000000000E+00  0.74505805969E-08  0.10566000000E+00  0.10566000000E+00 0.  1.
     999900   -1    0    0    0    0 -0.00000000000E+00 -0.00000000000E+00 -0.74505805969E-08  0.93827000000E+00  0.93827000000E+00 0.  1.
     999902    2    1    2    0    0 -0.98535672522E-03 -0.13957630319E-01  0.31047209311E-02  0.10295973218E+01  0.10294975568E+01 0.  0.
     999903    2    3    3    0    0 -0.85510336289E-02 -0.45123221768E-01 -0.12432247185E+00  0.13984105012E+00  0.44611847902E-01 0.  0.
         14    1    1    2    0    0  0.98535672522E-03  0.13957630319E-01 -0.31047209311E-02  0.14332678188E-01  0.00000000000E+00 0. -1.
     999901    1    3    3    0    0  0.75656769037E-02  0.31165591449E-01  0.12742719278E+00  0.88975627169E+00  0.88000000000E+00 0. -1.
        -11    1    4    4    0    0  0.10767171445E-01 -0.19860703085E-02 -0.54052304724E-01  0.55152418108E-01  0.51100000000E-03 0.  1.
         11    1    4    4    0    0 -0.19318205073E-01 -0.43137151460E-01 -0.70270167123E-01  0.84688632010E-01  0.51100000000E-03 0. -1.
</event>
<event>
 8    1  0.2190512E+004  0.1043930E+01  0.7957747E-01            NaN
         13   -1    0    0    0    0  0.00000000000E+00  0.00000000000E+00  0.74505805969E-08  0.10566000000E+00  0.10566000000E+00 0. -1.
     999900   -1    0    0    0    0 -0.00000000000E+00 -0.00000000000E+00 -0.74505805969E-08  0.93827000000E+00  0.93827000000E+00 0. -1.
     999902    2    1    2    0    0 -0.14689538125E-02  0.23432355356E-02  0.13305665349E-01  0.10303399555E+01  0.10302503262E+01 0.  0.
     999903    2    3    3    0    0 -0.27534191338E-01  0.91186672767E-01  0.94699211897E-01  0.14174698777E+00  0.45289367683E-01 0.  0.
         14    1    1    2    0    0  0.14689538125E-02 -0.23432355356E-02 -0.13305665349E-01  0.13590044461E-01  0.00000000000E+00 0.  1.
     999901    1    3    3    0    0  0.26065237526E-01 -0.88843437232E-01 -0.81393546548E-01  0.88859296777E+00  0.88000000000E+00 0.  1.
        -11    1    4    4    0    0  0.72339907554E-02  0.24123058817E-01  0.73012883623E-02  0.26226370731E-01  0.51100000000E-03 0. -1.
         11    1    4    4    0    0 -0.34768182094E-01  0.67063613950E-01  0.87397923535E-01  0.11552061704E+00  0.51100000000E-03 0.  1.
</event>
<event>
 8    1  0.2190512E+004  0.1043930E+01  0.7957747E-01            NaN
         13   -1    0    0    0    0  0.00000000000E+00  0.00000000000E+00  0.74505805969E-08  0.10566000000E+00  0.10566000000E+00 0.  1.
     999900   -1    0    0    0    0 -0.00000000000E+00 -0.00000000000E+00 -0.74505805969E-08  0.93827000000E+00  0.93827000000E+00 0. -1.
     999902    2    1    2    0    0  0.10088411661E-01 -0.69359817521E-02  0.80515804012E-02  0.10292769512E+01  0.10291726436E+01 0.  0.
     999903    2    3    3    0    0  0.71920548368E-01 -0.66475958940E-01  0.91076598860E-01  0.14121086372E+00  0.45320445470E-01 0.  0.
         14    1    1    2    0    0 -0.10088411661E-01  0.69359817521E-02 -0.80515804012E-02  0.14653048818E-01  0.00000000000E+00 0. -1.
     999901    1    3    3    0    0 -0.61832136706E-01  0.59539977188E-01 -0.83025018459E-01  0.88806608746E+00  0.88000000000E+00 0. -1.
        -11    1    4    4    0    0  0.27666223504E-01 -0.28565692621E-01  0.93820389548E-02  0.40861993268E-01  0.51100000000E-03 0.  1.
         11    1    4    4    0    0  0.44254324864E-01 -0.37910266319E-01  0.81694559905E-01  0.10034887045E+00  0.51100000000E-03 0. -1.
</event>
<event>
 8    1  0.2190512E+004  0.1043930E+01  0.7957747E-01            NaN
         13   -1    0    0    0    0  0.00000000000E+00  0.00000000000E+00  0.74505805969E-08  0.10566000000E+00  0.10566000000E+00 0.  1.
     999900   -1    0    0    0    0 -0.00000000000E+00 -0.00000000000E+00 -0.74505805969E-08  0.93827000000E+00  0.93827000000E+00 0.  1.
     999902    2    1    2    0    0  0.72355197467E-02 -0.99996255108E-02 -0.60749424047E-02  0.10301731769E+01  0.10300813192E+01 0.  0.
     999903    2    3    3    0    0 -0.86248266552E-01  0.14213235705E-01  0.97599709210E-01  0.13884051491E+00  0.45936976298E-01 0.  0.
         14    1    1    2    0    0 -0.72355197467E-02  0.99996255108E-02  0.60749424047E-02  0.13756823092E-01  0.00000000000E+00 0.  1.
     999901    1    3    3    0    0  0.93483786298E-01 -0.24212861216E-01 -0.10367465162E+00  0.89133266199E+00  0.88000000000E+00 0.  1.
        -11    1    4    4    0    0 -0.39931508054E-01  0.18629827192E-01  0.75292322559E-01  0.87239846137E-01  0.51100000000E-03 0.  1.
         11    1    4    4    0    0 -0.46316758497E-01 -0.44165914870E-02  0.22307386651E-01  0.51600668777E-01  0.51100000000E-03 0. -1.
</event>
<event>
 8    1  0.2190512E+004  0.1043930E+01  0.7957747E-01            NaN
         13   -1    0    0    0    0  0.00000000000E+00  0.00000000000E+00  0.74505805969E-08  0.10566000000E+00  0.10566000000E+00 0.  1.
     999900   -1    0    0    0    0 -0.00000000000E+00 -0.00000000000E+00 -0.74505805969E-08  0.93827000000E+00  0.93827000000E+00 0.  1.
     999902    2    1    2    0    0  0.98187388983E-02  0.78218229960E-02  0.44149280573E-02  0.10306228539E+01  0.10305369410E+01 0.  0.
     999903    2    3    3    0    0 -0.11714018476E-02 -0.13115180025E+00  0.17267828449E-01  0.13955627487E+00  0.44447824086E-01 0.  0.
         14    1    1    2    0    0 -0.98187388983E-02 -0.78218229960E-02 -0.44149280573E-02  0.13307146136E-01  0.00000000000E+00 0. -1.
     999901    1    3    3    0    0  0.10990140746E-01  0.13897362324E+00 -0.12852900391E-01  0.89106657899E+00  0.88000000000E+00 0.  1.
        -11    1    4    4    0    0  0.12203763253E-01 -0.87133486017E-02 -0.10182528664E-02  0.15038358996E-01  0.51100000000E-03 0.  1.
         11    1    4    4    0    0 -0.13375165101E-01 -0.12243845165E+00  0.18286081315E-01  0.12451791587E+00  0.51100000000E-03 0. -1.
</event>
<event>
 8    1  0.2190512E+004  0.1043930E+01  0.7957747E-01            NaN
         13   -1    0    0    0    0  0.00000000000E+00  0.00000000000E+00  0.74505805969E-08  0.10566000000E+00  0.10566000000E+00 0.  1.
     999900   -1    0    0    0    0 -0.00000000000E+00 -0.00000000000E+00 -0.74505805969E-08  0.93827000000E+00  0.93827000000E+00 0. -1.
     999902    2    1    2    0    0 -0.75889215262E-02 -0.97459341775E-02  0.35129855515E-02  0.10310880363E+01  0.10310080614E+01 0.  0.
     999903    2    3    3    0    0  0.12502492758E+00 -0.39970793662E-01 -0.21757271045E-01  0.14028022263E+00  0.44455203923E-01 0.  0.
         14    1    1    2    0    0  0.75889215262E-02  0.97459341775E-02 -0.35129855515E-02  0.12841963651E-01  0.00000000000E+00 0. -1.
     999901    1    3    3    0    0 -0.13261384911E+00  0.30224859485E-01  0.25270256596E-01  0.89080781371E+00  0.88000000000E+00 0.  1.
        -11    1    4    4    0    0  0.77761011624E-01 -0.31454591383E-02 -0.19912012614E-01  0.80333170043E-01  0.51100000000E-03 0. -1.
         11    1    4    4    0    0  0.47263915960E-01 -0.36825334524E-01 -0.18452584310E-02  0.59947052591E-01  0.51100000000E-03 0.  1.
</event>
<event>
 8    1  0.2190512E+004  0.1043930E+01  0.7957747E-01            NaN
         13   -1    0    0    0    0  0.00000000000E+00  0.00000000000E+00  0.74505805969E-08  0.10566000000E+00  0.10566000000E+00 0.  1.
     999900   -1    0    0    0    0 -0.00000000000E+00 -0.00000000000E+00 -0.74505805969E-08  0.93827000000E+00  0.93827000000E+00 0.  1.
     999902    2    1    2    0    0  0.10416328323E-01  0.25538652839E-02 -0.80706177602E-02  0.10305077426E+01  0.10304203271E+01 0.  0.
     999903    2    3    3    0    0  0.11761887353E+00 -0.30399015059E-01  0.55809075993E-01  0.14109282629E+00  0.45102473779E-01 0.  0.
         14    1    1    2    0    0 -0.10416328323E-01 -0.25538652839E-02  0.80706177602E-02  0.13422257435E-01  0.00000000000E+00 0.  1.
     999901    1    3    3    0    0 -0.10720254520E+00  0.32952880343E-01 -0.63879693753E-01  0.88941491628E+00  0.88000000000E+00 0.  1.
        -11    1    4    4    0    0  0.52637069218E-01 -0.22468503596E-01  0.48870722129E-01  0.75260237258E-01  0.51100000000E-03 0. -1.
         11    1    4    4    0    0  0.64981804307E-01 -0.79305114628E-02  0.69383538633E-02  0.65832589030E-01  0.51100000000E-03 0.  1.
</event>
<event>
 8    1  0.2190512E+004  0.1043930E+01  0.7957747E-01            NaN
         13   -1    0    0    0    0  0.00000000000E+00  0.00000000000E+00  0.74505805969E-08  0.10566000000E+00  0.10566000000E+00 0. -1.
     999900   -1    0    0    0    0 -0.00000000000E+00 -0.00000000000E+00 -0.74505805969E-08  0.93827000000E+00  0.93827000000E+00 0. -1.
     999902    2    1    2    0    0  0.36649392352E-02 -0.10952793923E-01 -0.66188062839E-02  0.10306181981E+01  0.10305322247E+01 0.  0.
     999903    2    3    3    0    0  0.72946556459E-01  0.10288799309E+00 -0.40266168481E-01  0.13994889228E+00  0.45356244394E-01 0.  0.
         14    1    1    2    0    0 -0.36649392352E-02  0.10952793923E-01  0.66188062839E-02  0.13311801942E-01  0.00000000000E+00 0.  1.
     999901    1    3    3    0    0 -0.69281617224E-01 -0.11384078701E+00  0.33647362198E-01  0.89066930578E+00  0.88000000000E+00 0.  1.
        -11    1    4    4    0    0  0.61343358615E-01  0.52490564973E-01 -0.13997988579E-01  0.81941881005E-01  0.51100000000E-03 0. -1.
         11    1    4    4    0    0  0.11603197844E-01  0.50397428114E-01 -0.26268179902E-01  0.58007011275E-01  0.51100000000E-03 0.  1.
</event>
<event>
 8    1  0.2190512E+004  0.1043930E+01  0.7957747E-01            NaN
         13   -1    0    0    0    0  0.00000000000E+00  0.00000000000E+00  0.74505805969E-08  0.10566000000E+00  0.10566000000E+00 0. -1.
     999900   -1    0    0    0    0 -0.00000000000E+00 -0.00000000000E+00 -0.74505805969E-08  0.93827000000E+00  0.93827000000E+00 0. -1.
     999902    2    1    2    0    0  0.10307233818E-01 -0.21667367054E-03 -0.82527310106E-02  0.10307241836E+01  0.10306395826E+01 0.  0.
     999903    2    3    3    0    0 -0.10388689001E+00  0.24327927417E-01  0.77557811850E-01  0.13886871070E+00  0.43416248848E-01 0.  0.
         14    1    1    2    0    0 -0.10307233818E-01  0.21667367054E-03  0.82527310106E-02  0.13205816355E-01  0.00000000000E+00 0. -1.
     999901    1    3    3    0    0  0.11419412383E+00 -0.24544601088E-01 -0.85810542861E-01  0.89185547295E+00  0.88000000000E+00 0. -1.
        -11    1    4    4    0    0 -0.68252643600E-01  0.31673201009E-01  0.35331475205E-01  0.83127548272E-01  0.51100000000E-03 0.  1.
         11    1    4    4    0    0 -0.35634246408E-01 -0.73452735912E-02  0.42226336645E-01  0.55741162426E-01  0.51100000000E-03 0. -1.
</event>
<event>
 8    1  0.2190512E+004  0.1043930E+01  0.7957747E-01            NaN
         13   -1    0    0    0    0  0.00000000000E+00  0.00000000000E+00  0.74505805969E-08  0.10566000000E+00  0.10566000000E+00 0. -1.
     999900   -1    0    0    0    0 -0.00000000000E+00 -0.00000000000E+00 -0.74505805969E-08  0.93827000000E+00  0.93827000000E+00 0. -1.
     999902    2    1    2    0    0 -0.89964092014E-03  0.15942697195E-02  0.13934206993E-01  0.10298760620E+01  0.10297801658E+01 0.  0.
     999903    2    3    3    0    0 -0.11522850825E+00 -0.63268837987E-01  0.17261615039E-01  0.14010677485E+00  0.45292273423E-01 0.  0.
         14    1    1    2    0    0  0.89964092014E-03 -0.15942697195E-02 -0.13934206993E-01  0.14053938034E-01  0.00000000000E+00 0.  1.
     999901    1    3    3    0    0  0.11432886733E+00  0.64863107707E-01 -0.33274080460E-02  0.88976928711E+00  0.88000000000E+00 0.  1.
        -11    1    4    4    0    0 -0.24463548381E-01 -0.12218749747E-01 -0.14861811755E-01  0.31127120240E-01  0.51100000000E-03 0. -1.
         11    1    4    4    0    0 -0.90764959869E-01 -0.51050088240E-01  0.32123426795E-01  0.10897965461E+00  0.51100000000E-03 0.  1.
</event>
<event>
 8    1  0.2190512E+004  0.1043930E+01  0.7957747E-01            NaN
         13   -1    0    0    0    0  0.00000000000E+00  0.00000000000E+00  0.74505805969E-08  0.10566000000E+00  0.10566000000E+00 0.  1.
     999900   -1    0    0    0    0 -0.00000000000E+00 -0.00000000000E+00 -0.74505805969E-08  0.93827000000E+00  0.93827000000E+00 0. -1.
     999902    2    1    2    0    0 -0.92948669686E-02  0.86349904494E-02  0.55081081773E-02  0.10300989889E+01  0.10300061311E+01 0.  0.
     999903    2    3    3    0    0  0.65664067468E-01  0.10094507414E+00  0.57056110856E-01  0.14060633015E+00  0.44867165539E-01 0.  0.
         14    1    1    2    0    0  0.92948669686E-02 -0.86349904494E-02 -0.55081081773E-02  0.13831011088E-01  0.00000000000E+00 0. -1.
     999901    1    3    3    0    0 -0.74958934436E-01 -0.92310083693E-01 -0.51548002678E-01  0.88949265876E+00  0.88000000000E+00 0.  1.
        -11    1    4    4    0    0  0.33333737863E-01  0.55569270066E-01  0.54760319202E-01  0.84841237236E-01  0.51100000000E-03 0. -1.
         11    1    4    4    0    0  0.32330329605E-01  0.45375804076E-01  0.22957916536E-02  0.55765092918E-01  0.51100000000E-03 0.  1.
</event>
<event>
 8    1  0.2190512E+004  0.1043930E+01  0.7957747E-01            NaN
         13   -1    0    0    0    0  0.00000000000E+00  0.00000000000E+00  0.74505805969E-08  0.10566000000E+00  0.10566000000E+00 0. -1.
     999900   -1    0    0    0    0 -0.00000000000E+00 -0.00000000000E+00 -0.74505805969E-08  0.93827000000E+00  0.93827000000E+00 0. -1.
     999902    2    1    2    0    0 -0.14020323378E-01 -0.18680866848E-02 -0.23356675834E-02  0.10295942210E+01  0.10294944125E+01 0.  0.
     999903    2    3    3    0    0 -0.12285514810E+00  0.19061756525E-01 -0.50991781803E-01  0.14130907827E+00  0.43719055481E-01 0.  0.
         14    1    1    2    0    0  0.14020323378E-01  0.18680866848E-02  0.23356675834E-02  0.14335778966E-01  0.00000000000E+00 0. -1.
     999901    1    3    3    0    0  0.10883482472E+00 -0.20929843210E-01  0.48656114219E-01  0.88828514277E+00  0.88000000000E+00 0. -1.
        -11    1    4    4    0    0 -0.38045838604E-01  0.95241217503E-02 -0.38667431582E-01  0.55078363414E-01  0.51100000000E-03 0.  1.
         11    1    4    4    0    0 -0.84809309499E-01  0.95376347747E-02 -0.12324350220E-01  0.86230714853E-01  0.51100000000E-03 0. -1.
</event>
<event>
 8    1  0.2190512E+004  0.1043930E+01  0.7957747E-01            NaN
         13   -1    0    0    0    0  0.00000000000E+00  0.00000000000E+00  0.74505805969E-08  0.10566000000E+00  0.10566000000E+00 0. -1.
     999900   -1    0    0    0    0 -0.00000000000E+00 -0.00000000000E+00 -0.74505805969E-08  0.93827000000E+00  0.93827000000E+00 0.  1.
     999902    2    1    2    0    0  0.94954245015E-02  0.12773515640E-02 -0.68566324784E-02  0.10321483141E+01  0.10320810696E+01 0.  0.
     999903    2    3    3    0    0  0.11788607050E-01  0.10646625306E+00 -0.82744734724E-01  0.14263779267E+00  0.44997938585E-01 0.  0.
         14    1    1    2    0    0 -0.94954245015E-02 -0.12773515640E-02  0.68566324784E-02  0.11781685891E-01  0.00000000000E+00 0. -1.
     999901    1    3    3    0    0 -0.22931825490E-02 -0.10518890150E+00  0.75888102246E-01  0.88951052144E+00  0.88000000000E+00 0. -1.
        -11    1    4    4    0    0  0.24138935443E-01  0.49422279928E-01 -0.24614298417E-01  0.60260889183E-01  0.51100000000E-03 0.  1.
         11    1    4    4    0    0 -0.12350328393E-01  0.57043973133E-01 -0.58130436307E-01  0.82376903489E-01  0.51100000000E-03 0. -1.
</event>
<event>
 8    1  0.2190512E+004  0.1043930E+01  0.7957747E-01            NaN
         13   -1    0    0    0    0  0.00000000000E+00  0.00000000000E+00  0.74505805969E-08  0.10566000000E+00  0.10566000000E+00 0. -1.
     999900   -1    0    0    0    0 -0.00000000000E+00 -0.00000000000E+00 -0.74505805969E-08  0.93827000000E+00  0.93827000000E+00 0. -1.
     999902    2    1    2    0    0  0.53417868681E-02  0.53692596302E-02  0.13610298318E-01  0.10283542542E+01  0.10282362901E+01 0.  0.
     999903    2    3    3    0    0 -0.48281994862E-01 -0.76330698972E-01  0.95993719588E-01  0.13912007737E+00  0.44520501943E-01 0.  0.
         14    1    1    2    0    0 -0.53417868681E-02 -0.53692596302E-02 -0.13610298318E-01  0.15575745768E-01  0.00000000000E+00 0.  1.
     999901    1    3    3    0    0  0.53623781731E-01  0.81699958602E-01 -0.82383421270E-01  0.88923417686E+00  0.88000000000E+00 0. -1.
        -11    1    4    4    0    0 -0.18678978156E-01 -0.61432293938E-01  0.45414321201E-01  0.78648284498E-01  0.51100000000E-03 0.  1.
         11    1    4    4    0    0 -0.29603016707E-01 -0.14898405034E-01  0.50579398388E-01  0.60471792870E-01  0.51100000000E-03 0. -1.
</event>
<event>
 8    1  0.2190512E+004  0.1043930E+01  0.7957747E-01            NaN
         13   -1    0    0    0    0  0.00000000000E+00  0.00000000000E+00  0.74505805969E-08  0.10566000000E+00  0.10566000000E+00 0. -1.
     999900   -1    0    0    0    0 -0.00000000000E+00 -0.00000000000E+00 -0.74505805969E-08  0.93827000000E+00  0.93827000000E+00 0.  1.
     999902    2    1    2    0    0  0.67864667730E-02 -0.72726293980E-02  0.89455018306E-02  0.10305520602E+01  0.10304652248E+01 0.  0.
     999903    2    3    3    0    0 -0.60292070477E-01 -0.54726806660E-01 -0.10345785926E+00  0.13960540375E+00  0.46432563823E-01 0.  0.
         14    1    1    2    0    0 -0.67864667730E-02  0.72726293980E-02 -0.89455018306E-02  0.13377939775E-01  0.00000000000E+00 0.  1.
     999901    1    3    3    0    0  0.67078537250E-01  0.47454177262E-01  0.11240336109E+00  0.89094665648E+00  0.88000000000E+00 0.  1.
        -11    1    4    4    0    0 -0.55797946018E-01 -0.22505914842E-01 -0.76669255720E-01  0.97459544819E-01  0.51100000000E-03 0. -1.
         11    1    4    4    0    0 -0.44941244593E-02 -0.32220891818E-01 -0.26788603543E-01  0.42145858931E-01  0.51100000000E-03 0.  1.
</event>
<event>
 8    1  0.2190512E+004  0.1043930E+01  0.7957747E-01            NaN
         13   -1    0    0    0    0  0.00000000000E+00  0.00000000000E+00  0.74505805969E-08  0.10566000000E+00  0.10566000000E+00 0. -1.
     999900   -1    0    0    0    0 -0.00000000000E+00 -0.00000000000E+00 -0.74505805969E-08  0.93827000000E+00  0.93827000000E+00 0.  1.
     999902    2    1    2    0    0  0.55145622128E-02  0.12684026083E-01  0.41131884262E-02  0.10295004043E+01  0.10293992759E+01 0.  0.
     999903    2    3    3    0    0  0.27645251604E-02  0.46898825234E-01  0.12405506264E+00  0.14070106337E+00  0.46904032441E-01 0.  0.
         14    1    1    2    0    0 -0.55145622128E-02 -0.12684026083E-01 -0.41131884262E-02  0.14429595736E-01  0.00000000000E+00 0.  1.
     999901    1    3    3    0    0  0.27500370524E-02 -0.34214799151E-01 -0.11994187421E+00  0.88879934089E+00  0.88000000000E+00 0.  1.
        -11    1    4    4    0    0  0.15290504497E-01  0.12380075379E-01  0.84351848628E-01  0.86617326685E-01  0.51100000000E-03 0. -1.
         11    1    4    4    0    0 -0.12525979336E-01  0.34518749855E-01  0.39703214011E-01  0.54083736684E-01  0.51100000000E-03 0.  1.
</event>
<event>
 7    1  0.2190512E+004  0.1043930E+01  0.7957747E-01            NaN
         13   -1    0    0    0    0  0.00000000000E+00  0.00000000000E+00  0.74505805969E-08  0.10566000000E+00  0.10566000000E+00 0.  1.
     999900   -1    0    0    0    0 -0.00000000000E+00 -0.00000000000E+00 -0.74505805969E-08  0.93827000000E+00  0.93827000000E+00 0. -1.
     999902    2    1    2    0    0 -0.14260717808E-01  0.39300962238E-02 -0.49930661038E-02  0.10283176831E+01  0.10281991602E+01 0.  0.
         14    1    1    2    0    0  0.14260717808E-01 -0.39300962238E-02  0.49930661038E-02  0.15612316864E-01  0.00000000000E+00 0.  1.
     999901    1    3    3    0    0 -0.58926262477E-01 -0.73119403784E-01  0.12701415613E-01  0.88508761011E+00  0.88000000000E+00 0.  1.
        -11    1    3    3    0    0  0.47527643065E-01  0.19410929926E-01  0.37340050129E-01  0.63483868192E-01  0.51100000000E-03 0.  1.
         11    1    3    3    0    0 -0.28620983969E-02  0.57638570082E-01 -0.55034531846E-01  0.79746204830E-01  0.51100000000E-03 0. -1.
</event>
<event>
 8    1  0.2190512E+004  0.1043930E+01  0.7957747E-01            NaN
         13   -1    0    0    0    0  0.00000000000E+00  0.00000000000E+00  0.74505805969E-08  0.10566000000E+00  0.10566000000E+00 0.  1.
     999900   -1    0    0    0    0 -0.00000000000E+00 -0.00000000000E+00 -0.74505805969E-08  0.93827000000E+00  0.93827000000E+00 0. -1.
     999902    2    1    2    0    0 -0.12185587759E-01  0.66880660694E-02 -0.60394430457E-03  0.10300165703E+01  0.10299225950E+01 0.  0.
     999903    2    3    3    0    0  0.12774939335E-01  0.21242594799E-01  0.13011109847E+00  0.13989226179E+00  0.45016664207E-01 0.  0.
         14    1    1    2    0    0  0.12185587759E-01 -0.66880660694E-02  0.60394430457E-03  0.13913429682E-01  0.00000000000E+00 0.  1.
     999901    1    3    3    0    0 -0.24960527094E-01 -0.14554528729E-01 -0.13071504277E+00  0.89012430852E+00  0.88000000000E+00 0. -1.
        -11    1    4    4    0    0 -0.21229660979E-02  0.31006479625E-01  0.60265115814E-01  0.67808952719E-01  0.51100000000E-03 0. -1.
         11    1    4    4    0    0  0.14897905433E-01 -0.97638848264E-02  0.69845982655E-01  0.72083309075E-01  0.51100000000E-03 0.  1.
</event>
<event>
 8    1  0.2190512E+004  0.1043930E+01  0.7957747E-01            NaN
         13   -1    0    0    0    0  0.00000000000E+00  0.00000000000E+00  0.74505805969E-08  0.10566000000E+00  0.10566000000E+00 0.  1.
     999900   -1    0    0    0    0 -0.00000000000E+00 -0.00000000000E+00 -0.74505805969E-08  0.93827000000E+00  0.93827000000E+00 0.  1.
     999902    2    1    2    0    0 -0.11732998145E-01  0.55677138145E-02 -0.41115288217E-02  0.10303076892E+01  0.10302176309E+01 0.  0.
     999903    2    3    3    0    0 -0.14280854904E-01  0.13431110479E+00  0.45070086884E-02  0.14089460660E+00  0.39844213571E-01 0.  0.
         14    1    1    2    0    0  0.11732998145E-01 -0.55677138145E-02  0.41115288217E-02  0.13622310812E-01  0.00000000000E+00 0. -1.
     999901    1    3    3    0    0  0.25478567588E-02 -0.12874339097E+00 -0.86185375102E-02  0.88941308259E+00  0.88000000000E+00 0.  1.
        -11    1    4    4    0    0 -0.14105220891E-01  0.53957188698E-01  0.19633403378E-01  0.59127549567E-01  0.51100000000E-03 0.  1.
         11    1    4    4    0    0 -0.17563401308E-03  0.80353916090E-01 -0.15126394690E-01  0.81767057031E-01  0.51100000000E-03 0. -1.
</event>
<event>
 8    1  0.2190512E+004  0.1043930E+01  0.7957747E-01            NaN
         13   -1    0    0    0    0  0.00000000000E+00  0.00000000000E+00  0.74505805969E-08  0.10566000000E+00  0.10566000000E+00 0. -1.
     999900   -1    0    0    0    0 -0.00000000000E+00 -0.00000000000E+00 -0.74505805969E-08  0.93827000000E+00  0.93827000000E+00 0. -1.
     999902    2    1    2    0    0 -0.10213665529E-01  0.10135351441E-01 -0.14798020376E-01  0.10232896095E+01  0.10230814236E+01 0.  0.
     999903    2    3    3    0    0 -0.70862260386E-01  0.96315268410E-01 -0.48059935397E-01  0.13637834837E+00  0.44622927277E-01 0.  0.
         14    1    1    2    0    0  0.10213665529E-01 -0.10135351441E-01  0.14798020376E-01  0.20640390486E-01  0.00000000000E+00 0. -1.
     999901    1    3    3    0    0  0.60648594857E-01 -0.86179916969E-01  0.33261915021E-01  0.88691126114E+00  0.88000000000E+00 0. -1.
        -11    1    4    4    0    0 -0.59965349619E-01  0.53543428589E-01 -0.45002352771E-01  0.92131508052E-01  0.51100000000E-03 0.  1.
         11    1    4    4    0    0 -0.10896910767E-01  0.42771839820E-01 -0.30575826260E-02  0.44246840321E-01  0.51100000000E-03 0. -1.
</event>
<event>
 8    1  0.2190512E+004  0.1043930E+01  0.7957747E-01            NaN
         13   -1    0    0    0    0  0.00000000000E+00  0.00000000000E+00  0.74505805969E-08  0.10566000000E+00  0.10566000000E+00 0. -1.
     999900   -1    0    0    0    0 -0.00000000000E+00 -0.00000000000E+00 -0.74505805969E-08  0.93827000000E+00  0.93827000000E+00 0.  1.
     999902    2    1    2    0    0  0.58075520676E-02 -0.10232138525E-01 -0.71342951485E-02  0.10301705492E+01  0.10300786562E+01 0.  0.
     999903    2    3    3    0    0  0.89893385085E-02 -0.21258826132E-01 -0.13162659882E+00  0.14133420581E+00  0.46011415113E-01 0.  0.
         14    1    1    2    0    0 -0.58075520676E-02  0.10232138525E-01  0.71342951485E-02  0.13759450828E-01  0.00000000000E+00 0. -1.
     999901    1    3    3    0    0 -0.31817864409E-02  0.11026687606E-01  0.12449230367E+00  0.88883634336E+00  0.88000000000E+00 0. -1.
        -11    1    4    4    0    0  0.79411814589E-02 -0.29672230320E-01 -0.12875324499E+00  0.13236752937E+00  0.51100000000E-03 0. -1.
         11    1    4    4    0    0  0.10481570495E-02  0.84134041880E-02 -0.28733538319E-02  0.89666764453E-02  0.51100000000E-03 0.  1.
</event>
<event>
 8    1  0.2190512E+004  0.1043930E+01  0.7957747E-01            NaN
         13   -1    0    0    0    0  0.00000000000E+00  0.00000000000E+00  0.74505805969E-08  0.10566000000E+00  0.10566000000E+00 0.  1.
     999900   -1    0    0    0    0 -0.00000000000E+00 -0.00000000000E+00 -0.74505805969E-08  0.93827000000E+00  0.93827000000E+00 0.  1.
     999902    2    1    2    0    0 -0.73752126333E-02 -0.13861384627E-01  0.72783429079E-03  0.10282118103E+01  0.10280916619E+01 0.  0.
     999903    2    3    3    0    0 -0.37389233272E-01  0.10365226781E+00 -0.68046009011E-01  0.13723473905E+00  0.45402278294E-01 0.  0.
         14    1    1    2    0    0  0.73752126333E-02  0.13861384627E-01 -0.72783429079E-03  0.15718189715E-01  0.00000000000E+00 0. -1.
     999901    1    3    3    0    0  0.30014020639E-01 -0.11751365243E+00  0.68773843301E-01  0.89097707123E+00  0.88000000000E+00 0. -1.
        -11    1    4    4    0    0 -0.28889266374E-02  0.34339675467E-01 -0.44544209151E-01  0.56320572601E-01  0.51100000000E-03 0.  1.
         11    1    4    4    0    0 -0.34500306635E-01  0.69312592338E-01 -0.23501799860E-01  0.80914166450E-01  0.51100000000E-03 0. -1.
</event>
<event>
 8    1  0.2190512E+004  0.1043930E+01  0.7957747E-01            NaN
         13   -1    0    0    0    0  0.00000000000E+00  0.00000000000E+00  0.74505805969E-08  0.10566000000E+00  0.10566000000E+00 0. -1.
     999900   -1    0    0    0    0 -0.00000000000E+00 -0.00000000000E+00 -0.74505805969E-08  0.93827000000E+00  0.93827000000E+00 0. -1.
     999902    2    1    2    0    0  0.11039748274E-01 -0.12196711241E-02 -0.82162766361E-02  0.10301143986E+01  0.10300217490E+01 0.  0.
     999903    2    3    3    0    0  0.11810421853E+00  0.42405408580E-01  0.45747199577E-01  0.14091363100E+00  0.44911246060E-01 0.  0.
         14    1    1    2    0    0 -0.11039748274E-01  0.12196711241E-02  0.82162766361E-02  0.13815601376E-01  0.00000000000E+00 0. -1.
     999901    1    3    3    0    0 -0.10706447025E+00 -0.43625079704E-01 -0.53963476213E-01  0.88920076762E+00  0.88000000000E+00 0.  1.
        -11    1    4    4    0    0  0.57911033586E-01  0.29171877498E-01  0.11814450250E-02  0.64856327225E-01  0.51100000000E-03 0. -1.
         11    1    4    4    0    0  0.60193184943E-01  0.13233531082E-01  0.44565754552E-01  0.76057303779E-01  0.51100000000E-03 0.  1.
</event>
<event>
 7    1  0.2190512E+004  0.1043930E+01  0.7957747E-01            NaN
         13   -1    0    0    0    0  0.00000000000E+00  0.00000000000E+00  0.74505805969E-08  0.10566000000E+00  0.10566000000E+00 0.  1.
     999900   -1    0    0    0    0 -0.00000000000E+00 -0.00000000000E+00 -0.74505805969E-08  0.93827000000E+00  0.93827000000E+00 0. -1.
     999902    2    1    2    0    0 -0.39999671594E-03 -0.16480097183E-01 -0.13641432906E-01  0.10225327504E+01  0.10223088493E+01 0.  0.
         14    1    1    2    0    0  0.39999671594E-03  0.16480097183E-01  0.13641432906E-01  0.21397249642E-01  0.00000000000E+00 0.  1.
     999901    1    3    3    0    0 -0.20601613307E-01 -0.84509583295E-01 -0.11888126680E+00  0.89224382975E+00  0.88000000000E+00 0. -1.
        -11    1    3    3    0    0  0.12052914285E-01  0.47579560796E-02  0.19505771494E-01  0.23423217785E-01  0.51100000000E-03 0.  1.
         11    1    3    3    0    0  0.81487023058E-02  0.63271530032E-01  0.85734062401E-01  0.10686570282E+00  0.51100000000E-03 0. -1.
</event>
<event>
 8    1  0.2190512E+004  0.1043930E+01  0.7957747E-01            NaN
         13   -1    0    0    0    0  0.00000000000E+00  0.00000000000E+00  0.74505805969E-08  0.10566000000E+00  0.10566000000E+00 0.  1.
     999900   -1    0    0    0    0 -0.00000000000E+00 -0.00000000000E+00 -0.74505805969E-08  0.93827000000E+00  0.93827000000E+00 0.  1.
     999902    2    1    2    0    0  0.11154707246E-01  0.71008662859E-02 -0.50063674645E-03  0.10306974480E+01  0.10306125018E+01 0.  0.
     999903    2    3    3    0    0  0.16664966889E-01  0.70390313172E-01 -0.11276355710E+00  0.14129378241E+00  0.44897614943E-01 0.  0.
         14    1    1    2    0    0 -0.11154707246E-01 -0.71008662859E-02  0.50063674645E-03  0.13232552018E-01  0.00000000000E+00 0.  1.
     999901    1    3    3    0    0 -0.55102596427E-02 -0.63289446886E-01  0.11226292035E+00  0.88940366557E+00  0.88000000000E+00 0. -1.
        -11    1    4    4    0    0  0.19013888877E-01  0.18898973912E-01 -0.67734135196E-01  0.72848290144E-01  0.51100000000E-03 0. -1.
         11    1    4    4    0    0 -0.23489219881E-02  0.51491339260E-01 -0.45029421904E-01  0.68445492264E-01  0.51100000000E-03 0.  1.
</event>
<event>
 8    1  0.2190512E+004  0.1043930E+01  0.7957747E-01            NaN
         13   -1    0    0    0    0  0.00000000000E+00  0.00000000000E+00  0.74505805969E-08  0.10566000000E+00  0.10566000000E+00 0. -1.
     999900   -1    0    0    0    0 -0.00000000000E+00 -0.00000000000E+00 -0.74505805969E-08  0.93827000000E+00  0.93827000000E+00 0. -1.
     999902    2    1    2    0    0  0.37519065588E-02  0.47690188651E-02  0.97805413703E-02  0.10324200333E+01  0.10323558717E+01 0.  0.
     999903    2    3    3    0    0  0.60915487184E-01  0.62271854207E-01 -0.10146905520E+00  0.14171765666E+00  0.46898237083E-01 0.  0.
         14    1    1    2    0    0 -0.37519065588E-02 -0.47690188651E-02 -0.97805413703E-02  0.11509966692E-01  0.00000000000E+00 0.  1.
     999901    1    3    3    0    0 -0.57163580625E-01 -0.57502835342E-01  0.11124959657E+00  0.89070237664E+00  0.88000000000E+00 0. -1.
        -11    1    4    4    0    0  0.43480768404E-01  0.28112333228E-01 -0.85949730906E-01  0.10034190483E+00  0.51100000000E-03 0.  1.
         11    1    4    4    0    0  0.17434718780E-01  0.34159520979E-01 -0.15519324295E-01  0.41375751836E-01  0.51100000000E-03 0. -1.
</event>
<event>
 8    1  0.2190512E+004  0.1043930E+01  0.7957747E-01            NaN
         13   -1    0    0    0    0  0.00000000000E+00  0.00000000000E+00  0.74505805969E-08  0.10566000000E+00  0.10566000000E+00 0.  1.
     999900   -1    0    0    0    0 -0.00000000000E+00 -0.00000000000E+00 -0.74505805969E-08  0.93827000000E+00  0.93827000000E+00 0. -1.
     999902    2    1    2    0    0  0.44270605305E-02 -0.12487557718E-01  0.41516528387E-02  0.10300456857E+01  0.10299521059E+01 0.  0.
     999903    2    3    3    0    0 -0.24215623530E-01  0.22035064385E-01  0.12889866251E+00  0.14011645748E+00  0.44111404137E-01 0.  0.
         14    1    1    2    0    0 -0.44270605305E-02  0.12487557718E-01 -0.41516528387E-02  0.13884314315E-01  0.00000000000E+00 0. -1.
     999901    1    3    3    0    0  0.28642684060E-01 -0.34522622103E-01 -0.12474700967E+00  0.88992922820E+00  0.88000000000E+00 0. -1.
        -11    1    4    4    0    0  0.49433884220E-02  0.23236280030E-01  0.39745656322E-01  0.46307020161E-01  0.51100000000E-03 0. -1.
         11    1    4    4    0    0 -0.29159011952E-01 -0.12012156454E-02  0.89153006189E-01  0.93809437321E-01  0.51100000000E-03 0.  1.
</event>
<event>
 8    1  0.2190512E+004  0.1043930E+01  0.7957747E-01            NaN
         13   -1    0    0    0    0  0.00000000000E+00  0.00000000000E+00  0.74505805969E-08  0.10566000000E+00  0.10566000000E+00 0.  1.
     999900   -1    0    0    0    0 -0.00000000000E+00 -0.00000000000E+00 -0.74505805969E-08  0.93827000000E+00  0.93827000000E+00 0.  1.
     999902    2    1    2    0    0  0.29404514423E-03  0.32480781843E-02 -0.13948235761E-01  0.10296055539E+01  0.10295059043E+01 0.  0.
     999903    2    3    3    0    0  0.10924594745E+00 -0.59511799823E-01  0.40839178753E-01  0.13898162651E+00  0.46601744946E-01 0.  0.
         14    1    1    2    0    0 -0.29404514423E-03 -0.32480781843E-02  0.13948235761E-01  0.14324446072E-01  0.00000000000E+00 0.  1.
     999901    1    3    3    0    0 -0.10895190231E+00  0.62759878007E-01 -0.54787414514E-01  0.89062392742E+00  0.88000000000E+00 0.  1.
        -11    1    4    4    0    0  0.66986297158E-01 -0.26920460407E-01  0.69373317715E-03  0.72198459694E-01  0.51100000000E-03 0.  1.
         11    1    4    4    0    0  0.42259650296E-01 -0.32591339416E-01  0.40145445576E-01  0.66783166813E-01  0.51100000000E-03 0. -1.
</event>
<event>
 8    1  0.2190512E+004  0.1043930E+01  0.7957747E-01            NaN
         13   -1    0    0    0    0  0.00000000000E+00  0.00000000000E+00  0.74505805969E-08  0.10566000000E+00  0.10566000000E+00 0.  1.
     999900   -1    0    0    0    0 -0.00000000000E+00 -0.00000000000E+00 -0.74505805969E-08  0.93827000000E+00  0.93827000000E+00 0. -1.
     999902    2    1    2    0    0  0.73481276170E-03 -0.76776947187E-02  0.11684036861E-01  0.10299298692E+01  0.10298347109E+01 0.  0.
     999903    2    3    3    0    0  0.84436585982E-01  0.66936397916E-01 -0.74018404660E-01  0.13868458411E+00  0.46310595137E-01 0.  0.
         14    1    1    2    0    0 -0.73481276170E-03  0.76776947187E-02 -0.11684036861E-01  0.14000130834E-01  0.00000000000E+00 0. -1.
     999901    1    3    3    0    0 -0.83701773220E-01 -0.74614092635E-01  0.85702441521E-01  0.89124528506E+00  0.88000000000E+00 0. -1.
        -11    1    4    4    0    0  0.76803287644E-01  0.41452557477E-01 -0.69776554300E-01  0.11174116594E+00  0.51100000000E-03 0.  1.
         11    1    4    4    0    0  0.76332983376E-02  0.25483840439E-01 -0.42418503593E-02  0.26943418167E-01  0.51100000000E-03 0. -1.
</event>
<event>
 8    1  0.2190512E+004  0.1043930E+01  0.7957747E-01            NaN
         13   -1    0    0    0    0  0.00000000000E+00  0.00000000000E+00  0.74505805969E-08  0.10566000000E+00  0.10566000000E+00 0. -1.
     999900   -1    0    0    0    0 -0.00000000000E+00 -0.00000000000E+00 -0.74505805969E-08  0.93827000000E+00  0.93827000000E+00 0.  1.
     999902    2    1    2    0    0  0.93338465480E-02  0.34661652201E-02 -0.71655020701E-02  0.10316629950E+01  0.10315900619E+01 0.  0.
     999903    2    3    3    0    0 -0.41735261577E-02  0.15298283546E-01  0.13223782706E+00  0.14050883528E+00  0.44770906682E-01 0.  0.
         14    1    1    2    0    0 -0.93338465480E-02 -0.34661652201E-02  0.71655020701E-02  0.12267005039E-01  0.00000000000E+00 0.  1.
     999901    1    3    3    0    0  0.13507372706E-01 -0.11832118326E-01 -0.13940332913E+00  0.89115415968E+00  0.88000000000E+00 0.  1.
        -11    1    4    4    0    0  0.17426693733E-01  0.23837190157E-02  0.26456981672E-01  0.31774278449E-01  0.51100000000E-03 0.  1.
         11    1    4    4    0    0 -0.21600219890E-01  0.12914564531E-01  0.10578084539E+00  0.10873455683E+00  0.51100000000E-03 0. -1.
</event>
<event>
 7    1  0.2190512E+004  0.1043930E+01  0.7957747E-01            NaN
         13   -1    0    0    0    0  0.00000000000E+00  0.00000000000E+00  0.74505805969E-08  0.10566000000E+00  0.10566000000E+00 0. -1.
     999900   -1    0    0    0    0 -0.00000000000E+00 -0.00000000000E+00 -0.74505805969E-08  0.93827000000E+00  0.93827000000E+00 0. -1.
     999903    2    1    2    0    0 -0.35054553922E-01  0.90367372478E-01 -0.37342549283E-01  0.11801661651E+00  0.56021174812E-01 0.  0.
         14    1    1    2    0    0  0.28809130745E-03 -0.38483985705E-01  0.20354757566E-01  0.43536379132E-01  0.00000000000E+00 0. -1.
     999901    1    1    2    0    0  0.34766462615E-01 -0.51883386773E-01  0.16987791717E-01  0.88237700435E+00  0.88000000000E+00 0. -1.
        -11    1    3    3    0    0 -0.49385898421E-01  0.55783093237E-01 -0.24168618894E-01  0.78326902876E-01  0.51100000000E-03 0.  1.
         11    1    3    3    0    0  0.14331344499E-01  0.34584279241E-01 -0.13173930389E-01  0.39689713638E-01  0.51100000000E-03 0. -1.
</event>
<event>
 7    1  0.2691033E+004  0.1043930E+01  0.7957747E-01            NaN
         13   -1    0    0    0    0  0.00000000000E+00  0.00000000000E+00  0.74505805969E-08  0.10566000000E+00  0.10566000000E+00 0. -1.
     999900   -1    0    0    0    0 -0.00000000000E+00 -0.00000000000E+00 -0.74505805969E-08  0.93827000000E+00  0.93827000000E+00 0.  1.
     999903    2    1    2    0    0 -0.16965551516E-01  0.15053547676E-01 -0.82510405187E-01  0.96852483927E-01  0.45365156706E-01 0.  0.
         14    1    1    2    0    0  0.47480142612E-01 -0.37303881687E-01 -0.10796132711E-01  0.61339220837E-01  0.00000000000E+00 0. -1.
     999901    1    1    2    0    0 -0.30514591096E-01  0.22250334011E-01  0.93306537898E-01  0.88573829524E+00  0.88000000000E+00 0. -1.
        -11    1    3    3    0    0 -0.41660175181E-02  0.29719980757E-01 -0.39247398114E-01  0.49409030934E-01  0.51100000000E-03 0. -1.
         11    1    3    3    0    0 -0.12799533998E-01 -0.14666433082E-01 -0.43263007073E-01  0.47443452993E-01  0.51100000000E-03 0.  1.
</event>
<event>
 8    1  0.2190512E+004  0.1043930E+01  0.7957747E-01            NaN
         13   -1    0    0    0    0  0.00000000000E+00  0.00000000000E+00  0.74505805969E-08  0.10566000000E+00  0.10566000000E+00 0.  1.
     999900   -1    0    0    0    0 -0.00000000000E+00 -0.00000000000E+00 -0.74505805969E-08  0.93827000000E+00  0.93827000000E+00 0.  1.
     999902    2    1    2    0    0  0.76614876406E-02  0.10218763794E-01  0.18754822575E-02  0.10310211286E+01  0.10309403129E+01 0.  0.
     999903    2    3    3    0    0 -0.13486550991E-01 -0.12133996635E+00 -0.50496163950E-01  0.13945075657E+00  0.44624841081E-01 0.  0.
         14    1    1    2    0    0 -0.76614876406E-02 -0.10218763794E-01 -0.18754822575E-02  0.12908871370E-01  0.00000000000E+00 0.  1.
     999901    1    3    3    0    0  0.21148038632E-01  0.13155873015E+00  0.52371646207E-01  0.89157037206E+00  0.88000000000E+00 0. -1.
        -11    1    4    4    0    0 -0.18098961593E-01 -0.41328867786E-01 -0.36623127651E-01  0.58113357527E-01  0.51100000000E-03 0. -1.
         11    1    4    4    0    0  0.46124106015E-02 -0.80011098566E-01 -0.13873036299E-01  0.81337399039E-01  0.51100000000E-03 0.  1.
</event>
<event>
 8    1  0.2190512E+004  0.1043930E+01  0.7957747E-01            NaN
         13   -1    0    0    0    0  0.00000000000E+00  0.00000000000E+00  0.74505805969E-08  0.10566000000E+00  0.10566000000E+00 0. -1.
     999900   -1    0    0    0    0 -0.00000000000E+00 -0.00000000000E+00 -0.74505805969E-08  0.93827000000E+00  0.93827000000E+00 0. -1.
     999902    2    1    2    0    0  0.16023987309E-02  0.13070633938E-01  0.80271258135E-02  0.10285078114E+01  0.10283921792E+01 0.  0.
     999903    2    3    3    0    0  0.96724746581E-01 -0.55991602282E-01 -0.66956924879E-01  0.13753056060E+00  0.44053253944E-01 0.  0.
         14    1    1    2    0    0 -0.16023987309E-02 -0.13070633938E-01 -0.80271258135E-02  0.15422188627E-01  0.00000000000E+00 0. -1.
     999901    1    3    3    0    0 -0.95122347851E-01  0.69062236219E-01  0.74984050693E-01  0.89097725077E+00  0.88000000000E+00 0.  1.
        -11    1    4    4    0    0  0.49365301206E-01 -0.35975798544E-02 -0.28144851333E-01  0.56940928352E-01  0.51100000000E-03 0. -1.
         11    1    4    4    0    0  0.47359445375E-01 -0.52394022427E-01 -0.38812073546E-01  0.80589632251E-01  0.51100000000E-03 0.  1.
</event>
<event>
 7    1  0.2190512E+004  0.1043930E+01  0.7957747E-01            NaN
         13   -1    0    0    0    0  0.00000000000E+00  0.00000000000E+00  0.74505805969E-08  0.10566000000E+00  0.10566000000E+00 0. -1.
     999900   -1    0    0    0    0 -0.00000000000E+00 -0.00000000000E+00 -0.74505805969E-08  0.93827000000E+00  0.93827000000E+00 0.  1.
     999902    2    1    2    0    0  0.59566438085E-02 -0.87152684180E-02 -0.82399504377E-02  0.10305384246E+01  0.10304514109E+01 0.  0.
         14    1    1    2    0    0 -0.59566438085E-02  0.87152684180E-02  0.82399504377E-02  0.13391575422E-01  0.00000000000E+00 0.  1.
     999901    1    3    3    0    0  0.68152568327E-01 -0.10247345046E+00 -0.55626339294E-01  0.89030324623E+00  0.88000000000E+00 0.  1.
        -11    1    3    3    0    0 -0.48236456536E-01  0.13451182661E-01  0.23326815221E-01  0.55245737243E-01  0.51100000000E-03 0. -1.
         11    1    3    3    0    0 -0.13959467982E-01  0.80306999378E-01  0.24059573635E-01  0.84989441109E-01  0.51100000000E-03 0.  1.
</event>
<event>
 8    1  0.2190512E+004  0.1043930E+01  0.7957747E-01            NaN
         13   -1    0    0    0    0  0.00000000000E+00  0.00000000000E+00  0.74505805969E-08  0.10566000000E+00  0.10566000000E+00 0. -1.
     999900   -1    0    0    0    0 -0.00000000000E+00 -0.00000000000E+00 -0.74505805969E-08  0.93827000000E+00  0.93827000000E+00 0.  1.
     999902    2    1    2    0    0  0.40043662887E-02 -0.13518808172E-01  0.32407247933E-02  0.10294629540E+01  0.10293612962E+01 0.  0.
     999903    2    3    3    0    0 -0.60727570866E-01 -0.54007372770E-01  0.10555977084E+00  0.14025053011E+00  0.43848737732E-01 0.  0.
         14    1    1    2    0    0 -0.40043662887E-02  0.13518808172E-01 -0.32407247933E-02  0.14467046034E-01  0.00000000000E+00 0. -1.
     999901    1    3    3    0    0  0.64731937155E-01  0.40488564598E-01 -0.10231904604E+00  0.88921242385E+00  0.88000000000E+00 0.  1.
        -11    1    4    4    0    0 -0.39692393009E-01 -0.27233696040E-01  0.91537380106E-01  0.10342394955E+00  0.51100000000E-03 0. -1.
         11    1    4    4    0    0 -0.21035177857E-01 -0.26773676730E-01  0.14022390732E-01  0.36826580563E-01  0.51100000000E-03 0.  1.
</event>
<event>
 8    1  0.2190512E+004  0.1043930E+01  0.7957747E-01            NaN
         13   -1    0    0    0    0  0.00000000000E+00  0.00000000000E+00  0.74505805969E-08  0.10566000000E+00  0.10566000000E+00 0.  1.
     999900   -1    0    0    0    0 -0.00000000000E+00 -0.00000000000E+00 -0.74505805969E-08  0.93827000000E+00  0.93827000000E+00 0. -1.
     999902    2    1    2    0    0  0.27093012050E-02  0.11064560809E-01  0.33273779238E-02  0.10320625545E+01  0.10319943218E+01 0.  0.
     999903    2    3    3    0    0 -0.12885086541E+00 -0.23907634413E-01  0.28081702732E-01  0.14125173930E+00  0.44602144867E-01 0.  0.
         14    1    1    2    0    0 -0.27093012050E-02 -0.11064560809E-01 -0.33273779238E-02  0.11867445503E-01  0.00000000000E+00 0.  1.
     999901    1    3    3    0    0  0.13156016661E+00  0.34972195221E-01 -0.24754324809E-01  0.89081081520E+00  0.88000000000E+00 0.  1.
        -11    1    4    4    0    0 -0.87935108225E-01 -0.36269482382E-01  0.13436052639E-01  0.96066889417E-01  0.51100000000E-03 0. -1.
         11    1    4    4    0    0 -0.40915757184E-01  0.12361847970E-01  0.14645650093E-01  0.45184849882E-01  0.51100000000E-03 0.  1.
</event>
<event>
 8    1  0.2190512E+004  0.1043930E+01  0.7957747E-01            NaN
         13   -1    0    0    0    0  0.00000000000E+00  0.00000000000E+00  0.74505805969E-08  0.10566000000E+00  0.10566000000E+00 0. -1.
     999900   -1    0    0    0    0 -0.00000000000E+00 -0.00000000000E+00 -0.74505805969E-08  0.93827000000E+00  0.93827000000E+00 0. -1.
     999902    2    1    2    0    0  0.79428475369E-02  0.83823315852E-02 -0.71993367746E-02  0.10303218128E+01  0.10302319424E+01 0.  0.
     999903    2    3    3    0    0  0.22253978692E-01  0.13207602302E+00 -0.50342951596E-02  0.14155321230E+00  0.45526391904E-01 0.  0.
         14    1    1    2    0    0 -0.79428475369E-02 -0.83823315852E-02  0.71993367746E-02  0.13608187234E-01  0.00000000000E+00 0. -1.
     999901    1    3    3    0    0 -0.14311131155E-01 -0.12369369143E+00 -0.21650416150E-02  0.88876860047E+00  0.88000000000E+00 0.  1.
        -11    1    4    4    0    0  0.31057117843E-01  0.57795358323E-01 -0.10936294258E-01  0.66518506188E-01  0.51100000000E-03 0. -1.
         11    1    4    4    0    0 -0.88031391508E-02  0.74280664696E-01  0.59019990980E-02  0.75034706109E-01  0.51100000000E-03 0.  1.
</event>
<event>
 8    1  0.2190512E+004  0.1043930E+01  0.7957747E-01            NaN
         13   -1    0    0    0    0  0.00000000000E+00  0.00000000000E+00  0.74505805969E-08  0.10566000000E+00  0.10566000000E+00 0. -1.
     999900   -1    0    0    0    0 -0.00000000000E+00 -0.00000000000E+00 -0.74505805969E-08  0.93827000000E+00  0.93827000000E+00 0.  1.
     999902    2    1    2    0    0 -0.81834744066E-02  0.60215519505E-02 -0.10221686111E-01  0.10295178104E+01  0.10294169276E+01 0.  0.
     999903    2    3    3    0    0  0.18276662108E-02  0.11255185998E+00 -0.66141985606E-01  0.14127459522E+00  0.53967466559E-01 0.  0.
         14    1    1    2    0    0  0.81834744066E-02 -0.60215519505E-02  0.10221686111E-01  0.14412189570E-01  0.00000000000E+00 0.  1.
     999901    1    3    3    0    0 -0.10011140617E-01 -0.10653030803E+00  0.55920299495E-01  0.88824321521E+00  0.88000000000E+00 0. -1.
        -11    1    4    4    0    0 -0.37673219673E-02  0.48319948733E-01 -0.59070678864E-01  0.76410839433E-01  0.51100000000E-03 0. -1.
         11    1    4    4    0    0  0.55949881781E-02  0.64231911247E-01 -0.70713067417E-02  0.64863755790E-01  0.51100000000E-03 0.  1.
</event>
<event>
 8    1  0.2190512E+004  0.1043930E+01  0.7957747E-01            NaN
         13   -1    0    0    0    0  0.00000000000E+00  0.00000000000E+00  0.74505805969E-08  0.10566000000E+00  0.10566000000E+00 0.  1.
     999900   -1    0    0    0    0 -0.00000000000E+00 -0.00000000000E+00 -0.74505805969E-08  0.93827000000E+00  0.93827000000E+00 0. -1.
     999902    2    1    2    0    0 -0.33334749154E-02  0.74468457409E-02 -0.10794494026E-01  0.10303989739E+01  0.10303101265E+01 0.  0.
     999903    2    3    3    0    0  0.10492753474E+00  0.72614011446E-01  0.35856606512E-01  0.14014983410E+00  0.45537869557E-01 0.  0.
         14    1    1    2    0    0  0.33334749154E-02 -0.74468457409E-02  0.10794494026E-01  0.13531026117E-01  0.00000000000E+00 0.  1.
     999901    1    3    3    0    0 -0.10826100966E+00 -0.65167165705E-01 -0.46651100537E-01  0.89024913978E+00  0.88000000000E+00 0. -1.
        -11    1    4    4    0    0  0.48679636168E-02  0.21989614433E-01  0.37115097608E-03  0.22530847448E-01  0.51100000000E-03 0. -1.
         11    1    4    4    0    0  0.10005957112E+00  0.50624397013E-01  0.35485455536E-01  0.11761898666E+00  0.51100000000E-03 0.  1.
</event>
<event>
 8    1  0.2190512E+004  0.1043930E+01  0.7957747E-01            NaN
         13   -1    0    0    0    0  0.00000000000E+00  0.00000000000E+00  0.74505805969E-08  0.10566000000E+00  0.10566000000E+00 0.  1.
     999900   -1    0    0    0    0 -0.00000000000E+00 -0.00000000000E+00 -0.74505805969E-08  0.93827000000E+00  0.93827000000E+00 0.  1.
     999902    2    1    2    0    0  0.14300391676E-02  0.12143472358E-01  0.62105365443E-02  0.10302157849E+01  0.10301244991E+01 0.  0.
     999903    2    3    3    0    0  0.12028969096E-01  0.21067507379E-01 -0.12985424206E+00  0.13965102040E+00  0.45296217868E-01 0.  0.
         14    1    1    2    0    0 -0.14300391676E-02 -0.12143472358E-01 -0.62105365443E-02  0.13714215147E-01  0.00000000000E+00 0. -1.
     999901    1    3    3    0    0 -0.10598929928E-01 -0.89240350210E-02  0.13606477860E+00  0.89056476446E+00  0.88000000000E+00 0. -1.
        -11    1    4    4    0    0  0.17680139788E-01  0.32641854720E-01 -0.80626585179E-01  0.88763648985E-01  0.51100000000E-03 0.  1.
         11    1    4    4    0    0 -0.56511706927E-02 -0.11574347341E-01 -0.49227656877E-01  0.50887371411E-01  0.51100000000E-03 0. -1.
</event>
<event>
 8    1  0.2190512E+004  0.1043930E+01  0.7957747E-01            NaN
         13   -1    0    0    0    0  0.00000000000E+00  0.00000000000E+00  0.74505805969E-08  0.10566000000E+00  0.10566000000E+00 0. -1.
     999900   -1    0    0    0    0 -0.00000000000E+00 -0.00000000000E+00 -0.74505805969E-08  0.93827000000E+00  0.93827000000E+00 0. -1.
     999902    2    1    2    0    0  0.40401529683E-02  0.11002646939E-02  0.13505242290E-01  0.10297905167E+01  0.10296934414E+01 0.  0.
     999903    2    3    3    0    0  0.44364588755E-01  0.61188038634E-01 -0.10733087224E+00  0.13859022089E+00  0.44442551472E-01 0.  0.
         14    1    1    2    0    0 -0.40401529683E-02 -0.11002646939E-02 -0.13505242290E-01  0.14139483291E-01  0.00000000000E+00 0.  1.
     999901    1    3    3    0    0 -0.40324435787E-01 -0.60087773940E-01  0.12083611453E+00  0.89120029582E+00  0.88000000000E+00 0.  1.
        -11    1    4    4    0    0  0.92473486569E-02  0.48318539750E-01 -0.50077466306E-01  0.70201200085E-01  0.51100000000E-03 0.  1.
         11    1    4    4    0    0  0.35117240098E-01  0.12869498884E-01 -0.57253405939E-01  0.68389020802E-01  0.51100000000E-03 0. -1.
</event>
<event>
 8    1  0.2190512E+004  0.1043930E+01  0.7957747E-01            NaN
         13   -1    0    0    0    0  0.00000000000E+00  0.00000000000E+00  0.74505805969E-08  0.10566000000E+00  0.10566000000E+00 0. -1.
     999900   -1    0    0    0    0 -0.00000000000E+00 -0.00000000000E+00 -0.74505805969E-08  0.93827000000E+00  0.93827000000E+00 0. -1.
     999902    2    1    2    0    0  0.10657254534E-01 -0.74773445540E-02  0.70658236171E-02  0.10291173831E+01  0.10290107748E+01 0.  0.
     999903    2    3    3    0    0 -0.12798296913E+00  0.12711215727E-01 -0.18590085450E-01  0.13766524460E+00  0.45441312713E-01 0.  0.
         14    1    1    2    0    0 -0.10657254534E-01  0.74773445540E-02 -0.70658236171E-02  0.14812616891E-01  0.00000000000E+00 0.  1.
     999901    1    3    3    0    0  0.13864022366E+00 -0.20188560281E-01  0.25655909067E-01  0.89145213851E+00  0.88000000000E+00 0. -1.
        -11    1    4    4    0    0 -0.29171151136E-01  0.21728903302E-01  0.15792322351E-02  0.36412311005E-01  0.51100000000E-03 0.  1.
         11    1    4    4    0    0 -0.98811817993E-01 -0.90176875757E-02 -0.20169317685E-01  0.10125293359E+00  0.51100000000E-03 0. -1.
</event>
<event>
 8    1  0.2190512E+004  0.1043930E+01  0.7957747E-01            NaN
         13   -1    0    0    0    0  0.00000000000E+00  0.00000000000E+00  0.74505805969E-08  0.10566000000E+00  0.10566000000E+00 0. -1.
     999900   -1    0    0    0    0 -0.00000000000E+00 -0.00000000000E+00 -0.74505805969E-08  0.93827000000E+00  0.93827000000E+00 0. -1.
     999902    2    1    2    0    0 -0.86381716444E-02 -0.56145616059E-03  0.10982399136E-01  0.10299462118E+01  0.10298512770E+01 0.  0.
     999903    2    3    3    0    0  0.98276503638E-01  0.32342977104E-01  0.82123959582E-01  0.14001668021E+00  0.46432603476E-01 0.  0.
         14    1    1    2    0    0  0.86381716444E-02  0.56145616059E-03 -0.10982399136E-01  0.13983788226E-01  0.00000000000E+00 0. -1.
     999901    1    3    3    0    0 -0.10691467528E+00 -0.32904433265E-01 -0.71141560446E-01  0.88992953156E+00  0.88000000000E+00 0.  1.
        -11    1    4    4    0    0  0.27951665882E-01 -0.84714849606E-02  0.36599867374E-01  0.46828122916E-01  0.51100000000E-03 0. -1.
         11    1    4    4    0    0  0.70324837755E-01  0.40814462065E-01  0.45524092208E-01  0.93188557298E-01  0.51100000000E-03 0.  1.
</event>
<event>
 8    1  0.2190512E+004  0.1043930E+01  0.7957747E-01            NaN
         13   -1    0    0    0    0  0.00000000000E+00  0.00000000000E+00  0.74505805969E-08  0.10566000000E+00  0.10566000000E+00 0.  1.
     999900   -1    0    0    0    0 -0.00000000000E+00 -0.00000000000E+00 -0.74505805969E-08  0.93827000000E+00  0.93827000000E+00 0. -1.
     999902    2    1    2    0    0 -0.77073419927E-02 -0.13738392041E-01 -0.88900356410E-03  0.10281522668E+01  0.10280311994E+01 0.  0.
     999903    2    3    3    0    0 -0.12929751121E+00 -0.27973963541E-01 -0.68949642808E-02  0.13965753286E+00  0.44230045311E-01 0.  0.
         14    1    1    2    0    0  0.77073419927E-02  0.13738392041E-01  0.88900356410E-03  0.15777733164E-01  0.00000000000E+00 0. -1.
     999901    1    3    3    0    0  0.12159016922E+00  0.14235571501E-01  0.60059607167E-02  0.88849473398E+00  0.88000000000E+00 0.  1.
        -11    1    4    4    0    0 -0.45078324302E-01 -0.93713091660E-03 -0.21586450001E-01  0.49991694119E-01  0.51100000000E-03 0. -1.
         11    1    4    4    0    0 -0.84219186913E-01 -0.27036832625E-01  0.14691485720E-01  0.89665838737E-01  0.51100000000E-03 0.  1.
</event>
<event>
 8    1  0.2190512E+004  0.1043930E+01  0.7957747E-01            NaN
         13   -1    0    0    0    0  0.00000000000E+00  0.00000000000E+00  0.74505805969E-08  0.10566000000E+00  0.10566000000E+00 0.  1.
     999900   -1    0    0    0    0 -0.00000000000E+00 -0.00000000000E+00 -0.74505805969E-08  0.93827000000E+00  0.93827000000E+00 0. -1.
     999902    2    1    2    0    0  0.99844514092E-02 -0.13891721807E-02 -0.87139724474E-02  0.10306051216E+01  0.10305189781E+01 0.  0.
     999903    2    3    3    0    0  0.10400092773E+00 -0.71779293622E-01 -0.49227073325E-01  0.14187840409E+00  0.41685930949E-01 0.  0.
         14    1    1    2    0    0 -0.99844514092E-02  0.13891721807E-02  0.87139724474E-02  0.13324878427E-01  0.00000000000E+00 0.  1.
     999901    1    3    3    0    0 -0.94016476319E-01  0.70390121442E-01  0.40513100877E-01  0.88872671748E+00  0.88000000000E+00 0.  1.
        -11    1    4    4    0    0  0.49983123220E-01 -0.99746918647E-02 -0.18100841523E-01  0.54089820386E-01  0.51100000000E-03 0.  1.
         11    1    4    4    0    0  0.54017804509E-01 -0.61804601758E-01 -0.31126231802E-01  0.87788583709E-01  0.51100000000E-03 0. -1.
</event>
<event>
 8    1  0.2190512E+004  0.1043930E+01  0.7957747E-01            NaN
         13   -1    0    0    0    0  0.00000000000E+00  0.00000000000E+00  0.74505805969E-08  0.10566000000E+00  0.10566000000E+00 0.  1.
     999900   -1    0    0    0    0 -0.00000000000E+00 -0.00000000000E+00 -0.74505805969E-08  0.93827000000E+00  0.93827000000E+00 0.  1.
     999902    2    1    2    0    0 -0.93692630500E-02 -0.38812657304E-02 -0.97762929742E-02  0.10298437223E+01  0.10297473813E+01 0.  0.
     999903    2    3    3    0    0  0.59015036069E-01  0.11368409946E+00 -0.35167433981E-01  0.13903356440E+00  0.41069875386E-01 0.  0.
         14    1    1    2    0    0  0.93692630500E-02  0.38812657304E-02  0.97762929742E-02  0.14086277652E-01  0.00000000000E+00 0.  1.
     999901    1    3    3    0    0 -0.68384299119E-01 -0.11756536519E+00  0.25391141007E-01  0.89081015795E+00  0.88000000000E+00 0. -1.
        -11    1    4    4    0    0  0.14845342101E-01  0.59404305508E-01 -0.12039067821E-02  0.61245132113E-01  0.51100000000E-03 0. -1.
         11    1    4    4    0    0  0.44169693968E-01  0.54279793956E-01 -0.33963527199E-01  0.77788432288E-01  0.51100000000E-03 0.  1.
</event>
<event>
 8    1  0.2190512E+004  0.1043930E+01  0.7957747E-01            NaN
         13   -1    0    0    0    0  0.00000000000E+00  0.00000000000E+00  0.74505805969E-08  0.10566000000E+00  0.10566000000E+00 0.  1.
     999900   -1    0    0    0    0 -0.00000000000E+00 -0.00000000000E+00 -0.74505805969E-08  0.93827000000E+00  0.93827000000E+00 0.  1.
     999902    2    1    2    0    0  0.66393395454E-02  0.26582661028E-04 -0.11026295858E-01  0.10310590740E+01  0.10309787356E+01 0.  0.
     999903    2    3    3    0    0  0.50198022931E-01 -0.90289236162E-01  0.82861045875E-01  0.14040249652E+00  0.46636042222E-01 0.  0.
         14    1    1    2    0    0 -0.66393395454E-02 -0.26582661028E-04  0.11026295858E-01  0.12870926019E-01  0.00000000000E+00 0.  1.
     999901    1    3    3    0    0 -0.43558683385E-01  0.90315818823E-01 -0.93887341733E-01  0.89065657746E+00  0.88000000000E+00 0. -1.
        -11    1    4    4    0    0  0.49055313347E-01 -0.58445949686E-01  0.37650400213E-01  0.85089168286E-01  0.51100000000E-03 0.  1.
         11    1    4    4    0    0  0.11427095832E-02 -0.31843286476E-01  0.45210645661E-01  0.55313328239E-01  0.51100000000E-03 0. -1.
</event>
<event>
 8    1  0.2190512E+004  0.1043930E+01  0.7957747E-01            NaN
         13   -1    0    0    0    0  0.00000000000E+00  0.00000000000E+00  0.74505805969E-08  0.10566000000E+00  0.10566000000E+00 0.  1.
     999900   -1    0    0    0    0 -0.00000000000E+00 -0.00000000000E+00 -0.74505805969E-08  0.93827000000E+00  0.93827000000E+00 0.  1.
     999902    2    1    2    0    0 -0.14111932975E-02  0.12489812355E-01 -0.60652135924E-02  0.10299738653E+01  0.10298793082E+01 0.  0.
     999903    2    3    3    0    0 -0.72250562790E-01  0.29432721370E-01 -0.10833105590E+00  0.14106240689E+00  0.45569244619E-01 0.  0.
         14    1    1    2    0    0  0.14111932975E-02 -0.12489812355E-01  0.60652135924E-02  0.13956134676E-01  0.00000000000E+00 0.  1.
     999901    1    3    3    0    0  0.70839369492E-01 -0.16942909015E-01  0.10226584230E+00  0.88891145844E+00  0.88000000000E+00 0. -1.
        -11    1    4    4    0    0 -0.60237599040E-02 -0.93736332672E-02 -0.27075163981E-01  0.29282696420E-01  0.51100000000E-03 0. -1.
         11    1    4    4    0    0 -0.66226802886E-01  0.38806354637E-01 -0.81255891914E-01  0.11177971047E+00  0.51100000000E-03 0.  1.
</event>
<event>
 8    1  0.2190512E+004  0.1043930E+01  0.7957747E-01            NaN
         13   -1    0    0    0    0  0.00000000000E+00  0.00000000000E+00  0.74505805969E-08  0.10566000000E+00  0.10566000000E+00 0.  1.
     999900   -1    0    0    0    0 -0.00000000000E+00 -0.00000000000E+00 -0.74505805969E-08  0.93827000000E+00  0.93827000000E+00 0.  1.
     999902    2    1    2    0    0  0.21233084899E-02 -0.13298364967E-01 -0.35605013428E-02  0.10300004587E+01  0.10299062641E+01 0.  0.
     999903    2    3    3    0    0  0.33889194007E-01 -0.12078885044E+00 -0.48193802860E-01  0.14176884055E+00  0.45136876907E-01 0.  0.
         14    1    1    2    0    0 -0.21233084899E-02  0.13298364967E-01  0.35605013428E-02  0.13929541254E-01  0.00000000000E+00 0.  1.
     999901    1    3    3    0    0 -0.31765885517E-01  0.10749048547E+00  0.44633301517E-01  0.88823161819E+00  0.88000000000E+00 0. -1.
        -11    1    4    4    0    0  0.40382856537E-02 -0.58173712866E-01 -0.18528800390E-02  0.58345376038E-01  0.51100000000E-03 0. -1.
         11    1    4    4    0    0  0.29850908354E-01 -0.62615137575E-01 -0.46340922821E-01  0.83423464517E-01  0.51100000000E-03 0.  1.
</event>
<event>
 8    1  0.2190512E+004  0.1043930E+01  0.7957747E-01            NaN
         13   -1    0    0    0    0  0.00000000000E+00  0.00000000000E+00  0.74505805969E-08  0.10566000000E+00  0.10566000000E+00 0.  1.
     999900   -1    0    0    0    0 -0.00000000000E+00 -0.00000000000E+00 -0.74505805969E-08  0.93827000000E+00  0.93827000000E+00 0. -1.
     999902    2    1    2    0    0 -0.12190825203E-01 -0.23761420762E-02  0.12253847450E-01  0.10264823913E+01  0.10263340980E+01 0.  0.
     999903    2    3    3    0    0  0.11843404564E+00 -0.14614809492E-01  0.47451547457E-01  0.13606028923E+00  0.44950385139E-01 0.  0.
         14    1    1    2    0    0  0.12190825203E-01  0.23761420762E-02 -0.12253847450E-01  0.17447608650E-01  0.00000000000E+00 0.  1.
     999901    1    3    3    0    0 -0.13062487085E+00  0.12238667416E-01 -0.35197700008E-01  0.89042210212E+00  0.88000000000E+00 0.  1.
        -11    1    4    4    0    0  0.10210545831E+00  0.41193819019E-02  0.33415290661E-01  0.10751435576E+00  0.51100000000E-03 0.  1.
         11    1    4    4    0    0  0.16328587334E-01 -0.18734191394E-01  0.14036256796E-01  0.28545933464E-01  0.51100000000E-03 0. -1.
</event>
<event>
 8    1  0.2190512E+004  0.1043930E+01  0.7957747E-01            NaN
         13   -1    0    0    0    0  0.00000000000E+00  0.00000000000E+00  0.74505805969E-08  0.10566000000E+00  0.10566000000E+00 0. -1.
     999900   -1    0    0    0    0 -0.00000000000E+00 -0.00000000000E+00 -0.74505805969E-08  0.93827000000E+00  0.93827000000E+00 0. -1.
     999902    2    1    2    0    0  0.99449609319E-02 -0.78255917840E-02 -0.61894780274E-02  0.10298427088E+01  0.10297463538E+01 0.  0.
     999903    2    3    3    0    0  0.65398765667E-01 -0.71669451829E-01  0.90341898725E-01  0.14053428671E+00  0.46633873954E-01 0.  0.
         14    1    1    2    0    0 -0.99449609319E-02  0.78255917840E-02  0.61894780274E-02  0.14087291186E-01  0.00000000000E+00 0.  1.
     999901    1    3    3    0    0 -0.55453804735E-01  0.63843860045E-01 -0.96531376753E-01  0.88930842210E+00  0.88000000000E+00 0. -1.
        -11    1    4    4    0    0 -0.32683082110E-02 -0.23466291798E-01  0.21727914660E-01  0.32151393217E-01  0.51100000000E-03 0. -1.
         11    1    4    4    0    0  0.68667073878E-01 -0.48203160031E-01  0.68613984065E-01  0.10838289349E+00  0.51100000000E-03 0.  1.
</event>
<event>
 8    1  0.2190512E+004  0.1043930E+01  0.7957747E-01            NaN
         13   -1    0    0    0    0  0.00000000000E+00  0.00000000000E+00  0.74505805969E-08  0.10566000000E+00  0.10566000000E+00 0. -1.
     999900   -1    0    0    0    0 -0.00000000000E+00 -0.00000000000E+00 -0.74505805969E-08  0.93827000000E+00  0.93827000000E+00 0.  1.
     999902    2    1    2    0    0  0.13982958281E-01  0.14345264303E-01 -0.37888420057E-02  0.10235421346E+01  0.10233390623E+01 0.  0.
     999903    2    3    3    0    0  0.66243499785E-01  0.41399615117E-01 -0.10308772173E+00  0.13600432158E+00  0.42047208256E-01 0.  0.
         14    1    1    2    0    0 -0.13982958281E-01 -0.14345264303E-01  0.37888420057E-02  0.20387865360E-01  0.00000000000E+00 0. -1.
     999901    1    3    3    0    0 -0.52260541504E-01 -0.27054350814E-01  0.99298879721E-01  0.88753781306E+00  0.88000000000E+00 0. -1.
        -11    1    4    4    0    0  0.62671263446E-01  0.35298438975E-01 -0.64004402387E-01  0.96283392659E-01  0.51100000000E-03 0.  1.
         11    1    4    4    0    0  0.35722363393E-02  0.61011761415E-02 -0.39083319340E-01  0.39720928921E-01  0.51100000000E-03 0. -1.
</event>
<event>
 8    1  0.2190512E+004  0.1043930E+01  0.7957747E-01            NaN
         13   -1    0    0    0    0  0.00000000000E+00  0.00000000000E+00  0.74505805969E-08  0.10566000000E+00  0.10566000000E+00 0.  1.
     999900   -1    0    0    0    0 -0.00000000000E+00 -0.00000000000E+00 -0.74505805969E-08  0.93827000000E+00  0.93827000000E+00 0. -1.
     999902    2    1    2    0    0  0.25290023842E-02  0.84909998810E-02 -0.23506293211E-01  0.10188095153E+01  0.10184997740E+01 0.  0.
     999903    2    3    3    0    0  0.22161614086E-01  0.12082963477E+00 -0.13643733465E-01  0.13139603870E+00  0.44585084326E-01 0.  0.
         14    1    1    2    0    0 -0.25290023842E-02 -0.84909998810E-02  0.23506293211E-01  0.25120484720E-01  0.00000000000E+00 0.  1.
     999901    1    3    3    0    0 -0.19632611702E-01 -0.11233863489E+00 -0.98625597455E-02  0.88741347658E+00  0.88000000000E+00 0. -1.
        -11    1    4    4    0    0  0.62585534006E-02  0.99012296252E-01 -0.24663673655E-01  0.10223092594E+00  0.51100000000E-03 0. -1.
         11    1    4    4    0    0  0.15903060685E-01  0.21817338523E-01  0.11019940190E-01  0.29165112758E-01  0.51100000000E-03 0.  1.
</event>
<event>
 8    1  0.2190512E+004  0.1043930E+01  0.7957747E-01            NaN
         13   -1    0    0    0    0  0.00000000000E+00  0.00000000000E+00  0.74505805969E-08  0.10566000000E+00  0.10566000000E+00 0.  1.
     999900   -1    0    0    0    0 -0.00000000000E+00 -0.00000000000E+00 -0.74505805969E-08  0.93827000000E+00  0.93827000000E+00 0. -1.
     999902    2    1    2    0    0  0.11212957457E-02 -0.14903566689E-02  0.13677776552E-01  0.10301256515E+01  0.10300331537E+01 0.  0.
     999903    2    3    3    0    0  0.11637114352E+00  0.18909840654E-01 -0.58891204105E-01  0.13941528753E+00  0.45482121297E-01 0.  0.
         14    1    1    2    0    0 -0.11212957457E-02  0.14903566689E-02 -0.13677776552E-01  0.13804348538E-01  0.00000000000E+00 0. -1.
     999901    1    3    3    0    0 -0.11524984778E+00 -0.20400197323E-01  0.72568980658E-01  0.89071036393E+00  0.88000000000E+00 0.  1.
        -11    1    4    4    0    0  0.19007819457E-01  0.18846257571E-02  0.73026627497E-02  0.20455782043E-01  0.51100000000E-03 0.  1.
         11    1    4    4    0    0  0.97363324065E-01  0.17025214897E-01 -0.66193866855E-01  0.11895950549E+00  0.51100000000E-03 0. -1.
</event>
<event>
 8    1  0.2190512E+004  0.1043930E+01  0.7957747E-01            NaN
         13   -1    0    0    0    0  0.00000000000E+00  0.00000000000E+00  0.74505805969E-08  0.10566000000E+00  0.10566000000E+00 0. -1.
     999900   -1    0    0    0    0 -0.00000000000E+00 -0.00000000000E+00 -0.74505805969E-08  0.93827000000E+00  0.93827000000E+00 0. -1.
     999902    2    1    2    0    0  0.73950581799E-02 -0.11159139903E-01  0.43408901964E-02  0.10298567411E+01  0.10297605792E+01 0.  0.
     999903    2    3    3    0    0 -0.11006168806E+00  0.66772651924E-01  0.25739679546E-01  0.13838191833E+00  0.43759136113E-01 0.  0.
         14    1    1    2    0    0 -0.73950581799E-02  0.11159139903E-01 -0.43408901964E-02  0.14073258917E-01  0.00000000000E+00 0. -1.
     999901    1    3    3    0    0  0.11745674624E+00 -0.77931791827E-01 -0.21398789350E-01  0.89147482275E+00  0.88000000000E+00 0. -1.
        -11    1    4    4    0    0 -0.55136147556E-01  0.86271413443E-02  0.71774439051E-02  0.56268989302E-01  0.51100000000E-03 0. -1.
         11    1    4    4    0    0 -0.54925540508E-01  0.58145510580E-01  0.18562235641E-01  0.82112929029E-01  0.51100000000E-03 0.  1.
</event>
<event>
 8    1  0.2190512E+004  0.1043930E+01  0.7957747E-01            NaN
         13   -1    0    0    0    0  0.00000000000E+00  0.00000000000E+00  0.74505805969E-08  0.10566000000E+00  0.10566000000E+00 0.  1.
     999900   -1    0    0    0    0 -0.00000000000E+00 -0.00000000000E+00 -0.74505805969E-08  0.93827000000E+00  0.93827000000E+00 0.  1.
     999902    2    1    2    0    0 -0.13873553935E-01  0.32631488580E-02  0.70987436621E-02  0.10280078205E+01  0.10278845087E+01 0.  0.
     999903    2    3    3    0    0 -0.14501531325E-01  0.38573002761E-01  0.12491883519E+00  0.13945351482E+00  0.46307628503E-01 0.  0.
         14    1    1    2    0    0  0.13873553935E-01 -0.32631488580E-02 -0.70987436621E-02  0.15922179525E-01  0.00000000000E+00 0. -1.
     999901    1    3    3    0    0  0.62797739014E-03 -0.35309853903E-01 -0.11782009152E+00  0.88855430566E+00  0.88000000000E+00 0.  1.
        -11    1    4    4    0    0 -0.11535237290E-01  0.44001327257E-01  0.65710063665E-01  0.79920285833E-01  0.51100000000E-03 0. -1.
         11    1    4    4    0    0 -0.29662940343E-02 -0.54283244967E-02  0.59208771521E-01  0.59533228983E-01  0.51100000000E-03 0.  1.
</event>
<event>
 8    1  0.2190512E+004  0.1043930E+01  0.7957747E-01            NaN
         13   -1    0    0    0    0  0.00000000000E+00  0.00000000000E+00  0.74505805969E-08  0.10566000000E+00  0.10566000000E+00 0. -1.
     999900   -1    0    0    0    0 -0.00000000000E+00 -0.00000000000E+00 -0.74505805969E-08  0.93827000000E+00  0.93827000000E+00 0.  1.
     999902    2    1    2    0    0 -0.10430230791E-01  0.12227656951E-01 -0.71628897096E-03  0.10278421667E+01  0.10277162553E+01 0.  0.
     999903    2    3    3    0    0 -0.77098502126E-01  0.97804719991E-01 -0.45367095990E-01  0.14005740303E+00  0.45254397162E-01 0.  0.
         14    1    1    2    0    0  0.10430230791E-01 -0.12227656951E-01  0.71628897096E-03  0.16087833252E-01  0.00000000000E+00 0.  1.
     999901    1    3    3    0    0  0.66668271335E-01 -0.85577063041E-01  0.44650807019E-01  0.88778476372E+00  0.88000000000E+00 0. -1.
        -11    1    4    4    0    0 -0.10750333582E-01  0.42846850830E-01 -0.36349315848E-02  0.44327149094E-01  0.51100000000E-03 0. -1.
         11    1    4    4    0    0 -0.66348168544E-01  0.54957869162E-01 -0.41732164405E-01  0.95730253937E-01  0.51100000000E-03 0.  1.
</event>
<event>
 8    1  0.2190512E+004  0.1043930E+01  0.7957747E-01            NaN
         13   -1    0    0    0    0  0.00000000000E+00  0.00000000000E+00  0.74505805969E-08  0.10566000000E+00  0.10566000000E+00 0.  1.
     999900   -1    0    0    0    0 -0.00000000000E+00 -0.00000000000E+00 -0.74505805969E-08  0.93827000000E+00  0.93827000000E+00 0.  1.
     999902    2    1    2    0    0 -0.24756951760E-02  0.12958528320E-01 -0.91375060270E-03  0.10307054976E+01  0.10306206554E+01 0.  0.
     999903    2    3    3    0    0 -0.12607537020E+00  0.33431248815E-01 -0.16697213477E-01  0.14169192650E+00  0.52774593594E-01 0.  0.
         14    1    1    2    0    0  0.24756951760E-02 -0.12958528320E-01  0.91375060270E-03  0.13224502372E-01  0.00000000000E+00 0.  1.
     999901    1    3    3    0    0  0.12359967502E+00 -0.20472720495E-01  0.15783462875E-01  0.88901357113E+00  0.88000000000E+00 0.  1.
        -11    1    4    4    0    0 -0.71252442081E-02  0.74902174002E-02 -0.17048358409E-01  0.19944425466E-01  0.51100000000E-03 0.  1.
         11    1    4    4    0    0 -0.11895012599E+00  0.25941031415E-01  0.35114493150E-03  0.12174750103E+00  0.51100000000E-03 0. -1.
</event>
<event>
 8    1  0.2190512E+004  0.1043930E+01  0.7957747E-01            NaN
         13   -1    0    0    0    0  0.00000000000E+00  0.00000000000E+00  0.74505805969E-08  0.10566000000E+00  0.10566000000E+00 0. -1.
     999900   -1    0    0    0    0 -0.00000000000E+00 -0.00000000000E+00 -0.74505805969E-08  0.93827000000E+00  0.93827000000E+00 0.  1.
     999902    2    1    2    0    0  0.10796259309E-02  0.10986046289E-01 -0.86700265780E-02  0.10298933278E+01  0.10297976687E+01 0.  0.
     999903    2    3    3    0    0  0.95033446526E-01  0.87368643299E-01 -0.35032188917E-01  0.14121082819E+00  0.45261550436E-01 0.  0.
         14    1    1    2    0    0 -0.10796259309E-02 -0.10986046289E-01  0.86700265780E-02  0.14036672186E-01  0.00000000000E+00 0.  1.
     999901    1    3    3    0    0 -0.93953820596E-01 -0.76382597010E-01  0.26362162339E-01  0.88868249962E+00  0.88000000000E+00 0. -1.
        -11    1    4    4    0    0  0.60649817520E-01  0.66317191920E-01 -0.33492017068E-02  0.89932466788E-01  0.51100000000E-03 0.  1.
         11    1    4    4    0    0  0.34383629006E-01  0.21051451378E-01 -0.31682987210E-01  0.51278361404E-01  0.51100000000E-03 0. -1.
</event>
<event>
 8    1  0.2190512E+004  0.1043930E+01  0.7957747E-01            NaN
         13   -1    0    0    0    0  0.00000000000E+00  0.00000000000E+00  0.74505805969E-08  0.10566000000E+00  0.10566000000E+00 0.  1.
     999900   -1    0    0    0    0 -0.00000000000E+00 -0.00000000000E+00 -0.74505805969E-08  0.93827000000E+00  0.93827000000E+00 0. -1.
     999902    2    1    2    0    0 -0.89127136707E-02  0.10486385179E-01  0.18056301650E-02  0.10300497608E+01  0.10299562363E+01 0.  0.
     999903    2    3    3    0    0  0.73879812325E-01  0.72247661668E-01  0.83468205870E-01  0.14025324819E+00  0.45012008970E-01 0.  0.
         14    1    1    2    0    0  0.89127136707E-02 -0.10486385179E-01 -0.18056301650E-02  0.13880239169E-01  0.00000000000E+00 0. -1.
     999901    1    3    3    0    0 -0.82792525996E-01 -0.61761276489E-01 -0.81662575705E-01  0.88979651264E+00  0.88000000000E+00 0.  1.
        -11    1    4    4    0    0  0.13266901609E-01  0.30115259553E-01  0.48393620076E-01  0.58524722308E-01  0.51100000000E-03 0.  1.
         11    1    4    4    0    0  0.60612910716E-01  0.42132402115E-01  0.35074585794E-01  0.81728525883E-01  0.51100000000E-03 0. -1.
</event>
<event>
 8    1  0.2190512E+004  0.1043930E+01  0.7957747E-01            NaN
         13   -1    0    0    0    0  0.00000000000E+00  0.00000000000E+00  0.74505805969E-08  0.10566000000E+00  0.10566000000E+00 0. -1.
     999900   -1    0    0    0    0 -0.00000000000E+00 -0.00000000000E+00 -0.74505805969E-08  0.93827000000E+00  0.93827000000E+00 0. -1.
     999902    2    1    2    0    0 -0.51582943161E-02 -0.14288649134E-01  0.16904000260E-02  0.10286450091E+01  0.10285314404E+01 0.  0.
     999903    2    3    3    0    0  0.62700612515E-01  0.31632140950E-01 -0.10991325884E+00  0.13782015153E+00  0.44514161222E-01 0.  0.
         14    1    1    2    0    0  0.51582943161E-02  0.14288649134E-01 -0.16904000260E-02  0.15284990892E-01  0.00000000000E+00 0.  1.
     999901    1    3    3    0    0 -0.67858906831E-01 -0.45920790084E-01  0.11160365887E+00  0.89082485757E+00  0.88000000000E+00 0.  1.
        -11    1    4    4    0    0  0.45875692696E-01  0.23769742741E-01 -0.10725519231E+00  0.11905258187E+00  0.51100000000E-03 0. -1.
         11    1    4    4    0    0  0.16824919819E-01  0.78623982093E-02 -0.26580665270E-02  0.18767569667E-01  0.51100000000E-03 0.  1.
</event>
<event>
 8    1  0.2190512E+004  0.1043930E+01  0.7957747E-01            NaN
         13   -1    0    0    0    0  0.00000000000E+00  0.00000000000E+00  0.74505805969E-08  0.10566000000E+00  0.10566000000E+00 0.  1.
     999900   -1    0    0    0    0 -0.00000000000E+00 -0.00000000000E+00 -0.74505805969E-08  0.93827000000E+00  0.93827000000E+00 0. -1.
     999902    2    1    2    0    0 -0.51776895758E-02  0.14476266531E-02 -0.12634071342E-01  0.10301996012E+01  0.10301080984E+01 0.  0.
     999903    2    3    3    0    0  0.97360106287E-01  0.85708624206E-01 -0.27205928999E-01  0.14012867464E+00  0.45507409551E-01 0.  0.
         14    1    1    2    0    0  0.51776895758E-02 -0.14476266531E-02  0.12634071342E-01  0.13730398791E-01  0.00000000000E+00 0.  1.
     999901    1    3    3    0    0 -0.10253779586E+00 -0.84260997553E-01  0.14571857657E-01  0.89007092657E+00  0.88000000000E+00 0.  1.
        -11    1    4    4    0    0  0.90139688544E-01  0.57667744749E-01 -0.12765597110E-01  0.10776805568E+00  0.51100000000E-03 0. -1.
         11    1    4    4    0    0  0.72204177426E-02  0.28040879457E-01 -0.14440331890E-01  0.32360618956E-01  0.51100000000E-03 0.  1.
</event>
<event>
 8    1  0.2190512E+004  0.1043930E+01  0.7957747E-01            NaN
         13   -1    0    0    0    0  0.00000000000E+00  0.00000000000E+00  0.74505805969E-08  0.10566000000E+00  0.10566000000E+00 0.  1.
     999900   -1    0    0    0    0 -0.00000000000E+00 -0.00000000000E+00 -0.74505805969E-08  0.93827000000E+00  0.93827000000E+00 0. -1.
     999902    2    1    2    0    0 -0.91975853672E-02 -0.32927343850E-02  0.79377679209E-02  0.10313424730E+01  0.10312656548E+01 0.  0.
     999903    2    3    3    0    0 -0.19096189100E-01  0.22372444703E-01  0.13128191401E+00  0.14231465446E+00  0.46403978371E-01 0.  0.
         14    1    1    2    0    0  0.91975853672E-02  0.32927343850E-02 -0.79377679209E-02  0.12587526996E-01  0.00000000000E+00 0. -1.
     999901    1    3    3    0    0  0.98986037328E-02 -0.25665179087E-01 -0.12334414608E+00  0.88902781854E+00  0.88000000000E+00 0. -1.
        -11    1    4    4    0    0  0.38369549814E-03  0.18908310268E-02  0.10050266681E+00  0.10052248316E+00  0.51100000000E-03 0. -1.
         11    1    4    4    0    0 -0.19479884598E-01  0.20481613676E-01  0.30779247195E-01  0.41792171295E-01  0.51100000000E-03 0.  1.
</event>
<event>
 8    1  0.2190512E+004  0.1043930E+01  0.7957747E-01            NaN
         13   -1    0    0    0    0  0.00000000000E+00  0.00000000000E+00  0.74505805969E-08  0.10566000000E+00  0.10566000000E+00 0. -1.
     999900   -1    0    0    0    0 -0.00000000000E+00 -0.00000000000E+00 -0.74505805969E-08  0.93827000000E+00  0.93827000000E+00 0. -1.
     999902    2    1    2    0    0  0.31886548007E-02  0.65456181172E-02 -0.11805210676E-01  0.10300600456E+01  0.10299666606E+01 0.  0.
     999903    2    3    3    0    0 -0.96817409369E-01  0.89252800284E-01 -0.18795235167E-01  0.14051490830E+00  0.45293547815E-01 0.  0.
         14    1    1    2    0    0 -0.31886548007E-02 -0.65456181172E-02  0.11805210676E-01  0.13869954401E-01  0.00000000000E+00 0.  1.
     999901    1    3    3    0    0  0.10000606417E+00 -0.82707182167E-01  0.69900244904E-02  0.88954513730E+00  0.88000000000E+00 0. -1.
        -11    1    4    4    0    0 -0.70509506883E-02  0.18822032746E-01  0.10544631976E-01  0.22703198163E-01  0.51100000000E-03 0.  1.
         11    1    4    4    0    0 -0.89766458680E-01  0.70430767538E-01 -0.29339867143E-01  0.11781171014E+00  0.51100000000E-03 0. -1.
</event>
<event>
 8    1  0.2190512E+004  0.1043930E+01  0.7957747E-01            NaN
         13   -1    0    0    0    0  0.00000000000E+00  0.00000000000E+00  0.74505805969E-08  0.10566000000E+00  0.10566000000E+00 0.  1.
     999900   -1    0    0    0    0 -0.00000000000E+00 -0.00000000000E+00 -0.74505805969E-08  0.93827000000E+00  0.93827000000E+00 0.  1.
     999902    2    1    2    0    0  0.13384453923E-01 -0.94698278599E-02  0.52950451071E-02  0.10267004106E+01  0.10265558312E+01 0.  0.
     999903    2    3    3    0    0 -0.63198494501E-01  0.98662841638E-01  0.50625805670E-01  0.13562662018E+00  0.45860678967E-01 0.  0.
         14    1    1    2    0    0 -0.13384453923E-01  0.94698278599E-02 -0.52950451071E-02  0.17229589351E-01  0.00000000000E+00 0. -1.
     999901    1    3    3    0    0  0.76582948424E-01 -0.10813266950E+00 -0.45330760563E-01  0.89107379047E+00  0.88000000000E+00 0.  1.
        -11    1    4    4    0    0 -0.45249542599E-01  0.66413743040E-01  0.10405098662E-01  0.81036001685E-01  0.51100000000E-03 0.  1.
         11    1    4    4    0    0 -0.17948951902E-01  0.32249098598E-01  0.40220707008E-01  0.54590618498E-01  0.51100000000E-03 0. -1.
</event>
<event>
 7    1  0.2190512E+004  0.1043930E+01  0.7957747E-01            NaN
         13   -1    0    0    0    0  0.00000000000E+00  0.00000000000E+00  0.74505805969E-08  0.10566000000E+00  0.10566000000E+00 0.  1.
     999900   -1    0    0    0    0 -0.00000000000E+00 -0.00000000000E+00 -0.74505805969E-08  0.93827000000E+00  0.93827000000E+00 0. -1.
     999903    2    1    2    0    0  0.55337860690E-02 -0.91017217806E-01 -0.56302213164E-01  0.11659245872E+00  0.45924998616E-01 0.  0.
         14    1    1    2    0    0 -0.16550174543E-01 -0.14399938827E-01 -0.29579232022E-01  0.36826586628E-01  0.00000000000E+00 0. -1.
     999901    1    1    2    0    0  0.11016388474E-01  0.10541715663E+00  0.85881445186E-01  0.89051095465E+00  0.88000000000E+00 0.  1.
        -11    1    3    3    0    0  0.19296331961E-01 -0.30382191996E-01 -0.36676824926E-01  0.51389460255E-01  0.51100000000E-03 0.  1.
         11    1    3    3    0    0 -0.13762545892E-01 -0.60635025810E-01 -0.19625388238E-01  0.65202998465E-01  0.51100000000E-03 0. -1.
</event>
<event>
 8    1  0.2190512E+004  0.1043930E+01  0.7957747E-01            NaN
         13   -1    0    0    0    0  0.00000000000E+00  0.00000000000E+00  0.74505805969E-08  0.10566000000E+00  0.10566000000E+00 0. -1.
     999900   -1    0    0    0    0 -0.00000000000E+00 -0.00000000000E+00 -0.74505805969E-08  0.93827000000E+00  0.93827000000E+00 0.  1.
     999902    2    1    2    0    0  0.25464616298E-02 -0.43053771727E-03 -0.12177771613E-01  0.10314813876E+01  0.10314062657E+01 0.  0.
     999903    2    3    3    0    0 -0.56895679997E-01 -0.88865699446E-01  0.80081359088E-01  0.14026542429E+00  0.46120865544E-01 0.  0.
         14    1    1    2    0    0 -0.25464616298E-02  0.43053771727E-03  0.12177771613E-01  0.12448612413E-01  0.00000000000E+00 0. -1.
     999901    1    3    3    0    0  0.59442141627E-01  0.88435161729E-01 -0.92259130701E-01  0.89121596329E+00  0.88000000000E+00 0.  1.
        -11    1    4    4    0    0 -0.27646024849E-01 -0.91155730546E-02  0.12366151838E-01  0.31631933142E-01  0.51100000000E-03 0.  1.
         11    1    4    4    0    0 -0.29249655149E-01 -0.79750126391E-01  0.67715207250E-01  0.10863349115E+00  0.51100000000E-03 0. -1.
</event>
<event>
 8    1  0.2190512E+004  0.1043930E+01  0.7957747E-01            NaN
         13   -1    0    0    0    0  0.00000000000E+00  0.00000000000E+00  0.74505805969E-08  0.10566000000E+00  0.10566000000E+00 0.  1.
     999900   -1    0    0    0    0 -0.00000000000E+00 -0.00000000000E+00 -0.74505805969E-08  0.93827000000E+00  0.93827000000E+00 0. -1.
     999902    2    1    2    0    0 -0.28141248028E-02 -0.65716592833E-02  0.10709571632E-01  0.10310536291E+01  0.10309732223E+01 0.  0.
     999903    2    3    3    0    0 -0.48284304600E-01  0.26380277784E-01  0.12265788859E+00  0.14218592626E+00  0.46309684351E-01 0.  0.
         14    1    1    2    0    0  0.28141248028E-02  0.65716592833E-02 -0.10709571632E-01  0.12876370944E-01  0.00000000000E+00 0. -1.
     999901    1    3    3    0    0  0.45470179797E-01 -0.32951937067E-01 -0.11194831696E+00  0.88886770280E+00  0.88000000000E+00 0. -1.
        -11    1    4    4    0    0  0.94523510835E-03  0.18133786209E-01  0.15149046754E-01  0.23653380524E-01  0.51100000000E-03 0. -1.
         11    1    4    4    0    0 -0.49229539708E-01  0.82464915754E-02  0.10750884184E+00  0.11853254573E+00  0.51100000000E-03 0.  1.
</event>
<event>
 8    1  0.2190512E+004  0.1043930E+01  0.7957747E-01            NaN
         13   -1    0    0    0    0  0.00000000000E+00  0.00000000000E+00  0.74505805969E-08  0.10566000000E+00  0.10566000000E+00 0.  1.
     999900   -1    0    0    0    0 -0.00000000000E+00 -0.00000000000E+00 -0.74505805969E-08  0.93827000000E+00  0.93827000000E+00 0. -1.
     999902    2    1    2    0    0  0.10415877968E-01  0.24115164296E-02 -0.91984420227E-02  0.10298261969E+01  0.10297296143E+01 0.  0.
     999903    2    3    3    0    0  0.10250854147E+00 -0.41554598863E-01 -0.75831120356E-01  0.14142651673E+00  0.44903396953E-01 0.  0.
         14    1    1    2    0    0 -0.10415877968E-01 -0.24115164296E-02  0.91984420227E-02  0.14103803068E-01  0.00000000000E+00 0.  1.
     999901    1    3    3    0    0 -0.92092663504E-01  0.43966115292E-01  0.66632678333E-01  0.88839968020E+00  0.88000000000E+00 0.  1.
        -11    1    4    4    0    0  0.68740119813E-01 -0.48273692965E-01 -0.45455306744E-01  0.95509159438E-01  0.51100000000E-03 0. -1.
         11    1    4    4    0    0  0.33768421659E-01  0.67190941016E-02 -0.30375813612E-01  0.45917357290E-01  0.51100000000E-03 0.  1.
</event>
<event>
 8    1  0.2190512E+004  0.1043930E+01  0.7957747E-01            NaN
         13   -1    0    0    0    0  0.00000000000E+00  0.00000000000E+00  0.74505805969E-08  0.10566000000E+00  0.10566000000E+00 0. -1.
     999900   -1    0    0    0    0 -0.00000000000E+00 -0.00000000000E+00 -0.74505805969E-08  0.93827000000E+00  0.93827000000E+00 0. -1.
     999902    2    1    2    0    0 -0.12122849286E-01  0.80789902789E-03 -0.15642967933E-02  0.10316799714E+01  0.10316072413E+01 0.  0.
     999903    2    3    3    0    0  0.11174067801E+00 -0.52735340997E-01  0.47210543925E-01  0.14005895494E+00  0.46050842439E-01 0.  0.
         14    1    1    2    0    0  0.12122849286E-01 -0.80789902789E-03  0.15642967933E-02  0.12250028575E-01  0.00000000000E+00 0. -1.
     999901    1    3    3    0    0 -0.12386352730E+00  0.53543240025E-01 -0.48774840719E-01  0.89162101648E+00  0.88000000000E+00 0. -1.
        -11    1    4    4    0    0  0.76778223856E-01 -0.29028002598E-01  0.52569866423E-01  0.97474984330E-01  0.51100000000E-03 0.  1.
         11    1    4    4    0    0  0.34962454154E-01 -0.23707338399E-01 -0.53593224978E-02  0.42583970612E-01  0.51100000000E-03 0. -1.
</event>
<event>
 8    1  0.2190512E+004  0.1043930E+01  0.7957747E-01            NaN
         13   -1    0    0    0    0  0.00000000000E+00  0.00000000000E+00  0.74505805969E-08  0.10566000000E+00  0.10566000000E+00 0.  1.
     999900   -1    0    0    0    0 -0.00000000000E+00 -0.00000000000E+00 -0.74505805969E-08  0.93827000000E+00  0.93827000000E+00 0. -1.
     999902    2    1    2    0    0  0.25147151037E-02 -0.12772489744E-01  0.23830707275E-02  0.10306959790E+01  0.10306110138E+01 0.  0.
     999903    2    3    3    0    0  0.54497675991E-01 -0.12878650818E-01  0.12150783287E+00  0.14114949427E+00  0.44979661503E-01 0.  0.
         14    1    1    2    0    0 -0.25147151037E-02  0.12772489744E-01 -0.23830707275E-02  0.13234021022E-01  0.00000000000E+00 0. -1.
     999901    1    3    3    0    0 -0.51982960887E-01  0.10616107321E-03 -0.11912476215E+00  0.88954648470E+00  0.88000000000E+00 0. -1.
        -11    1    4    4    0    0  0.18035912357E-01 -0.24785298363E-01  0.35061835715E-01  0.46574656137E-01  0.51100000000E-03 0. -1.
         11    1    4    4    0    0  0.36461763634E-01  0.11906647546E-01  0.86445997158E-01  0.94574838137E-01  0.51100000000E-03 0.  1.
</event>
<event>
 8    1  0.2190512E+004  0.1043930E+01  0.7957747E-01            NaN
         13   -1    0    0    0    0  0.00000000000E+00  0.00000000000E+00  0.74505805969E-08  0.10566000000E+00  0.10566000000E+00 0. -1.
     999900   -1    0    0    0    0 -0.00000000000E+00 -0.00000000000E+00 -0.74505805969E-08  0.93827000000E+00  0.93827000000E+00 0.  1.
     999902    2    1    2    0    0  0.13768485044E-02 -0.11986573005E-01  0.69229894986E-02  0.10300195209E+01  0.10299255857E+01 0.  0.
     999903    2    3    3    0    0 -0.21472338494E-01 -0.11652313139E+00 -0.61461952693E-01  0.14090396168E+00  0.45140373498E-01 0.  0.
         14    1    1    2    0    0 -0.13768485044E-02  0.11986573005E-01 -0.69229894986E-02  0.13910479065E-01  0.00000000000E+00 0. -1.
     999901    1    3    3    0    0  0.22849186999E-01  0.10453655839E+00  0.68384942191E-01  0.88911555925E+00  0.88000000000E+00 0. -1.
        -11    1    4    4    0    0 -0.20223493249E-01 -0.10296866041E+00 -0.68752668604E-01  0.12545407633E+00  0.51100000000E-03 0. -1.
         11    1    4    4    0    0 -0.12488452454E-02 -0.13554470981E-01  0.72907159111E-02  0.15449885356E-01  0.51100000000E-03 0.  1.
</event>
<event>
 8    1  0.2190512E+004  0.1043930E+01  0.7957747E-01            NaN
         13   -1    0    0    0    0  0.00000000000E+00  0.00000000000E+00  0.74505805969E-08  0.10566000000E+00  0.10566000000E+00 0.  1.
     999900   -1    0    0    0    0 -0.00000000000E+00 -0.00000000000E+00 -0.74505805969E-08  0.93827000000E+00  0.93827000000E+00 0. -1.
     999902    2    1    2    0    0  0.93840678789E-02  0.11540742244E-01 -0.35239704286E-03  0.10290513695E+01  0.10289438019E+01 0.  0.
     999903    2    3    3    0    0 -0.66079316471E-01  0.11456947425E+00  0.21803118878E-02  0.13982920570E+00  0.45330039846E-01 0.  0.
         14    1    1    2    0    0 -0.93840678789E-02 -0.11540742244E-01  0.35239704286E-03  0.14878630487E-01  0.00000000000E+00 0.  1.
     999901    1    3    3    0    0  0.75463384350E-01 -0.10302873201E+00 -0.25327089307E-02  0.88922216381E+00  0.88000000000E+00 0. -1.
        -11    1    4    4    0    0 -0.34902312438E-01  0.98882707554E-01  0.10686569547E-03  0.10486292866E+00  0.51100000000E-03 0.  1.
         11    1    4    4    0    0 -0.31177004033E-01  0.15686766696E-01  0.20734461924E-02  0.34966277039E-01  0.51100000000E-03 0. -1.
</event>
<event>
 8    1  0.2190512E+004  0.1043930E+01  0.7957747E-01            NaN
         13   -1    0    0    0    0  0.00000000000E+00  0.00000000000E+00  0.74505805969E-08  0.10566000000E+00  0.10566000000E+00 0.  1.
     999900   -1    0    0    0    0 -0.00000000000E+00 -0.00000000000E+00 -0.74505805969E-08  0.93827000000E+00  0.93827000000E+00 0. -1.
     999902    2    1    2    0    0  0.11061840005E-01  0.14187616278E-02  0.82383610783E-02  0.10300646554E+01  0.10299713328E+01 0.  0.
     999903    2    3    3    0    0  0.12208504975E+00 -0.30675002816E-01  0.46537358463E-01  0.14168243130E+00  0.45414429818E-01 0.  0.
         14    1    1    2    0    0 -0.11061840005E-01 -0.14187616278E-02 -0.82383610783E-02  0.13865344644E-01  0.00000000000E+00 0. -1.
     999901    1    3    3    0    0 -0.11102320975E+00  0.32093764443E-01 -0.38298997385E-01  0.88838222406E+00  0.88000000000E+00 0. -1.
        -11    1    4    4    0    0  0.32167480782E-01 -0.12385189771E-01 -0.73794698523E-02  0.35254183324E-01  0.51100000000E-03 0.  1.
         11    1    4    4    0    0  0.89917568969E-01 -0.18289813044E-01  0.53916828316E-01  0.10642824798E+00  0.51100000000E-03 0. -1.
</event>
<event>
 8    1  0.2190512E+004  0.1043930E+01  0.7957747E-01            NaN
         13   -1    0    0    0    0  0.00000000000E+00  0.00000000000E+00  0.74505805969E-08  0.10566000000E+00  0.10566000000E+00 0. -1.
     999900   -1    0    0    0    0 -0.00000000000E+00 -0.00000000000E+00 -0.74505805969E-08  0.93827000000E+00  0.93827000000E+00 0.  1.
     999902    2    1    2    0    0  0.10092412666E-01  0.96083770208E-02 -0.10270023205E-02  0.10299574399E+01  0.10298626586E+01 0.  0.
     999903    2    3    3    0    0 -0.28092568147E-01  0.11337631806E+00 -0.64292937741E-01  0.14078453379E+00  0.45203110848E-01 0.  0.
         14    1    1    2    0    0 -0.10092412666E-01 -0.96083770208E-02  0.10270023205E-02  0.13972560115E-01  0.00000000000E+00 0.  1.
     999901    1    3    3    0    0  0.38184980813E-01 -0.10376794104E+00  0.63265935420E-01  0.88917290609E+00  0.88000000000E+00 0.  1.
        -11    1    4    4    0    0 -0.28872775961E-01  0.10683169542E+00 -0.43401642711E-01  0.11887225096E+00  0.51100000000E-03 0.  1.
         11    1    4    4    0    0  0.78020781406E-03  0.65446226348E-02 -0.20891295030E-01  0.21912282827E-01  0.51100000000E-03 0. -1.
</event>
<event>
 8    1  0.2190512E+004  0.1043930E+01  0.7957747E-01            NaN
         13   -1    0    0    0    0  0.00000000000E+00  0.00000000000E+00  0.74505805969E-08  0.10566000000E+00  0.10566000000E+00 0. -1.
     999900   -1    0    0    0    0 -0.00000000000E+00 -0.00000000000E+00 -0.74505805969E-08  0.93827000000E+00  0.93827000000E+00 0. -1.
     999902    2    1    2    0    0 -0.13755717989E-01  0.26377218948E-02  0.60161920486E-02  0.10286862498E+01  0.10285732976E+01 0.  0.
     999903    2    3    3    0    0 -0.71445492939E-01 -0.13642143065E-01  0.11123228194E+00  0.14039374744E+00  0.45246184866E-01 0.  0.
         14    1    1    2    0    0  0.13755717989E-01 -0.26377218948E-02 -0.60161920486E-02  0.15243750226E-01  0.00000000000E+00 0.  1.
     999901    1    3    3    0    0  0.57689774950E-01  0.16279864960E-01 -0.10521608989E+00  0.88829250234E+00  0.88000000000E+00 0.  1.
        -11    1    4    4    0    0 -0.26358119822E-01 -0.20966615507E-01  0.22245843192E-01  0.40366918469E-01  0.51100000000E-03 0. -1.
         11    1    4    4    0    0 -0.45087373117E-01  0.73244724416E-02  0.88986438749E-01  0.10002682897E+00  0.51100000000E-03 0.  1.
</event>
<event>
 8    1  0.2190512E+004  0.1043930E+01  0.7957747E-01            NaN
         13   -1    0    0    0    0  0.00000000000E+00  0.00000000000E+00  0.74505805969E-08  0.10566000000E+00  0.10566000000E+00 0. -1.
     999900   -1    0    0    0    0 -0.00000000000E+00 -0.00000000000E+00 -0.74505805969E-08  0.93827000000E+00  0.93827000000E+00 0. -1.
     999902    2    1    2    0    0  0.32304190540E-02 -0.11768752264E-02 -0.13192871800E-01  0.10302964932E+01  0.10302062858E+01 0.  0.
     999903    2    3    3    0    0  0.33117829596E-01 -0.38591801587E-01  0.12098781803E+00  0.13883836652E+00  0.45298146952E-01 0.  0.
         14    1    1    2    0    0 -0.32304190540E-02  0.11768752264E-02  0.13192871800E-01  0.13633506845E-01  0.00000000000E+00 0. -1.
     999901    1    3    3    0    0 -0.29887410542E-01  0.37414926361E-01 -0.13418068984E+00  0.89145812664E+00  0.88000000000E+00 0. -1.
        -11    1    4    4    0    0  0.34103015127E-01 -0.49752512400E-02  0.61494815250E-01  0.70495689154E-01  0.51100000000E-03 0. -1.
         11    1    4    4    0    0 -0.98518553020E-03 -0.33616550348E-01  0.59493002785E-01  0.68342677363E-01  0.51100000000E-03 0.  1.
</event>
<event>
 7    1  0.2190512E+004  0.1043930E+01  0.7957747E-01            NaN
         13   -1    0    0    0    0  0.00000000000E+00  0.00000000000E+00  0.74505805969E-08  0.10566000000E+00  0.10566000000E+00 0.  1.
     999900   -1    0    0    0    0 -0.00000000000E+00 -0.00000000000E+00 -0.74505805969E-08  0.93827000000E+00  0.93827000000E+00 0. -1.
     999903    2    1    2    0    0  0.23333207909E-01  0.36826517950E-01 -0.32395301564E-01  0.70900881965E-01  0.45572453131E-01 0.  0.
         14    1    1    2    0    0 -0.67206097187E-01  0.13871310714E-01 -0.52504135289E-01  0.86404612044E-01  0.00000000000E+00 0. -1.
     999901    1    1    2    0    0  0.43872889278E-01 -0.50697828664E-01  0.84899436854E-01  0.88662450599E+00  0.88000000000E+00 0.  1.
        -11    1    3    3    0    0  0.92777343131E-02  0.55626810542E-02 -0.34886403469E-01  0.36528646874E-01  0.51100000000E-03 0.  1.
         11    1    3    3    0    0  0.14055473596E-01  0.31263836896E-01  0.24911019045E-02  0.34372235091E-01  0.51100000000E-03 0. -1.
</event>
<event>
 8    1  0.2190512E+004  0.1043930E+01  0.7957747E-01            NaN
         13   -1    0    0    0    0  0.00000000000E+00  0.00000000000E+00  0.74505805969E-08  0.10566000000E+00  0.10566000000E+00 0. -1.
     999900   -1    0    0    0    0 -0.00000000000E+00 -0.00000000000E+00 -0.74505805969E-08  0.93827000000E+00  0.93827000000E+00 0. -1.
     999902    2    1    2    0    0  0.13995633776E-01  0.14270601502E-02  0.28760008188E-03  0.10298588601E+01  0.10297627274E+01 0.  0.
     999903    2    3    3    0    0  0.12316074473E+00  0.49562526121E-01  0.19131344122E-01  0.14160825847E+00  0.45407901297E-01 0.  0.
         14    1    1    2    0    0 -0.13995633776E-01 -0.14270601502E-02 -0.28760008188E-03  0.14071139942E-01  0.00000000000E+00 0.  1.
     999901    1    3    3    0    0 -0.10916511096E+00 -0.48135465970E-01 -0.18843744041E-01  0.88825060159E+00  0.88000000000E+00 0.  1.
        -11    1    4    4    0    0  0.47234396299E-01  0.13646475520E-01  0.28923554424E-01  0.57045136597E-01  0.51100000000E-03 0.  1.
         11    1    4    4    0    0  0.75926348433E-01  0.35916050601E-01 -0.97922103015E-02  0.84563121872E-01  0.51100000000E-03 0. -1.
</event>
<event>
 8    1  0.2190512E+004  0.1043930E+01  0.7957747E-01            NaN
         13   -1    0    0    0    0  0.00000000000E+00  0.00000000000E+00  0.74505805969E-08  0.10566000000E+00  0.10566000000E+00 0. -1.
     999900   -1    0    0    0    0 -0.00000000000E+00 -0.00000000000E+00 -0.74505805969E-08  0.93827000000E+00  0.93827000000E+00 0.  1.
     999902    2    1    2    0    0  0.37576222591E-02 -0.70995720835E-02  0.87431334353E-02  0.10320570883E+01  0.10319887924E+01 0.  0.
     999903    2    3    3    0    0 -0.59314921561E-01 -0.10129170023E+00  0.69767928115E-01  0.14268971299E+00  0.41406786199E-01 0.  0.
         14    1    1    2    0    0 -0.37576222591E-02  0.70995720835E-02 -0.87431334353E-02  0.11872911651E-01  0.00000000000E+00 0.  1.
     999901    1    3    3    0    0  0.63072543821E-01  0.94192128150E-01 -0.61024794679E-01  0.88936737536E+00  0.88000000000E+00 0.  1.
        -11    1    4    4    0    0  0.37912267629E-02 -0.23589515094E-01  0.18510857733E-01  0.30228324428E-01  0.51100000000E-03 0.  1.
         11    1    4    4    0    0 -0.63106148324E-01 -0.77702185139E-01  0.51257070382E-01  0.11246138856E+00  0.51100000000E-03 0. -1.
</event>
<event>
 8    1  0.2190512E+004  0.1043930E+01  0.7957747E-01            NaN
         13   -1    0    0    0    0  0.00000000000E+00  0.00000000000E+00  0.74505805969E-08  0.10566000000E+00  0.10566000000E+00 0. -1.
     999900   -1    0    0    0    0 -0.00000000000E+00 -0.00000000000E+00 -0.74505805969E-08  0.93827000000E+00  0.93827000000E+00 0. -1.
     999902    2    1    2    0    0  0.13546516080E-02 -0.22178995066E-02 -0.14084595854E-01  0.10296076399E+01  0.10295080194E+01 0.  0.
     999903    2    3    3    0    0 -0.11290134840E+00 -0.48901432700E-01  0.44647474048E-01  0.13905542813E+00  0.46956901115E-01 0.  0.
         14    1    1    2    0    0 -0.13546516080E-02  0.22178995066E-02  0.14084595854E-01  0.14322360126E-01  0.00000000000E+00 0. -1.
     999901    1    3    3    0    0  0.11425600001E+00  0.46683533194E-01 -0.58732069903E-01  0.89055221175E+00  0.88000000000E+00 0. -1.
        -11    1    4    4    0    0 -0.53705516808E-01 -0.12028653710E-02  0.30341659976E-01  0.61697705563E-01  0.51100000000E-03 0.  1.
         11    1    4    4    0    0 -0.59195831592E-01 -0.47698567329E-01  0.14305814073E-01  0.77357722565E-01  0.51100000000E-03 0. -1.
</event>
<event>
 8    1  0.2190512E+004  0.1043930E+01  0.7957747E-01            NaN
         13   -1    0    0    0    0  0.00000000000E+00  0.00000000000E+00  0.74505805969E-08  0.10566000000E+00  0.10566000000E+00 0.  1.
     999900   -1    0    0    0    0 -0.00000000000E+00 -0.00000000000E+00 -0.74505805969E-08  0.93827000000E+00  0.93827000000E+00 0. -1.
     999902    2    1    2    0    0 -0.61194689389E-02  0.10889405801E-01  0.60085490361E-02  0.10300689135E+01  0.10299756486E+01 0.  0.
     999903    2    3    3    0    0 -0.98420727381E-01 -0.41269158046E-01  0.79832738872E-01  0.14063648257E+00  0.44895111659E-01 0.  0.
         14    1    1    2    0    0  0.61194689389E-02 -0.10889405801E-01 -0.60085490361E-02  0.13861086549E-01  0.00000000000E+00 0. -1.
     999901    1    3    3    0    0  0.92301258442E-01  0.52158563847E-01 -0.73824189836E-01  0.88943243088E+00  0.88000000000E+00 0. -1.
        -11    1    4    4    0    0 -0.66717543848E-02 -0.19083190432E-01  0.69634434473E-02  0.21387639638E-01  0.51100000000E-03 0.  1.
         11    1    4    4    0    0 -0.91748972996E-01 -0.22185967614E-01  0.72869295425E-01  0.11924884294E+00  0.51100000000E-03 0. -1.
</event>
<event>
 8    1  0.2190512E+004  0.1043930E+01  0.7957747E-01            NaN
         13   -1    0    0    0    0  0.00000000000E+00  0.00000000000E+00  0.74505805969E-08  0.10566000000E+00  0.10566000000E+00 0. -1.
     999900   -1    0    0    0    0 -0.00000000000E+00 -0.00000000000E+00 -0.74505805969E-08  0.93827000000E+00  0.93827000000E+00 0. -1.
     999902    2    1    2    0    0  0.27707771251E-02  0.12043572060E-01  0.58674824848E-02  0.10302496424E+01  0.10301588098E+01 0.  0.
     999903    2    3    3    0    0 -0.14892879806E-01 -0.11105232893E-01  0.13234686890E+00  0.14073016135E+00  0.44092635891E-01 0.  0.
         14    1    1    2    0    0 -0.27707771251E-02 -0.12043572060E-01 -0.58674824848E-02  0.13680357618E-01  0.00000000000E+00 0.  1.
     999901    1    3    3    0    0  0.17663656931E-01  0.23148804953E-01 -0.12647938641E+00  0.88951948103E+00  0.88000000000E+00 0. -1.
        -11    1    4    4    0    0 -0.78572876623E-02  0.12257769355E-01  0.95038802323E-01  0.96148972678E-01  0.51100000000E-03 0.  1.
         11    1    4    4    0    0 -0.70355921435E-02 -0.23363002248E-01  0.37308066576E-01  0.44581188673E-01  0.51100000000E-03 0. -1.
</event>
<event>
 8    1  0.2190512E+004  0.1043930E+01  0.7957747E-01            NaN
         13   -1    0    0    0    0  0.00000000000E+00  0.00000000000E+00  0.74505805969E-08  0.10566000000E+00  0.10566000000E+00 0.  1.
     999900   -1    0    0    0    0 -0.00000000000E+00 -0.00000000000E+00 -0.74505805969E-08  0.93827000000E+00  0.93827000000E+00 0. -1.
     999902    2    1    2    0    0  0.10152445058E-01  0.60306497066E-02 -0.84326964166E-02  0.10294196159E+01  0.10293173439E+01 0.  0.
     999903    2    3    3    0    0  0.91792594641E-01 -0.84458181642E-01  0.42904620326E-01  0.13953824030E+00  0.45508781401E-01 0.  0.
         14    1    1    2    0    0 -0.10152445058E-01 -0.60306497066E-02  0.84326964166E-02  0.14510384054E-01  0.00000000000E+00 0.  1.
     999901    1    3    3    0    0 -0.81640149583E-01  0.90488831349E-01 -0.51337316743E-01  0.88988137564E+00  0.88000000000E+00 0.  1.
        -11    1    4    4    0    0  0.88432524597E-01 -0.59448017732E-01  0.41182957313E-01  0.11423955231E+00  0.51100000000E-03 0. -1.
         11    1    4    4    0    0  0.33600700444E-02 -0.25010163910E-01  0.17216630136E-02  0.25298687991E-01  0.51100000000E-03 0.  1.
</event>
<event>
 8    1  0.2190512E+004  0.1043930E+01  0.7957747E-01            NaN
         13   -1    0    0    0    0  0.00000000000E+00  0.00000000000E+00  0.74505805969E-08  0.10566000000E+00  0.10566000000E+00 0.  1.
     999900   -1    0    0    0    0 -0.00000000000E+00 -0.00000000000E+00 -0.74505805969E-08  0.93827000000E+00  0.93827000000E+00 0.  1.
     999902    2    1    2    0    0  0.11288918386E-01 -0.76404718934E-02  0.11135445004E-02  0.10302531411E+01  0.10301623553E+01 0.  0.
     999903    2    3    3    0    0  0.51721379243E-02  0.13159318171E+00 -0.10099649788E-01  0.13921489215E+00  0.43991667244E-01 0.  0.
         14    1    1    2    0    0 -0.11288918386E-01  0.76404718934E-02 -0.11135445004E-02  0.13676858939E-01  0.00000000000E+00 0.  1.
     999901    1    3    3    0    0  0.61167804613E-02 -0.13923365360E+00  0.11213194289E-01  0.89103824891E+00  0.88000000000E+00 0.  1.
        -11    1    4    4    0    0  0.16335254562E-01  0.72885143469E-01 -0.22841747611E-01  0.78109482363E-01  0.51100000000E-03 0. -1.
         11    1    4    4    0    0 -0.11163116638E-01  0.58708038241E-01  0.12742097823E-01  0.61105409786E-01  0.51100000000E-03 0.  1.
</event>
<event>
 8    1  0.2190512E+004  0.1043930E+01  0.7957747E-01            NaN
         13   -1    0    0    0    0  0.00000000000E+00  0.00000000000E+00  0.74505805969E-08  0.10566000000E+00  0.10566000000E+00 0. -1.
     999900   -1    0    0    0    0 -0.00000000000E+00 -0.00000000000E+00 -0.74505805969E-08  0.93827000000E+00  0.93827000000E+00 0. -1.
     999902    2    1    2    0    0 -0.68828630415E-02 -0.94062538423E-02  0.36992240967E-02  0.10317015220E+01  0.10316290491E+01 0.  0.
     999903    2    3    3    0    0  0.95905742921E-01  0.78745451638E-01  0.47036906816E-01  0.14029007075E+00  0.45498084240E-01 0.  0.
         14    1    1    2    0    0  0.68828630415E-02  0.94062538423E-02 -0.36992240967E-02  0.12228477988E-01  0.00000000000E+00 0. -1.
     999901    1    3    3    0    0 -0.10278860596E+00 -0.88151705480E-01 -0.43337682720E-01  0.89141145126E+00  0.88000000000E+00 0.  1.
        -11    1    4    4    0    0  0.41171433896E-01  0.80131270336E-02  0.79961173786E-02  0.42702414311E-01  0.51100000000E-03 0. -1.
         11    1    4    4    0    0  0.54734309026E-01  0.70732324605E-01  0.39040789438E-01  0.97587656440E-01  0.51100000000E-03 0.  1.
</event>
<event>
 8    1  0.2190512E+004  0.1043930E+01  0.7957747E-01            NaN
         13   -1    0    0    0    0  0.00000000000E+00  0.00000000000E+00  0.74505805969E-08  0.10566000000E+00  0.10566000000E+00 0. -1.
     999900   -1    0    0    0    0 -0.00000000000E+00 -0.00000000000E+00 -0.74505805969E-08  0.93827000000E+00  0.93827000000E+00 0.  1.
     999902    2    1    2    0    0  0.50634402201E-02 -0.81062128466E-02  0.90164525339E-02  0.10307905354E+01  0.10307067878E+01 0.  0.
     999903    2    3    3    0    0  0.20203316263E-01  0.16563098729E-01  0.13198068558E+00  0.14176972947E+00  0.44690542628E-01 0.  0.
         14    1    1    2    0    0 -0.50634402201E-02  0.81062128466E-02 -0.90164525339E-02  0.13139464596E-01  0.00000000000E+00 0.  1.
     999901    1    3    3    0    0 -0.15139876043E-01 -0.24669311576E-01 -0.12296423304E+00  0.88902080594E+00  0.88000000000E+00 0.  1.
        -11    1    4    4    0    0  0.88880811514E-02  0.30676570933E-01  0.65553922565E-01  0.72922067136E-01  0.51100000000E-03 0.  1.
         11    1    4    4    0    0  0.11315235111E-01 -0.14113472203E-01  0.66426763012E-01  0.68847662332E-01  0.51100000000E-03 0. -1.
</event>
<event>
 8    1  0.2190512E+004  0.1043930E+01  0.7957747E-01            NaN
         13   -1    0    0    0    0  0.00000000000E+00  0.00000000000E+00  0.74505805969E-08  0.10566000000E+00  0.10566000000E+00 0. -1.
     999900   -1    0    0    0    0 -0.00000000000E+00 -0.00000000000E+00 -0.74505805969E-08  0.93827000000E+00  0.93827000000E+00 0.  1.
     999902    2    1    2    0    0  0.38559182859E-02 -0.18013035221E-01  0.28650235757E-02  0.10252874169E+01  0.10251179158E+01 0.  0.
     999903    2    3    3    0    0 -0.81824172091E-02  0.12515908256E+00 -0.40282188976E-02  0.13360883491E+00  0.45862253746E-01 0.  0.
         14    1    1    2    0    0 -0.38559182859E-02  0.18013035221E-01 -0.28650235757E-02  0.18642583077E-01  0.00000000000E+00 0.  1.
     999901    1    3    3    0    0  0.12038335495E-01 -0.14317211778E+00  0.68932424734E-02  0.89167858201E+00  0.88000000000E+00 0. -1.
        -11    1    4    4    0    0 -0.21587826914E-01  0.44045517708E-01 -0.13425460043E-01  0.50858096694E-01  0.51100000000E-03 0. -1.
         11    1    4    4    0    0  0.13405409704E-01  0.81113564855E-01  0.93972411450E-02  0.82750738214E-01  0.51100000000E-03 0.  1.
</event>
<event>
 8    1  0.2190512E+004  0.1043930E+01  0.7957747E-01            NaN
         13   -1    0    0    0    0  0.00000000000E+00  0.00000000000E+00  0.74505805969E-08  0.10566000000E+00  0.10566000000E+00 0.  1.
     999900   -1    0    0    0    0 -0.00000000000E+00 -0.00000000000E+00 -0.74505805969E-08  0.93827000000E+00  0.93827000000E+00 0.  1.
     999902    2    1    2    0    0  0.13221948955E-01 -0.10247019741E-02  0.44734053717E-02  0.10299342398E+01  0.10298391413E+01 0.  0.
     999903    2    3    3    0    0 -0.20394046182E-01 -0.20096880205E-01  0.12939033958E+00  0.14027249308E+00  0.45985982914E-01 0.  0.
         14    1    1    2    0    0 -0.13221948955E-01  0.10247019741E-02 -0.44734053717E-02  0.13995760213E-01  0.00000000000E+00 0. -1.
     999901    1    3    3    0    0  0.33615995137E-01  0.19072178231E-01 -0.12491693420E+00  0.88966174671E+00  0.88000000000E+00 0.  1.
        -11    1    4    4    0    0  0.52710506869E-03 -0.24131470319E-02  0.10022378995E+00  0.10025552509E+00  0.51100000000E-03 0.  1.
         11    1    4    4    0    0 -0.20921151250E-01 -0.17683733173E-01  0.29166549622E-01  0.40016967982E-01  0.51100000000E-03 0. -1.
</event>
<event>
 8    1  0.2190512E+004  0.1043930E+01  0.7957747E-01            NaN
         13   -1    0    0    0    0  0.00000000000E+00  0.00000000000E+00  0.74505805969E-08  0.10566000000E+00  0.10566000000E+00 0.  1.
     999900   -1    0    0    0    0 -0.00000000000E+00 -0.00000000000E+00 -0.74505805969E-08  0.93827000000E+00  0.93827000000E+00 0.  1.
     999902    2    1    2    0    0  0.26724487416E-02 -0.10277533213E-01 -0.93038108437E-02  0.10298115522E+01  0.10297147676E+01 0.  0.
     999903    2    3    3    0    0  0.97135775650E-02  0.94409771689E-01 -0.91838442103E-01  0.13974359153E+00  0.45677273857E-01 0.  0.
         14    1    1    2    0    0 -0.26724487416E-02  0.10277533213E-01  0.93038108437E-02  0.14118447770E-01  0.00000000000E+00 0.  1.
     999901    1    3    3    0    0 -0.70411288234E-02 -0.10468730490E+00  0.82534631259E-01  0.89006796070E+00  0.88000000000E+00 0.  1.
        -11    1    4    4    0    0  0.21285482645E-01  0.46945004426E-01 -0.25933255539E-01  0.57703553407E-01  0.51100000000E-03 0. -1.
         11    1    4    4    0    0 -0.11571905080E-01  0.47464767263E-01 -0.65905186564E-01  0.82040038125E-01  0.51100000000E-03 0.  1.
</event>
<event>
 8    1  0.2190512E+004  0.1043930E+01  0.7957747E-01            NaN
         13   -1    0    0    0    0  0.00000000000E+00  0.00000000000E+00  0.74505805969E-08  0.10566000000E+00  0.10566000000E+00 0.  1.
     999900   -1    0    0    0    0 -0.00000000000E+00 -0.00000000000E+00 -0.74505805969E-08  0.93827000000E+00  0.93827000000E+00 0. -1.
     999902    2    1    2    0    0 -0.56127838321E-02 -0.12091134734E-01 -0.43283750224E-02  0.10299145189E+01  0.10298191504E+01 0.  0.
     999903    2    3    3    0    0 -0.32680541432E-01  0.12668701474E+00 -0.53564421207E-02  0.13862719414E+00  0.45510328398E-01 0.  0.
         14    1    1    2    0    0  0.56127838321E-02  0.12091134734E-01  0.43283750224E-02  0.14015481149E-01  0.00000000000E+00 0.  1.
     999901    1    3    3    0    0  0.27067757600E-01 -0.13877814947E+00  0.10280670983E-02  0.89128732471E+00  0.88000000000E+00 0. -1.
        -11    1    4    4    0    0 -0.34335334181E-01  0.75458295124E-01 -0.20070298370E-01  0.85299164557E-01  0.51100000000E-03 0.  1.
         11    1    4    4    0    0  0.16547927495E-02  0.51228719613E-01  0.14713856250E-01  0.53328029581E-01  0.51100000000E-03 0. -1.
</event>
<event>
 8    1  0.2190512E+004  0.1043930E+01  0.7957747E-01            NaN
         13   -1    0    0    0    0  0.00000000000E+00  0.00000000000E+00  0.74505805969E-08  0.10566000000E+00  0.10566000000E+00 0.  1.
     999900   -1    0    0    0    0 -0.00000000000E+00 -0.00000000000E+00 -0.74505805969E-08  0.93827000000E+00  0.93827000000E+00 0. -1.
     999902    2    1    2    0    0 -0.13896545277E-01  0.12071783375E-02 -0.20597024554E-02  0.10298298715E+01  0.10297333395E+01 0.  0.
     999903    2    3    3    0    0 -0.81027525846E-01  0.94441902423E-01  0.48722400580E-01  0.14091024389E+00  0.44688831219E-01 0.  0.
         14    1    1    2    0    0  0.13896545277E-01 -0.12071783375E-02  0.20597024554E-02  0.14100128523E-01  0.00000000000E+00 0. -1.
     999901    1    3    3    0    0  0.67130980570E-01 -0.93234724085E-01 -0.50782103036E-01  0.88891962759E+00  0.88000000000E+00 0. -1.
        -11    1    4    4    0    0 -0.32338889773E-01  0.15195241013E-01  0.28546792622E-01  0.45737070645E-01  0.51100000000E-03 0. -1.
         11    1    4    4    0    0 -0.48688636073E-01  0.79246661410E-01  0.20175607958E-01  0.95173173241E-01  0.51100000000E-03 0.  1.
</event>
<event>
 8    1  0.2190512E+004  0.1043930E+01  0.7957747E-01            NaN
         13   -1    0    0    0    0  0.00000000000E+00  0.00000000000E+00  0.74505805969E-08  0.10566000000E+00  0.10566000000E+00 0. -1.
     999900   -1    0    0    0    0 -0.00000000000E+00 -0.00000000000E+00 -0.74505805969E-08  0.93827000000E+00  0.93827000000E+00 0.  1.
     999902    2    1    2    0    0  0.88172990587E-02  0.37581461523E-02 -0.82674853718E-02  0.10312722064E+01  0.10311945228E+01 0.  0.
     999903    2    3    3    0    0 -0.97026601500E-01  0.49097780282E-01  0.75177317780E-01  0.13985667539E+00  0.45645450089E-01 0.  0.
         14    1    1    2    0    0 -0.88172990587E-02 -0.37581461523E-02  0.82674853718E-02  0.12657793629E-01  0.00000000000E+00 0. -1.
     999901    1    3    3    0    0  0.10584390056E+00 -0.45339634130E-01 -0.83444803152E-01  0.89141553099E+00  0.88000000000E+00 0.  1.
        -11    1    4    4    0    0 -0.67319616845E-01  0.91292453641E-02  0.39403456441E-01  0.78537681616E-01  0.51100000000E-03 0. -1.
         11    1    4    4    0    0 -0.29706984656E-01  0.39968534918E-01  0.35773861339E-01  0.61318993770E-01  0.51100000000E-03 0.  1.
</event>
<event>
 8    1  0.2190512E+004  0.1043930E+01  0.7957747E-01            NaN
         13   -1    0    0    0    0  0.00000000000E+00  0.00000000000E+00  0.74505805969E-08  0.10566000000E+00  0.10566000000E+00 0.  1.
     999900   -1    0    0    0    0 -0.00000000000E+00 -0.00000000000E+00 -0.74505805969E-08  0.93827000000E+00  0.93827000000E+00 0. -1.
     999902    2    1    2    0    0 -0.64968714263E-02 -0.18384449198E-01  0.67695230575E-02  0.10232896571E+01  0.10230814722E+01 0.  0.
     999903    2    3    3    0    0  0.12424463803E+00  0.15290652233E-01 -0.12979216888E-02  0.13295688879E+00  0.44780749771E-01 0.  0.
         14    1    1    2    0    0  0.64968714263E-02  0.18384449198E-01 -0.67695230575E-02  0.20640342853E-01  0.00000000000E+00 0. -1.
     999901    1    3    3    0    0 -0.13074150946E+00 -0.33675101432E-01  0.80674447463E-02  0.89033276836E+00  0.88000000000E+00 0. -1.
        -11    1    4    4    0    0  0.21091829670E-01  0.20045321167E-01  0.48803882760E-02  0.29508634164E-01  0.51100000000E-03 0.  1.
         11    1    4    4    0    0  0.10315280836E+00 -0.47546689341E-02 -0.61783099647E-02  0.10344825462E+00  0.51100000000E-03 0. -1.
</event>
<event>
 8    1  0.2190512E+004  0.1043930E+01  0.7957747E-01            NaN
         13   -1    0    0    0    0  0.00000000000E+00  0.00000000000E+00  0.74505805969E-08  0.10566000000E+00  0.10566000000E+00 0.  1.
     999900   -1    0    0    0    0 -0.00000000000E+00 -0.00000000000E+00 -0.74505805969E-08  0.93827000000E+00  0.93827000000E+00 0.  1.
     999902    2    1    2    0    0  0.14928771356E-01 -0.21812896270E-02  0.24719362078E-02  0.10286415499E+01  0.10285279293E+01 0.  0.
     999903    2    3    3    0    0  0.67283026393E-01 -0.14016239136E-01 -0.11297066305E+00  0.13948013158E+00  0.44372015917E-01 0.  0.
         14    1    1    2    0    0 -0.14928771356E-01  0.21812896270E-02 -0.24719362078E-02  0.15288450126E-01  0.00000000000E+00 0. -1.
     999901    1    3    3    0    0 -0.52354255036E-01  0.11834949509E-01  0.11544259926E+00  0.88916141829E+00  0.88000000000E+00 0. -1.
        -11    1    4    4    0    0  0.50253137176E-01  0.19578488274E-02 -0.44565329867E-01  0.67197773142E-01  0.51100000000E-03 0. -1.
         11    1    4    4    0    0  0.17029889216E-01 -0.15974087963E-01 -0.68405333184E-01  0.72282358442E-01  0.51100000000E-03 0.  1.
</event>
<event>
 8    1  0.2190512E+004  0.1043930E+01  0.7957747E-01            NaN
         13   -1    0    0    0    0  0.00000000000E+00  0.00000000000E+00  0.74505805969E-08  0.10566000000E+00  0.10566000000E+00 0.  1.
     999900   -1    0    0    0    0 -0.00000000000E+00 -0.00000000000E+00 -0.74505805969E-08  0.93827000000E+00  0.93827000000E+00 0.  1.
     999902    2    1    2    0    0  0.12006692606E-01 -0.29871849192E-02  0.62519282575E-02  0.10300674408E+01  0.10299741560E+01 0.  0.
     999903    2    3    3    0    0 -0.10696905134E-01 -0.73866216925E-01 -0.10886513470E+00  0.13945460194E+00  0.45003629488E-01 0.  0.
         14    1    1    2    0    0 -0.12006692606E-01  0.29871849192E-02 -0.62519282575E-02  0.13862559216E-01  0.00000000000E+00 0. -1.
     999901    1    3    3    0    0  0.22703597740E-01  0.70879032006E-01  0.11511706296E+00  0.89061283884E+00  0.88000000000E+00 0. -1.
        -11    1    4    4    0    0 -0.27269601763E-01 -0.55098920755E-01 -0.69407777195E-01  0.92721210653E-01  0.51100000000E-03 0. -1.
         11    1    4    4    0    0  0.16572696629E-01 -0.18767296170E-01 -0.39457357505E-01  0.46733391289E-01  0.51100000000E-03 0.  1.
</event>
<event>
 8    1  0.2190512E+004  0.1043930E+01  0.7957747E-01            NaN
         13   -1    0    0    0    0  0.00000000000E+00  0.00000000000E+00  0.74505805969E-08  0.10566000000E+00  0.10566000000E+00 0. -1.
     999900   -1    0    0    0    0 -0.00000000000E+00 -0.00000000000E+00 -0.74505805969E-08  0.93827000000E+00  0.93827000000E+00 0. -1.
     999902    2    1    2    0    0 -0.48870397170E-02  0.11471649228E-01 -0.18391638026E-02  0.10313258572E+01  0.10312488348E+01 0.  0.
     999903    2    3    3    0    0  0.80378215840E-01 -0.78746576616E-01 -0.69708512346E-01  0.14002582880E+00  0.45675760839E-01 0.  0.
         14    1    1    2    0    0  0.48870397170E-02 -0.11471649228E-01  0.18391638026E-02  0.12604142839E-01  0.00000000000E+00 0. -1.
     999901    1    3    3    0    0 -0.85265255557E-01  0.90218225844E-01  0.67869348543E-01  0.89130002836E+00  0.88000000000E+00 0.  1.
        -11    1    4    4    0    0  0.62102182994E-01 -0.74676027616E-01 -0.40291243573E-01  0.10515148911E+00  0.51100000000E-03 0. -1.
         11    1    4    4    0    0  0.18276032845E-01 -0.40705490001E-02 -0.29417268773E-01  0.34874339689E-01  0.51100000000E-03 0.  1.
</event>
<event>
 8    1  0.2190512E+004  0.1043930E+01  0.7957747E-01            NaN
         13   -1    0    0    0    0  0.00000000000E+00  0.00000000000E+00  0.74505805969E-08  0.10566000000E+00  0.10566000000E+00 0.  1.
     999900   -1    0    0    0    0 -0.00000000000E+00 -0.00000000000E+00 -0.74505805969E-08  0.93827000000E+00  0.93827000000E+00 0.  1.
     999902    2    1    2    0    0  0.15263246980E-01  0.40120289161E-02 -0.39758310215E-02  0.10276551631E+01  0.10275262838E+01 0.  0.
     999903    2    3    3    0    0 -0.24390635779E-01 -0.96953397569E-01 -0.82512017888E-01  0.13752349843E+00  0.45930546604E-01 0.  0.
         14    1    1    2    0    0 -0.15263246980E-01 -0.40120289161E-02  0.39758310215E-02  0.16274836918E-01  0.00000000000E+00 0. -1.
     999901    1    3    3    0    0  0.39653882759E-01  0.10096542649E+00  0.78536186867E-01  0.89013166465E+00  0.88000000000E+00 0. -1.
        -11    1    4    4    0    0 -0.23819292771E-01 -0.10188464117E+00 -0.80959349342E-01  0.13229707548E+00  0.51100000000E-03 0. -1.
         11    1    4    4    0    0 -0.57134300817E-03  0.49312435983E-02 -0.15526685462E-02  0.52264229520E-02  0.51100000000E-03 0.  1.
</event>
<event>
 8    1  0.2190512E+004  0.1043930E+01  0.7957747E-01            NaN
         13   -1    0    0    0    0  0.00000000000E+00  0.00000000000E+00  0.74505805969E-08  0.10566000000E+00  0.10566000000E+00 0.  1.
     999900   -1    0    0    0    0 -0.00000000000E+00 -0.00000000000E+00 -0.74505805969E-08  0.93827000000E+00  0.93827000000E+00 0.  1.
     999902    2    1    2    0    0 -0.15425820934E-01  0.11349153737E-01 -0.10952702861E-01  0.10218682471E+01  0.10216300668E+01 0.  0.
     999903    2    3    3    0    0 -0.98319240264E-01  0.82052678612E-01 -0.48509441913E-02  0.13512840989E+00  0.42858376383E-01 0.  0.
         14    1    1    2    0    0  0.15425820934E-01 -0.11349153737E-01  0.10952702861E-01  0.22061752922E-01  0.00000000000E+00 0.  1.
     999901    1    3    3    0    0  0.82893419331E-01 -0.70703524874E-01 -0.61017586701E-02  0.88673983719E+00  0.88000000000E+00 0.  1.
        -11    1    4    4    0    0 -0.53379932478E-01  0.26126476156E-01  0.13765259194E-01  0.61006175338E-01  0.51100000000E-03 0.  1.
         11    1    4    4    0    0 -0.44939307787E-01  0.55926202456E-01 -0.18616203385E-01  0.74122234552E-01  0.51100000000E-03 0. -1.
</event>
<event>
 8    1  0.2190512E+004  0.1043930E+01  0.7957747E-01            NaN
         13   -1    0    0    0    0  0.00000000000E+00  0.00000000000E+00  0.74505805969E-08  0.10566000000E+00  0.10566000000E+00 0. -1.
     999900   -1    0    0    0    0 -0.00000000000E+00 -0.00000000000E+00 -0.74505805969E-08  0.93827000000E+00  0.93827000000E+00 0. -1.
     999902    2    1    2    0    0  0.21222637883E-02  0.11612120779E-01 -0.66020472425E-02  0.10304047503E+01  0.10303159792E+01 0.  0.
     999903    2    3    3    0    0  0.11549802499E+00  0.26138992584E-01 -0.62649943152E-01  0.14124421365E+00  0.44742282065E-01 0.  0.
         14    1    1    2    0    0 -0.21222637883E-02 -0.11612120779E-01  0.66020472425E-02  0.13525249734E-01  0.00000000000E+00 0.  1.
     999901    1    3    3    0    0 -0.11337576120E+00 -0.14526871805E-01  0.56047895909E-01  0.88916053661E+00  0.88000000000E+00 0. -1.
        -11    1    4    4    0    0  0.85791655676E-01  0.18856916745E-01 -0.22332716652E-01  0.90635549575E-01  0.51100000000E-03 0. -1.
         11    1    4    4    0    0  0.29706369312E-01  0.72820758390E-02 -0.40317226499E-01  0.50608664079E-01  0.51100000000E-03 0.  1.
</event>
<event>
 8    1  0.2190512E+004  0.1043930E+01  0.7957747E-01            NaN
         13   -1    0    0    0    0  0.00000000000E+00  0.00000000000E+00  0.74505805969E-08  0.10566000000E+00  0.10566000000E+00 0. -1.
     999900   -1    0    0    0    0 -0.00000000000E+00 -0.00000000000E+00 -0.74505805969E-08  0.93827000000E+00  0.93827000000E+00 0. -1.
     999902    2    1    2    0    0  0.10865348384E-01  0.76709905268E-02  0.51114565221E-02  0.10296812499E+01  0.10295826579E+01 0.  0.
     999903    2    3    3    0    0  0.73554353816E-03  0.23267842400E-01  0.13102902677E+00  0.14052372212E+00  0.45126235247E-01 0.  0.
         14    1    1    2    0    0 -0.10865348384E-01 -0.76709905268E-02 -0.51114565221E-02  0.14248750084E-01  0.00000000000E+00 0.  1.
     999901    1    3    3    0    0  0.10129804846E-01 -0.15596851873E-01 -0.12591757025E+00  0.88915752779E+00  0.88000000000E+00 0. -1.
        -11    1    4    4    0    0 -0.21956528459E-01  0.13523747852E-01  0.74331149636E-01  0.78678852464E-01  0.51100000000E-03 0. -1.
         11    1    4    4    0    0  0.22692071997E-01  0.97440945484E-02  0.56697877138E-01  0.61844869658E-01  0.51100000000E-03 0.  1.
</event>
<event>
 8    1  0.2190512E+004  0.1043930E+01  0.7957747E-01            NaN
         13   -1    0    0    0    0  0.00000000000E+00  0.00000000000E+00  0.74505805969E-08  0.10566000000E+00  0.10566000000E+00 0.  1.
     999900   -1    0    0    0    0 -0.00000000000E+00 -0.00000000000E+00 -0.74505805969E-08  0.93827000000E+00  0.93827000000E+00 0.  1.
     999902    2    1    2    0    0 -0.26894052588E-02  0.12295176972E-01 -0.58270306939E-02  0.10300606610E+01  0.10299672843E+01 0.  0.
     999903    2    3    3    0    0 -0.57700109444E-01 -0.11794275297E+00 -0.64576543557E-02  0.13877591770E+00  0.44466374092E-01 0.  0.
         14    1    1    2    0    0  0.26894052588E-02 -0.12295176972E-01  0.58270306939E-02  0.13869338994E-01  0.00000000000E+00 0.  1.
     999901    1    3    3    0    0  0.55010704185E-01  0.13023792994E+00  0.63062366174E-03  0.89128474331E+00  0.88000000000E+00 0.  1.
        -11    1    4    4    0    0 -0.39322355152E-01 -0.83487717696E-01 -0.24901362718E-01  0.95586534653E-01  0.51100000000E-03 0. -1.
         11    1    4    4    0    0 -0.18377754292E-01 -0.34455035273E-01  0.18443708362E-01  0.43189383043E-01  0.51100000000E-03 0.  1.
</event>
<event>
 8    1  0.2190512E+004  0.1043930E+01  0.7957747E-01            NaN
         13   -1    0    0    0    0  0.00000000000E+00  0.00000000000E+00  0.74505805969E-08  0.10566000000E+00  0.10566000000E+00 0.  1.
     999900   -1    0    0    0    0 -0.00000000000E+00 -0.00000000000E+00 -0.74505805969E-08  0.93827000000E+00  0.93827000000E+00 0.  1.
     999902    2    1    2    0    0  0.12208355378E-01  0.56271285644E-02  0.85543806638E-03  0.10304600226E+01  0.10303719803E+01 0.  0.
     999903    2    3    3    0    0 -0.39577866907E-01 -0.10994233979E+00 -0.61277676598E-01  0.13922568822E+00  0.44442243249E-01 0.  0.
         14    1    1    2    0    0 -0.12208355378E-01 -0.56271285644E-02 -0.85543806638E-03  0.13469977401E-01  0.00000000000E+00 0.  1.
     999901    1    3    3    0    0  0.51786222284E-01  0.11556946835E+00  0.62133114664E-01  0.89123433438E+00  0.88000000000E+00 0. -1.
        -11    1    4    4    0    0 -0.13576689592E-01 -0.26664623911E-01  0.40972624789E-02  0.30205584738E-01  0.51100000000E-03 0. -1.
         11    1    4    4    0    0 -0.26001177315E-01 -0.83277715876E-01 -0.65374939077E-01  0.10902010348E+00  0.51100000000E-03 0.  1.
</event>
<event>
 8    1  0.2190512E+004  0.1043930E+01  0.7957747E-01            NaN
         13   -1    0    0    0    0  0.00000000000E+00  0.00000000000E+00  0.74505805969E-08  0.10566000000E+00  0.10566000000E+00 0.  1.
     999900   -1    0    0    0    0 -0.00000000000E+00 -0.00000000000E+00 -0.74505805969E-08  0.93827000000E+00  0.93827000000E+00 0. -1.
     999902    2    1    2    0    0 -0.11469615405E-01 -0.48525449144E-02  0.60033518656E-02  0.10301046789E+01  0.10300118980E+01 0.  0.
     999903    2    3    3    0    0  0.57662403429E-01 -0.49135873384E-01  0.10937914713E+00  0.14025817290E+00  0.44376462408E-01 0.  0.
         14    1    1    2    0    0  0.11469615405E-01  0.48525449144E-02 -0.60033518656E-02  0.13825321093E-01  0.00000000000E+00 0. -1.
     999901    1    3    3    0    0 -0.69132018834E-01  0.44283328470E-01 -0.10337579526E+00  0.88984650601E+00  0.88000000000E+00 0. -1.
        -11    1    4    4    0    0 -0.27584544609E-03 -0.86478933953E-03  0.32672437394E-01  0.32689038493E-01  0.51100000000E-03 0.  1.
         11    1    4    4    0    0  0.57938248875E-01 -0.48271084044E-01  0.76706709735E-01  0.10756913441E+00  0.51100000000E-03 0. -1.
</event>
<event>
 8    1  0.2190512E+004  0.1043930E+01  0.7957747E-01            NaN
         13   -1    0    0    0    0  0.00000000000E+00  0.00000000000E+00  0.74505805969E-08  0.10566000000E+00  0.10566000000E+00 0. -1.
     999900   -1    0    0    0    0 -0.00000000000E+00 -0.00000000000E+00 -0.74505805969E-08  0.93827000000E+00  0.93827000000E+00 0. -1.
     999902    2    1    2    0    0  0.12688776899E-01 -0.16885957228E-01 -0.60750957799E-02  0.10219516607E+01  0.10217152976E+01 0.  0.
     999903    2    3    3    0    0 -0.56066057191E-01 -0.63738967156E-01  0.91748257960E-01  0.13263066110E+00  0.44351896488E-01 0.  0.
         14    1    1    2    0    0 -0.12688776899E-01  0.16885957228E-01  0.60750957799E-02  0.21978339324E-01  0.00000000000E+00 0. -1.
     999901    1    3    3    0    0  0.68754834090E-01  0.46853009928E-01 -0.97823353740E-01  0.88932099958E+00  0.88000000000E+00 0. -1.
        -11    1    4    4    0    0 -0.30809610832E-01 -0.53493778876E-01  0.38348275573E-01  0.72675084165E-01  0.51100000000E-03 0. -1.
         11    1    4    4    0    0 -0.25256446358E-01 -0.10245188280E-01  0.53399982388E-01  0.59955576934E-01  0.51100000000E-03 0.  1.
</event>
<event>
 8    1  0.2190512E+004  0.1043930E+01  0.7957747E-01            NaN
         13   -1    0    0    0    0  0.00000000000E+00  0.00000000000E+00  0.74505805969E-08  0.10566000000E+00  0.10566000000E+00 0. -1.
     999900   -1    0    0    0    0 -0.00000000000E+00 -0.00000000000E+00 -0.74505805969E-08  0.93827000000E+00  0.93827000000E+00 0.  1.
     999902    2    1    2    0    0  0.65442573044E-03  0.86015774918E-02  0.10887362903E-01  0.10300393528E+01  0.10299456870E+01 0.  0.
     999903    2    3    3    0    0 -0.33971867313E-01 -0.39444221368E-02  0.12961566370E+00  0.14130272608E+00  0.44683261836E-01 0.  0.
         14    1    1    2    0    0 -0.65442573044E-03 -0.86015774918E-02 -0.10887362903E-01  0.13890647190E-01  0.00000000000E+00 0.  1.
     999901    1    3    3    0    0  0.34626293044E-01  0.12545999629E-01 -0.11872830079E+00  0.88873662673E+00  0.88000000000E+00 0.  1.
        -11    1    4    4    0    0 -0.21334740104E-01 -0.18713622910E-01  0.36812066384E-01  0.46483977564E-01  0.51100000000E-03 0.  1.
         11    1    4    4    0    0 -0.12637127209E-01  0.14769200773E-01  0.92803597312E-01  0.94818748519E-01  0.51100000000E-03 0. -1.
</event>
<event>
 8    1  0.2190512E+004  0.1043930E+01  0.7957747E-01            NaN
         13   -1    0    0    0    0  0.00000000000E+00  0.00000000000E+00  0.74505805969E-08  0.10566000000E+00  0.10566000000E+00 0. -1.
     999900   -1    0    0    0    0 -0.00000000000E+00 -0.00000000000E+00 -0.74505805969E-08  0.93827000000E+00  0.93827000000E+00 0.  1.
     999902    2    1    2    0    0 -0.79633456970E-03  0.58393250606E-02 -0.12589041193E-01  0.10300297905E+01  0.10299359949E+01 0.  0.
     999903    2    3    3    0    0  0.76749205389E-01 -0.10127120325E+00 -0.38351954635E-01  0.13977718379E+00  0.43823413249E-01 0.  0.
         14    1    1    2    0    0  0.79633456970E-03 -0.58393250606E-02  0.12589041193E-01  0.13900209498E-01  0.00000000000E+00 0. -1.
     999901    1    3    3    0    0 -0.77545539959E-01  0.10711052831E+00  0.25762913442E-01  0.89025260671E+00  0.88000000000E+00 0. -1.
        -11    1    4    4    0    0  0.57333436897E-01 -0.39798206651E-01 -0.16638026858E-01  0.71750298241E-01  0.51100000000E-03 0.  1.
         11    1    4    4    0    0  0.19415768492E-01 -0.61472996602E-01 -0.21713927777E-01  0.68026885552E-01  0.51100000000E-03 0. -1.
</event>
<event>
 8    1  0.2190512E+004  0.1043930E+01  0.7957747E-01            NaN
         13   -1    0    0    0    0  0.00000000000E+00  0.00000000000E+00  0.74505805969E-08  0.10566000000E+00  0.10566000000E+00 0.  1.
     999900   -1    0    0    0    0 -0.00000000000E+00 -0.00000000000E+00 -0.74505805969E-08  0.93827000000E+00  0.93827000000E+00 0. -1.
     999902    2    1    2    0    0  0.59007138830E-02  0.10580333085E-01 -0.80796402804E-02  0.10293683222E+01  0.10292653207E+01 0.  0.
     999903    2    3    3    0    0  0.10775606456E+00  0.56234199881E-01  0.52203552405E-01  0.14027167319E+00  0.46661297981E-01 0.  0.
         14    1    1    2    0    0 -0.59007138830E-02 -0.10580333085E-01  0.80796402804E-02  0.14561677774E-01  0.00000000000E+00 0.  1.
     999901    1    3    3    0    0 -0.10185535068E+00 -0.45653866796E-01 -0.60283192685E-01  0.88909664904E+00  0.88000000000E+00 0. -1.
        -11    1    4    4    0    0  0.64913529537E-01  0.10516845929E-01  0.38262206616E-01  0.76083033203E-01  0.51100000000E-03 0.  1.
         11    1    4    4    0    0  0.42842535022E-01  0.45717353952E-01  0.13941345789E-01  0.64188639983E-01  0.51100000000E-03 0. -1.
</event>
<event>
 8    1  0.2190512E+004  0.1043930E+01  0.7957747E-01            NaN
         13   -1    0    0    0    0  0.00000000000E+00  0.00000000000E+00  0.74505805969E-08  0.10566000000E+00  0.10566000000E+00 0.  1.
     999900   -1    0    0    0    0 -0.00000000000E+00 -0.00000000000E+00 -0.74505805969E-08  0.93827000000E+00  0.93827000000E+00 0.  1.
     999902    2    1    2    0    0 -0.11963807659E-01  0.73932490993E-02  0.20069080591E-02  0.10297236456E+01  0.10296256435E+01 0.  0.
     999903    2    3    3    0    0 -0.62962020605E-01  0.52010965922E-01  0.10565831102E+00  0.14105319389E+00  0.45419909760E-01 0.  0.
         14    1    1    2    0    0  0.11963807659E-01 -0.73932490993E-02 -0.20069080591E-02  0.14206354420E-01  0.00000000000E+00 0.  1.
     999901    1    3    3    0    0  0.50998212945E-01 -0.44617716823E-01 -0.10365140296E+00  0.88867045169E+00  0.88000000000E+00 0.  1.
        -11    1    4    4    0    0 -0.46732691400E-01  0.58023272113E-01  0.74232229706E-01  0.10517285581E+00  0.51100000000E-03 0.  1.
         11    1    4    4    0    0 -0.16229329205E-01 -0.60123061911E-02  0.31426081316E-01  0.35880338071E-01  0.51100000000E-03 0. -1.
</event>
<event>
 8    1  0.2190512E+004  0.1043930E+01  0.7957747E-01            NaN
         13   -1    0    0    0    0  0.00000000000E+00  0.00000000000E+00  0.74505805969E-08  0.10566000000E+00  0.10566000000E+00 0. -1.
     999900   -1    0    0    0    0 -0.00000000000E+00 -0.00000000000E+00 -0.74505805969E-08  0.93827000000E+00  0.93827000000E+00 0.  1.
     999902    2    1    2    0    0  0.70818625412E-02 -0.18954518214E-02 -0.11492296229E-01  0.10302984782E+01  0.10302082973E+01 0.  0.
     999903    2    3    3    0    0 -0.26401628610E-01 -0.18022026437E-02 -0.13140736081E+00  0.14153485629E+00  0.45430464907E-01 0.  0.
         14    1    1    2    0    0 -0.70818625412E-02  0.18954518214E-02  0.11492296229E-01  0.13631521825E-01  0.00000000000E+00 0. -1.
     999901    1    3    3    0    0  0.33483491151E-01 -0.93249177629E-04  0.11991506458E+00  0.88876362189E+00  0.88000000000E+00 0. -1.
        -11    1    4    4    0    0  0.10509912150E-01 -0.97972223704E-02 -0.28639276177E-01  0.32045484558E-01  0.51100000000E-03 0. -1.
         11    1    4    4    0    0 -0.36911540760E-01  0.79950197267E-02 -0.10276808463E+00  0.10948937173E+00  0.51100000000E-03 0.  1.
</event>
<event>
 8    1  0.2190512E+004  0.1043930E+01  0.7957747E-01            NaN
         13   -1    0    0    0    0  0.00000000000E+00  0.00000000000E+00  0.74505805969E-08  0.10566000000E+00  0.10566000000E+00 0.  1.
     999900   -1    0    0    0    0 -0.00000000000E+00 -0.00000000000E+00 -0.74505805969E-08  0.93827000000E+00  0.93827000000E+00 0. -1.
     999902    2    1    2    0    0  0.11063270938E-01  0.64895273608E-02 -0.92248127646E-02  0.10281310412E+01  0.10280096453E+01 0.  0.
     999903    2    3    3    0    0  0.65160680556E-01  0.10960679966E+00  0.32179524481E-01  0.13949499604E+00  0.46516312237E-01 0.  0.
         14    1    1    2    0    0 -0.11063270938E-01 -0.64895273608E-02  0.92248127646E-02  0.15798958819E-01  0.00000000000E+00 0.  1.
     999901    1    3    3    0    0 -0.54097409618E-01 -0.10311727230E+00 -0.41404337246E-01  0.88863604514E+00  0.88000000000E+00 0. -1.
        -11    1    4    4    0    0  0.58702158003E-02  0.54131211898E-01  0.15316620060E-01  0.56564189256E-01  0.51100000000E-03 0.  1.
         11    1    4    4    0    0  0.59290464756E-01  0.55475587759E-01  0.16862904421E-01  0.82930806789E-01  0.51100000000E-03 0. -1.
</event>
<event>
 8    1  0.2190512E+004  0.1043930E+01  0.7957747E-01            NaN
         13   -1    0    0    0    0  0.00000000000E+00  0.00000000000E+00  0.74505805969E-08  0.10566000000E+00  0.10566000000E+00 0.  1.
     999900   -1    0    0    0    0 -0.00000000000E+00 -0.00000000000E+00 -0.74505805969E-08  0.93827000000E+00  0.93827000000E+00 0. -1.
     999902    2    1    2    0    0 -0.57350658155E-02  0.56689516409E-03 -0.12408266190E-01  0.10302487201E+01  0.10301578752E+01 0.  0.
     999903    2    3    3    0    0 -0.89290285843E-02  0.28357757956E-01  0.12766499054E+00  0.13873144561E+00  0.45433183962E-01 0.  0.
         14    1    1    2    0    0  0.57350658155E-02 -0.56689516409E-03  0.12408266190E-01  0.13681279906E-01  0.00000000000E+00 0.  1.
     999901    1    3    3    0    0  0.31939627689E-02 -0.27790862792E-01 -0.14007325673E+00  0.89151727448E+00  0.88000000000E+00 0. -1.
        -11    1    4    4    0    0 -0.88848936055E-02  0.38634219039E-01  0.72660864994E-01  0.82773224160E-01  0.51100000000E-03 0.  1.
         11    1    4    4    0    0 -0.44134978866E-04 -0.10276461083E-01  0.55004125542E-01  0.55958221451E-01  0.51100000000E-03 0. -1.
</event>
<event>
 8    1  0.2190512E+004  0.1043930E+01  0.7957747E-01            NaN
         13   -1    0    0    0    0  0.00000000000E+00  0.00000000000E+00  0.74505805969E-08  0.10566000000E+00  0.10566000000E+00 0. -1.
     999900   -1    0    0    0    0 -0.00000000000E+00 -0.00000000000E+00 -0.74505805969E-08  0.93827000000E+00  0.93827000000E+00 0.  1.
     999902    2    1    2    0    0  0.18536717277E-01  0.18945767602E-02 -0.28979451752E-02  0.10250727098E+01  0.10248992453E+01 0.  0.
     999903    2    3    3    0    0  0.72438547104E-02 -0.53458095684E-01  0.11530020581E+00  0.13537486781E+00  0.46064910181E-01 0.  0.
         14    1    1    2    0    0 -0.18536717277E-01 -0.18945767602E-02  0.28979451752E-02  0.18857290228E-01  0.00000000000E+00 0. -1.
     999901    1    3    3    0    0  0.11292862567E-01  0.55352672444E-01 -0.11819815099E+00  0.88969784196E+00  0.88000000000E+00 0.  1.
        -11    1    4    4    0    0 -0.11252928130E-01 -0.21256960987E-01  0.14831796410E-01  0.28261813240E-01  0.51100000000E-03 0. -1.
         11    1    4    4    0    0  0.18496782840E-01 -0.32201134697E-01  0.10046840940E+00  0.10711305457E+00  0.51100000000E-03 0.  1.
</event>
<event>
 8    1  0.2190512E+004  0.1043930E+01  0.7957747E-01            NaN
         13   -1    0    0    0    0  0.00000000000E+00  0.00000000000E+00  0.74505805969E-08  0.10566000000E+00  0.10566000000E+00 0. -1.
     999900   -1    0    0    0    0 -0.00000000000E+00 -0.00000000000E+00 -0.74505805969E-08  0.93827000000E+00  0.93827000000E+00 0.  1.
     999902    2    1    2    0    0 -0.12569642566E-01 -0.60810344443E-02 -0.20774039318E-02  0.10298129712E+01  0.10297162062E+01 0.  0.
     999903    2    3    3    0    0 -0.10698124809E+00  0.65720380596E-01  0.47308170626E-01  0.14048292595E+00  0.41632122321E-01 0.  0.
         14    1    1    2    0    0  0.12569642566E-01  0.60810344443E-02  0.20774039318E-02  0.14117028768E-01  0.00000000000E+00 0.  1.
     999901    1    3    3    0    0  0.94411605520E-01 -0.71801415040E-01 -0.49385574558E-01  0.88933004528E+00  0.88000000000E+00 0. -1.
        -11    1    4    4    0    0 -0.32879680574E-01  0.40589220239E-01  0.30359772261E-01  0.60419658117E-01  0.51100000000E-03 0. -1.
         11    1    4    4    0    0 -0.74101567512E-01  0.25131160357E-01  0.16948398366E-01  0.80063267837E-01  0.51100000000E-03 0.  1.
</event>
<event>
 8    1  0.2190512E+004  0.1043930E+01  0.7957747E-01            NaN
         13   -1    0    0    0    0  0.00000000000E+00  0.00000000000E+00  0.74505805969E-08  0.10566000000E+00  0.10566000000E+00 0. -1.
     999900   -1    0    0    0    0 -0.00000000000E+00 -0.00000000000E+00 -0.74505805969E-08  0.93827000000E+00  0.93827000000E+00 0. -1.
     999902    2    1    2    0    0 -0.10229186831E-01  0.95486535921E-02 -0.34086246676E-02  0.10295275082E+01  0.10294267620E+01 0.  0.
     999903    2    3    3    0    0 -0.11101233988E+00 -0.56360187022E-01 -0.46076150128E-01  0.14030215038E+00  0.45403430540E-01 0.  0.
         14    1    1    2    0    0  0.10229186831E-01 -0.95486535921E-02  0.34086246676E-02  0.14402491825E-01  0.00000000000E+00 0. -1.
     999901    1    3    3    0    0  0.10078315305E+00  0.65908840614E-01  0.42667525461E-01  0.88922535779E+00  0.88000000000E+00 0.  1.
        -11    1    4    4    0    0 -0.74280491823E-01 -0.45548333825E-01 -0.52122211654E-01  0.10153436979E+00  0.51100000000E-03 0.  1.
         11    1    4    4    0    0 -0.36731848057E-01 -0.10811853197E-01  0.60460615262E-02  0.38767780595E-01  0.51100000000E-03 0. -1.
</event>
<event>
 8    1  0.2190512E+004  0.1043930E+01  0.7957747E-01            NaN
         13   -1    0    0    0    0  0.00000000000E+00  0.00000000000E+00  0.74505805969E-08  0.10566000000E+00  0.10566000000E+00 0. -1.
     999900   -1    0    0    0    0 -0.00000000000E+00 -0.00000000000E+00 -0.74505805969E-08  0.93827000000E+00  0.93827000000E+00 0.  1.
     999902    2    1    2    0    0 -0.40782540137E-02 -0.12043587258E-02 -0.12964432233E-01  0.10302859852E+01  0.10301956378E+01 0.  0.
     999903    2    3    3    0    0  0.46708188349E-02 -0.89917505598E-01 -0.99588509638E-01  0.14155076061E+00  0.44852783817E-01 0.  0.
         14    1    1    2    0    0  0.40782540137E-02  0.12043587258E-02  0.12964432233E-01  0.13644014764E-01  0.00000000000E+00 0. -1.
     999901    1    3    3    0    0 -0.87490728486E-02  0.88713146873E-01  0.86624077404E-01  0.88873522463E+00  0.88000000000E+00 0. -1.
        -11    1    4    4    0    0  0.25755680809E-03 -0.80460084121E-01 -0.10286864288E+00  0.13059904395E+00  0.51100000000E-03 0. -1.
         11    1    4    4    0    0  0.44132620268E-02 -0.94574214770E-02  0.32801332412E-02  0.10951716660E-01  0.51100000000E-03 0.  1.
</event>
<event>
 8    1  0.2190512E+004  0.1043930E+01  0.7957747E-01            NaN
         13   -1    0    0    0    0  0.00000000000E+00  0.00000000000E+00  0.74505805969E-08  0.10566000000E+00  0.10566000000E+00 0.  1.
     999900   -1    0    0    0    0 -0.00000000000E+00 -0.00000000000E+00 -0.74505805969E-08  0.93827000000E+00  0.93827000000E+00 0. -1.
     999902    2    1    2    0    0  0.71205707379E-02 -0.10525217408E-01 -0.29215856250E-02  0.10308908899E+01  0.10308084247E+01 0.  0.
     999903    2    3    3    0    0  0.17597408774E-02 -0.11273732806E+00  0.75637514381E-01  0.14148233011E+00  0.39792138997E-01 0.  0.
         14    1    1    2    0    0 -0.71205707379E-02  0.10525217408E-01  0.29215856250E-02  0.13039110081E-01  0.00000000000E+00 0.  1.
     999901    1    3    3    0    0  0.53608298606E-02  0.10221211065E+00 -0.78559100006E-01  0.88940855981E+00  0.88000000000E+00 0. -1.
        -11    1    4    4    0    0 -0.16670716475E-01 -0.71601508447E-01  0.55473991365E-01  0.92099476864E-01  0.51100000000E-03 0.  1.
         11    1    4    4    0    0  0.18430457352E-01 -0.41135819616E-01  0.20163523017E-01  0.49382853250E-01  0.51100000000E-03 0. -1.
</event>
<event>
 8    1  0.2190512E+004  0.1043930E+01  0.7957747E-01            NaN
         13   -1    0    0    0    0  0.00000000000E+00  0.00000000000E+00  0.74505805969E-08  0.10566000000E+00  0.10566000000E+00 0.  1.
     999900   -1    0    0    0    0 -0.00000000000E+00 -0.00000000000E+00 -0.74505805969E-08  0.93827000000E+00  0.93827000000E+00 0.  1.
     999902    2    1    2    0    0  0.10886556961E-01 -0.78910380612E-02  0.68782484087E-03  0.10304667646E+01  0.10303788110E+01 0.  0.
     999903    2    3    3    0    0  0.29031199069E-01  0.38084396582E-01  0.12408925581E+00  0.14048312330E+00  0.45212086245E-01 0.  0.
         14    1    1    2    0    0 -0.10886556961E-01  0.78910380612E-02 -0.68782484087E-03  0.13463235390E-01  0.00000000000E+00 0.  1.
     999901    1    3    3    0    0 -0.18144642108E-01 -0.45975434643E-01 -0.12340143097E+00  0.88998364131E+00  0.88000000000E+00 0.  1.
        -11    1    4    4    0    0  0.36449168282E-01  0.38516558721E-01  0.81412624969E-01  0.97161431594E-01  0.51100000000E-03 0.  1.
         11    1    4    4    0    0 -0.74179692136E-02 -0.43216213891E-03  0.42676630844E-01  0.43321691709E-01  0.51100000000E-03 0. -1.
</event>
<event>
 8    1  0.2190512E+004  0.1043930E+01  0.7957747E-01            NaN
         13   -1    0    0    0    0  0.00000000000E+00  0.00000000000E+00  0.74505805969E-08  0.10566000000E+00  0.10566000000E+00 0. -1.
     999900   -1    0    0    0    0 -0.00000000000E+00 -0.00000000000E+00 -0.74505805969E-08  0.93827000000E+00  0.93827000000E+00 0. -1.
     999902    2    1    2    0    0 -0.44322605070E-02  0.11960896005E-01 -0.56769893037E-02  0.10299680455E+01  0.10298734090E+01 0.  0.
     999903    2    3    3    0    0 -0.77764781449E-01 -0.45206312442E-01  0.96382919127E-01  0.13920322059E+00  0.44686660262E-01 0.  0.
         14    1    1    2    0    0  0.44322605070E-02 -0.11960896005E-01  0.56769893037E-02  0.13961954519E-01  0.00000000000E+00 0. -1.
     999901    1    3    3    0    0  0.73332520942E-01  0.57167208447E-01 -0.10205990843E+00  0.89076482489E+00  0.88000000000E+00 0. -1.
        -11    1    4    4    0    0 -0.23602918817E-01 -0.39008805741E-01  0.38359536856E-01  0.59586071282E-01  0.51100000000E-03 0.  1.
         11    1    4    4    0    0 -0.54161862632E-01 -0.61975067006E-02  0.58023382271E-01  0.79617149310E-01  0.51100000000E-03 0. -1.
</event>
<event>
 8    1  0.2190512E+004  0.1043930E+01  0.7957747E-01            NaN
         13   -1    0    0    0    0  0.00000000000E+00  0.00000000000E+00  0.74505805969E-08  0.10566000000E+00  0.10566000000E+00 0.  1.
     999900   -1    0    0    0    0 -0.00000000000E+00 -0.00000000000E+00 -0.74505805969E-08  0.93827000000E+00  0.93827000000E+00 0.  1.
     999902    2    1    2    0    0  0.87905935149E-02 -0.96259060580E-02 -0.56543716485E-03  0.10308819227E+01  0.10307993433E+01 0.  0.
     999903    2    3    3    0    0 -0.63135158843E-01  0.66738549723E-01 -0.94733903333E-01  0.13966222815E+00  0.45726832697E-01 0.  0.
         14    1    1    2    0    0 -0.87905935149E-02  0.96259060580E-02  0.56543716485E-03  0.13048077290E-01  0.00000000000E+00 0. -1.
     999901    1    3    3    0    0  0.71925752358E-01 -0.76364455781E-01  0.94168466169E-01  0.89121969456E+00  0.88000000000E+00 0. -1.
        -11    1    4    4    0    0 -0.26100895943E-01  0.31545937258E-01 -0.73900975797E-01  0.84486793472E-01  0.51100000000E-03 0.  1.
         11    1    4    4    0    0 -0.37034262899E-01  0.35192612465E-01 -0.20832927537E-01  0.55175434673E-01  0.51100000000E-03 0. -1.
</event>
<event>
 8    1  0.2190512E+004  0.1043930E+01  0.7957747E-01            NaN
         13   -1    0    0    0    0  0.00000000000E+00  0.00000000000E+00  0.74505805969E-08  0.10566000000E+00  0.10566000000E+00 0.  1.
     999900   -1    0    0    0    0 -0.00000000000E+00 -0.00000000000E+00 -0.74505805969E-08  0.93827000000E+00  0.93827000000E+00 0.  1.
     999902    2    1    2    0    0  0.12579828708E-01 -0.58995440159E-02 -0.29699346083E-02  0.10297216496E+01  0.10296236198E+01 0.  0.
     999903    2    3    3    0    0 -0.11460403389E+00  0.18374015677E-01 -0.60519644181E-01  0.13838730733E+00  0.44908022264E-01 0.  0.
         14    1    1    2    0    0 -0.12579828708E-01  0.58995440159E-02  0.29699346083E-02  0.14208350414E-01  0.00000000000E+00 0. -1.
     999901    1    3    3    0    0  0.12718386260E+00 -0.24273559693E-01  0.57549709573E-01  0.89133434225E+00  0.88000000000E+00 0. -1.
        -11    1    4    4    0    0 -0.94096043704E-01 -0.18482708940E-02 -0.55154528213E-01  0.10908604241E+00  0.51100000000E-03 0. -1.
         11    1    4    4    0    0 -0.20507990185E-01  0.20222286571E-01 -0.53651159683E-02  0.29301264921E-01  0.51100000000E-03 0.  1.
</event>
<event>
 8    1  0.2190512E+004  0.1043930E+01  0.7957747E-01            NaN
         13   -1    0    0    0    0  0.00000000000E+00  0.00000000000E+00  0.74505805969E-08  0.10566000000E+00  0.10566000000E+00 0.  1.
     999900   -1    0    0    0    0 -0.00000000000E+00 -0.00000000000E+00 -0.74505805969E-08  0.93827000000E+00  0.93827000000E+00 0. -1.
     999902    2    1    2    0    0 -0.90701519489E-02 -0.16742530027E-02  0.10396913742E-01  0.10300315614E+01  0.10299377898E+01 0.  0.
     999903    2    3    3    0    0  0.15724593115E-02  0.95013475664E-01  0.94047947634E-01  0.14072886969E+00  0.43926815555E-01 0.  0.
         14    1    1    2    0    0  0.90701519489E-02  0.16742530027E-02 -0.10396913742E-01  0.13898438576E-01  0.00000000000E+00 0. -1.
     999901    1    3    3    0    0 -0.10642611260E-01 -0.96687728667E-01 -0.83651033892E-01  0.88930269173E+00  0.88000000000E+00 0.  1.
        -11    1    4    4    0    0  0.18357146201E-01  0.30003453833E-01  0.18822746736E-01  0.39896728867E-01  0.51100000000E-03 0.  1.
         11    1    4    4    0    0 -0.16784686890E-01  0.65010021831E-01  0.75225200898E-01  0.10083214083E+00  0.51100000000E-03 0. -1.
</event>
<event>
 8    1  0.2190512E+004  0.1043930E+01  0.7957747E-01            NaN
         13   -1    0    0    0    0  0.00000000000E+00  0.00000000000E+00  0.74505805969E-08  0.10566000000E+00  0.10566000000E+00 0. -1.
     999900   -1    0    0    0    0 -0.00000000000E+00 -0.00000000000E+00 -0.74505805969E-08  0.93827000000E+00  0.93827000000E+00 0. -1.
     999902    2    1    2    0    0  0.81511076356E-02  0.10424201180E-01  0.45289816254E-02  0.10299437138E+01  0.10298487450E+01 0.  0.
     999903    2    3    3    0    0  0.52556563298E-01 -0.17533384595E-01 -0.12004653776E+00  0.13962212524E+00  0.44872649904E-01 0.  0.
         14    1    1    2    0    0 -0.81511076356E-02 -0.10424201180E-01 -0.45289816254E-02  0.13986286158E-01  0.00000000000E+00 0. -1.
     999901    1    3    3    0    0 -0.44405455662E-01  0.27957585775E-01  0.12457551938E+00  0.89032158860E+00  0.88000000000E+00 0.  1.
        -11    1    4    4    0    0  0.25943051633E-01 -0.17192701358E-01 -0.22235526554E-01  0.38253243917E-01  0.51100000000E-03 0. -1.
         11    1    4    4    0    0  0.26613511664E-01 -0.34068323717E-03 -0.97811011202E-01  0.10136888133E+00  0.51100000000E-03 0.  1.
</event>
<event>
 8    1  0.2190512E+004  0.1043930E+01  0.7957747E-01            NaN
         13   -1    0    0    0    0  0.00000000000E+00  0.00000000000E+00  0.74505805969E-08  0.10566000000E+00  0.10566000000E+00 0. -1.
     999900   -1    0    0    0    0 -0.00000000000E+00 -0.00000000000E+00 -0.74505805969E-08  0.93827000000E+00  0.93827000000E+00 0.  1.
     999902    2    1    2    0    0  0.24329099155E-03 -0.12250232791E-01  0.70733103627E-02  0.10297822400E+01  0.10296850502E+01 0.  0.
     999903    2    3    3    0    0 -0.25407352270E-03  0.12939972529E+00 -0.12019401726E-01  0.13825013756E+00  0.47162284290E-01 0.  0.
         14    1    1    2    0    0 -0.24329099155E-03  0.12250232791E-01 -0.70733103627E-02  0.14147760015E-01  0.00000000000E+00 0.  1.
     999901    1    3    3    0    0  0.49736451425E-03 -0.14164995808E+00  0.19092712088E-01  0.89153210242E+00  0.88000000000E+00 0.  1.
        -11    1    4    4    0    0  0.23180500370E-01  0.58485265067E-01 -0.25624550093E-02  0.62965777403E-01  0.51100000000E-03 0. -1.
         11    1    4    4    0    0 -0.23434573892E-01  0.70914460224E-01 -0.94569467164E-02  0.75284360159E-01  0.51100000000E-03 0.  1.
</event>
<event>
 7    1  0.2190512E+004  0.1043930E+01  0.7957747E-01            NaN
         13   -1    0    0    0    0  0.00000000000E+00  0.00000000000E+00  0.74505805969E-08  0.10566000000E+00  0.10566000000E+00 0.  1.
     999900   -1    0    0    0    0 -0.00000000000E+00 -0.00000000000E+00 -0.74505805969E-08  0.93827000000E+00  0.93827000000E+00 0.  1.
     999903    2    1    2    0    0  0.21612419090E-01  0.86589580103E-01 -0.60807609381E-01  0.11697371000E+00  0.44949209463E-01 0.  0.
         14    1    1    2    0    0  0.18943124851E-01 -0.29424370810E-01  0.25796914128E-01  0.43475468431E-01  0.00000000000E+00 0.  1.
     999901    1    1    2    0    0 -0.40555543942E-01 -0.57165209293E-01  0.35010695253E-01  0.88348082157E+00  0.88000000000E+00 0. -1.
        -11    1    3    3    0    0  0.19661503416E-01  0.35162128360E-01 -0.42635746158E-02  0.40514061471E-01  0.51100000000E-03 0.  1.
         11    1    3    3    0    0  0.19509156747E-02  0.51427451743E-01 -0.56544034765E-01  0.76459648529E-01  0.51100000000E-03 0. -1.
</event>
<event>
 8    1  0.2190512E+004  0.1043930E+01  0.7957747E-01            NaN
         13   -1    0    0    0    0  0.00000000000E+00  0.00000000000E+00  0.74505805969E-08  0.10566000000E+00  0.10566000000E+00 0.  1.
     999900   -1    0    0    0    0 -0.00000000000E+00 -0.00000000000E+00 -0.74505805969E-08  0.93827000000E+00  0.93827000000E+00 0. -1.
     999902    2    1    2    0    0  0.22434049168E-02 -0.68875513450E-02  0.13480859377E-01  0.10286262489E+01  0.10285123991E+01 0.  0.
     999903    2    3    3    0    0 -0.58637631069E-01 -0.48442552369E-02  0.11945993559E+00  0.14017690299E+00  0.43784121952E-01 0.  0.
         14    1    1    2    0    0 -0.22434049168E-02  0.68875513450E-02 -0.13480859377E-01  0.15303751131E-01  0.00000000000E+00 0. -1.
     999901    1    3    3    0    0  0.60881035986E-01 -0.20432961082E-02 -0.10597907621E+00  0.88844934588E+00  0.88000000000E+00 0.  1.
        -11    1    4    4    0    0 -0.14457970721E-01 -0.13768486028E-01  0.11175962940E-01  0.22885964990E-01  0.51100000000E-03 0. -1.
         11    1    4    4    0    0 -0.44179660349E-01  0.89242307913E-02  0.10828397265E+00  0.11729093800E+00  0.51100000000E-03 0.  1.
</event>
<event>
 8    1  0.2190512E+004  0.1043930E+01  0.7957747E-01            NaN
         13   -1    0    0    0    0  0.00000000000E+00  0.00000000000E+00  0.74505805969E-08  0.10566000000E+00  0.10566000000E+00 0.  1.
     999900   -1    0    0    0    0 -0.00000000000E+00 -0.00000000000E+00 -0.74505805969E-08  0.93827000000E+00  0.93827000000E+00 0. -1.
     999902    2    1    2    0    0  0.10116371113E-01 -0.53386057058E-02 -0.71365519056E-02  0.10304477135E+01  0.10303595092E+01 0.  0.
     999903    2    3    3    0    0 -0.41653586352E-01 -0.12230472676E+00  0.31168385653E-02  0.14114105439E+00  0.56724025839E-01 0.  0.
         14    1    1    2    0    0 -0.10116371113E-01  0.53386057058E-02  0.71365519056E-02  0.13482286471E-01  0.00000000000E+00 0.  1.
     999901    1    3    3    0    0  0.51769957466E-01  0.11696612106E+00 -0.10253390471E-01  0.88930665914E+00  0.88000000000E+00 0.  1.
        -11    1    4    4    0    0 -0.12673102906E-01 -0.90078922572E-01 -0.18308371482E-01  0.92791580526E-01  0.51100000000E-03 0. -1.
         11    1    4    4    0    0 -0.28980483446E-01 -0.32225804191E-01  0.21425210048E-01  0.48349473866E-01  0.51100000000E-03 0.  1.
</event>
<event>
 8    1  0.2190512E+004  0.1043930E+01  0.7957747E-01            NaN
         13   -1    0    0    0    0  0.00000000000E+00  0.00000000000E+00  0.74505805969E-08  0.10566000000E+00  0.10566000000E+00 0. -1.
     999900   -1    0    0    0    0 -0.00000000000E+00 -0.00000000000E+00 -0.74505805969E-08  0.93827000000E+00  0.93827000000E+00 0.  1.
     999902    2    1    2    0    0  0.78301955159E-02 -0.10700801332E-01 -0.20579200591E-02  0.10305115744E+01  0.10304242091E+01 0.  0.
     999903    2    3    3    0    0  0.22520952364E-01 -0.86824832066E-01 -0.99879135134E-01  0.14170356558E+00  0.45368646725E-01 0.  0.
         14    1    1    2    0    0 -0.78301955159E-02  0.10700801332E-01  0.20579200591E-02  0.13418425613E-01  0.00000000000E+00 0.  1.
     999901    1    3    3    0    0 -0.14690756848E-01  0.76124030734E-01  0.97821215075E-01  0.88880800880E+00  0.88000000000E+00 0.  1.
        -11    1    4    4    0    0  0.23588423202E-01 -0.13996180223E-01 -0.31871988900E-01  0.42052248066E-01  0.51100000000E-03 0. -1.
         11    1    4    4    0    0 -0.10674708381E-02 -0.72828651842E-01 -0.68007146235E-01  0.99651317518E-01  0.51100000000E-03 0.  1.
</event>
<event>
 8    1  0.2190512E+004  0.1043930E+01  0.7957747E-01            NaN
         13   -1    0    0    0    0  0.00000000000E+00  0.00000000000E+00  0.74505805969E-08  0.10566000000E+00  0.10566000000E+00 0.  1.
     999900   -1    0    0    0    0 -0.00000000000E+00 -0.00000000000E+00 -0.74505805969E-08  0.93827000000E+00  0.93827000000E+00 0. -1.
     999902    2    1    2    0    0 -0.52380159788E-02 -0.53095629031E-02 -0.54122102068E-02  0.10347147795E+01  0.10346737431E+01 0.  0.
     999903    2    3    3    0    0  0.34310986828E-01  0.12832462024E+00 -0.22149803126E-01  0.14359056507E+00  0.49831562481E-01 0.  0.
         14    1    1    2    0    0  0.52380159788E-02  0.53095629031E-02  0.54122102068E-02  0.92152205040E-02  0.00000000000E+00 0.  1.
     999901    1    3    3    0    0 -0.39549002807E-01 -0.13363418315E+00  0.16737592919E-01  0.89112421443E+00  0.88000000000E+00 0. -1.
        -11    1    4    4    0    0  0.32005581304E-01  0.41051215744E-01  0.46533366648E-02  0.52263507458E-01  0.51100000000E-03 0. -1.
         11    1    4    4    0    0  0.23054055245E-02  0.87273404500E-01 -0.26803139790E-01  0.91327057607E-01  0.51100000000E-03 0.  1.
</event>
<event>
 8    1  0.2190512E+004  0.1043930E+01  0.7957747E-01            NaN
         13   -1    0    0    0    0  0.00000000000E+00  0.00000000000E+00  0.74505805969E-08  0.10566000000E+00  0.10566000000E+00 0. -1.
     999900   -1    0    0    0    0 -0.00000000000E+00 -0.00000000000E+00 -0.74505805969E-08  0.93827000000E+00  0.93827000000E+00 0.  1.
     999902    2    1    2    0    0  0.55594959898E-02  0.50357903725E-02  0.11556395135E-01  0.10301525747E+01  0.10300604398E+01 0.  0.
     999903    2    3    3    0    0  0.13013108158E+00  0.22656490927E-02  0.32921288303E-01  0.14111814773E+00  0.43488950731E-01 0.  0.
         14    1    1    2    0    0 -0.55594959898E-02 -0.50357903725E-02 -0.11556395135E-01  0.13777425334E-01  0.00000000000E+00 0.  1.
     999901    1    3    3    0    0 -0.12457158559E+00  0.27701412798E-02 -0.21364893169E-01  0.88903442694E+00  0.88000000000E+00 0.  1.
        -11    1    4    4    0    0  0.93929830845E-01 -0.13363446355E-01  0.36198490386E-01  0.10154795246E+00  0.51100000000E-03 0.  1.
         11    1    4    4    0    0  0.36201250735E-01  0.15629095447E-01 -0.32772020825E-02  0.39570195271E-01  0.51100000000E-03 0. -1.
</event>
<event>
 8    1  0.2190512E+004  0.1043930E+01  0.7957747E-01            NaN
         13   -1    0    0    0    0  0.00000000000E+00  0.00000000000E+00  0.74505805969E-08  0.10566000000E+00  0.10566000000E+00 0. -1.
     999900   -1    0    0    0    0 -0.00000000000E+00 -0.00000000000E+00 -0.74505805969E-08  0.93827000000E+00  0.93827000000E+00 0. -1.
     999902    2    1    2    0    0  0.11472235887E-01 -0.37832723183E-02  0.51123883243E-02  0.10308127648E+01  0.10307293021E+01 0.  0.
     999903    2    3    3    0    0 -0.72481024659E-01 -0.86696012422E-01 -0.68402451857E-01  0.13989913026E+00  0.46077909266E-01 0.  0.
         14    1    1    2    0    0 -0.11472235887E-01  0.37832723183E-02 -0.51123883243E-02  0.13117235229E-01  0.00000000000E+00 0.  1.
     999901    1    3    3    0    0  0.83953260546E-01  0.82912740103E-01  0.73514840182E-01  0.89091363451E+00  0.88000000000E+00 0.  1.
        -11    1    4    4    0    0 -0.60898310685E-01 -0.54938285108E-01 -0.26787959136E-01  0.86282531781E-01  0.51100000000E-03 0.  1.
         11    1    4    4    0    0 -0.11582713974E-01 -0.31757727314E-01 -0.41614492722E-01  0.53616598481E-01  0.51100000000E-03 0. -1.
</event>
<event>
 8    1  0.2190512E+004  0.1043930E+01  0.7957747E-01            NaN
         13   -1    0    0    0    0  0.00000000000E+00  0.00000000000E+00  0.74505805969E-08  0.10566000000E+00  0.10566000000E+00 0. -1.
     999900   -1    0    0    0    0 -0.00000000000E+00 -0.00000000000E+00 -0.74505805969E-08  0.93827000000E+00  0.93827000000E+00 0. -1.
     999902    2    1    2    0    0  0.44413671614E-02 -0.16003310812E-01  0.22929068436E-02  0.10271642873E+01  0.10270274505E+01 0.  0.
     999903    2    3    3    0    0 -0.52154157575E-01 -0.11724663113E+00  0.28517556379E-01  0.13916597902E+00  0.45684680512E-01 0.  0.
         14    1    1    2    0    0 -0.44413671614E-02  0.16003310812E-01 -0.22929068436E-02  0.16765712660E-01  0.00000000000E+00 0.  1.
     999901    1    3    3    0    0  0.56595524736E-01  0.10124332031E+00 -0.26224649535E-01  0.88799830832E+00  0.88000000000E+00 0. -1.
        -11    1    4    4    0    0 -0.54699060266E-02 -0.47387858073E-01 -0.64838573175E-02  0.48143852063E-01  0.51100000000E-03 0.  1.
         11    1    4    4    0    0 -0.46684251548E-01 -0.69858773052E-01  0.35001413696E-01  0.91022126962E-01  0.51100000000E-03 0. -1.
</event>
<event>
 8    1  0.2190512E+004  0.1043930E+01  0.7957747E-01            NaN
         13   -1    0    0    0    0  0.00000000000E+00  0.00000000000E+00  0.74505805969E-08  0.10566000000E+00  0.10566000000E+00 0.  1.
     999900   -1    0    0    0    0 -0.00000000000E+00 -0.00000000000E+00 -0.74505805969E-08  0.93827000000E+00  0.93827000000E+00 0.  1.
     999902    2    1    2    0    0  0.15222624376E-01  0.10960066044E-01 -0.10325186163E-01  0.10225183020E+01  0.10222940952E+01 0.  0.
     999903    2    3    3    0    0 -0.91940509992E-01  0.48651454786E-01 -0.70116007041E-01  0.13320422904E+00  0.44800566531E-01 0.  0.
         14    1    1    2    0    0 -0.15222624376E-01 -0.10960066044E-01  0.10325186163E-01  0.21411697968E-01  0.00000000000E+00 0. -1.
     999901    1    3    3    0    0  0.10716313437E+00 -0.37691388742E-01  0.59790820878E-01  0.88931407299E+00  0.88000000000E+00 0. -1.
        -11    1    4    4    0    0 -0.81465691832E-01  0.43880440270E-01 -0.39720262371E-01  0.10069812485E+00  0.51100000000E-03 0.  1.
         11    1    4    4    0    0 -0.10474818160E-01  0.47710145159E-02 -0.30395744670E-01  0.32506104197E-01  0.51100000000E-03 0. -1.
</event>
<event>
 8    1  0.2190512E+004  0.1043930E+01  0.7957747E-01            NaN
         13   -1    0    0    0    0  0.00000000000E+00  0.00000000000E+00  0.74505805969E-08  0.10566000000E+00  0.10566000000E+00 0. -1.
     999900   -1    0    0    0    0 -0.00000000000E+00 -0.00000000000E+00 -0.74505805969E-08  0.93827000000E+00  0.93827000000E+00 0.  1.
     999902    2    1    2    0    0 -0.30414249029E-02  0.14159998968E-01 -0.31515681077E-02  0.10291081169E+01  0.10290013742E+01 0.  0.
     999903    2    3    3    0    0  0.10354277557E+00 -0.13701538399E-01  0.78956682990E-01  0.13844644045E+00  0.44993561286E-01 0.  0.
         14    1    1    2    0    0  0.30414249029E-02 -0.14159998968E-01  0.31515681077E-02  0.14821883071E-01  0.00000000000E+00 0.  1.
     999901    1    3    3    0    0 -0.10658420047E+00  0.27861537367E-01 -0.82108251098E-01  0.89066167648E+00  0.88000000000E+00 0.  1.
        -11    1    4    4    0    0  0.22478807927E-01  0.57515560488E-02 -0.59187968718E-03  0.23216128992E-01  0.51100000000E-03 0.  1.
         11    1    4    4    0    0  0.81063967640E-01 -0.19453094448E-01  0.79548562677E-01  0.11523031146E+00  0.51100000000E-03 0. -1.
</event>
<event>
 8    1  0.2190512E+004  0.1043930E+01  0.7957747E-01            NaN
         13   -1    0    0    0    0  0.00000000000E+00  0.00000000000E+00  0.74505805969E-08  0.10566000000E+00  0.10566000000E+00 0.  1.
     999900   -1    0    0    0    0 -0.00000000000E+00 -0.00000000000E+00 -0.74505805969E-08  0.93827000000E+00  0.93827000000E+00 0. -1.
     999902    2    1    2    0    0 -0.41477280656E-02 -0.98943201877E-03 -0.13182791261E-01  0.10300747263E+01  0.10299815402E+01 0.  0.
     999903    2    3    3    0    0 -0.30294586185E-02  0.11388342660E+00 -0.69480038294E-01  0.14082425304E+00  0.45004244783E-01 0.  0.
         14    1    1    2    0    0  0.41477280656E-02  0.98943201877E-03  0.13182791261E-01  0.13855273698E-01  0.00000000000E+00 0.  1.
     999901    1    3    3    0    0 -0.11182694471E-02 -0.11487285862E+00  0.56297247033E-01  0.88925047326E+00  0.88000000000E+00 0.  1.
        -11    1    4    4    0    0  0.12093961953E-01  0.33213630420E-01 -0.35154341024E-02  0.35525041299E-01  0.51100000000E-03 0. -1.
         11    1    4    4    0    0 -0.15123420571E-01  0.80669796183E-01 -0.65964604192E-01  0.10529921174E+00  0.51100000000E-03 0.  1.
</event>
<event>
 8    1  0.2190512E+004  0.1043930E+01  0.7957747E-01            NaN
         13   -1    0    0    0    0  0.00000000000E+00  0.00000000000E+00  0.74505805969E-08  0.10566000000E+00  0.10566000000E+00 0.  1.
     999900   -1    0    0    0    0 -0.00000000000E+00 -0.00000000000E+00 -0.74505805969E-08  0.93827000000E+00  0.93827000000E+00 0.  1.
     999902    2    1    2    0    0  0.22431055557E-02  0.22235742531E-02  0.12525655977E-01  0.10310122656E+01  0.10309313381E+01 0.  0.
     999903    2    3    3    0    0  0.49695047709E-01 -0.12339874698E+00  0.96354737831E-02  0.14082070891E+00  0.45175006155E-01 0.  0.
         14    1    1    2    0    0 -0.22431055557E-02 -0.22235742531E-02 -0.12525655977E-01  0.12917734424E-01  0.00000000000E+00 0. -1.
     999901    1    3    3    0    0 -0.47451942153E-01  0.12562232123E+00  0.28901821935E-02  0.89019155667E+00  0.88000000000E+00 0. -1.
        -11    1    4    4    0    0  0.38655596444E-01 -0.39298818052E-01 -0.22326589667E-02  0.55171533637E-01  0.51100000000E-03 0. -1.
         11    1    4    4    0    0  0.11039451265E-01 -0.84099928924E-01  0.11868132750E-01  0.85649175274E-01  0.51100000000E-03 0.  1.
</event>
<event>
 8    1  0.2190512E+004  0.1043930E+01  0.7957747E-01            NaN
         13   -1    0    0    0    0  0.00000000000E+00  0.00000000000E+00  0.74505805969E-08  0.10566000000E+00  0.10566000000E+00 0.  1.
     999900   -1    0    0    0    0 -0.00000000000E+00 -0.00000000000E+00 -0.74505805969E-08  0.93827000000E+00  0.93827000000E+00 0. -1.
     999902    2    1    2    0    0  0.64296284048E-02 -0.18883043589E-02  0.12573751566E-01  0.10296820162E+01  0.10295834349E+01 0.  0.
     999903    2    3    3    0    0  0.31963779582E-01 -0.89334681316E-01  0.93952902327E-01  0.14124438308E+00  0.46048446269E-01 0.  0.
         14    1    1    2    0    0 -0.64296284048E-02  0.18883043589E-02 -0.12573751566E-01  0.14247983830E-01  0.00000000000E+00 0. -1.
     999901    1    3    3    0    0 -0.25534151177E-01  0.87446376958E-01 -0.81379150760E-01  0.88843763309E+00  0.88000000000E+00 0. -1.
        -11    1    4    4    0    0 -0.16209467889E-02 -0.54506636401E-01  0.65045806025E-01  0.84881204531E-01  0.51100000000E-03 0. -1.
         11    1    4    4    0    0  0.33584726370E-01 -0.34828044916E-01  0.28907096301E-01  0.56363178544E-01  0.51100000000E-03 0.  1.
</event>
<event>
 8    1  0.2190512E+004  0.1043930E+01  0.7957747E-01            NaN
         13   -1    0    0    0    0  0.00000000000E+00  0.00000000000E+00  0.74505805969E-08  0.10566000000E+00  0.10566000000E+00 0. -1.
     999900   -1    0    0    0    0 -0.00000000000E+00 -0.00000000000E+00 -0.74505805969E-08  0.93827000000E+00  0.93827000000E+00 0.  1.
     999902    2    1    2    0    0  0.30280359743E-02 -0.13651141064E-01 -0.24392856489E-02  0.10297358896E+01  0.10296380576E+01 0.  0.
     999903    2    3    3    0    0 -0.36298255115E-01 -0.10772544828E+00 -0.70411939045E-01  0.14124457621E+00  0.45495643943E-01 0.  0.
         14    1    1    2    0    0 -0.30280359743E-02  0.13651141064E-01  0.24392856489E-02  0.14194110352E-01  0.00000000000E+00 0. -1.
     999901    1    3    3    0    0  0.39326291089E-01  0.94074307212E-01  0.67972653396E-01  0.88849131344E+00  0.88000000000E+00 0. -1.
        -11    1    4    4    0    0 -0.22737072715E-01 -0.51497432276E-01 -0.60354574005E-01  0.82534209459E-01  0.51100000000E-03 0.  1.
         11    1    4    4    0    0 -0.13561182400E-01 -0.56228016000E-01 -0.10057365040E-01  0.58710366750E-01  0.51100000000E-03 0. -1.
</event>
<event>
 8    1  0.2190512E+004  0.1043930E+01  0.7957747E-01            NaN
         13   -1    0    0    0    0  0.00000000000E+00  0.00000000000E+00  0.74505805969E-08  0.10566000000E+00  0.10566000000E+00 0.  1.
     999900   -1    0    0    0    0 -0.00000000000E+00 -0.00000000000E+00 -0.74505805969E-08  0.93827000000E+00  0.93827000000E+00 0.  1.
     999902    2    1    2    0    0 -0.72016581338E-02 -0.53691156125E-02 -0.94929479491E-02  0.10308606717E+01  0.10307778214E+01 0.  0.
     999903    2    3    3    0    0 -0.22698778119E-02 -0.96751023609E-01 -0.95713538364E-01  0.14192368527E+00  0.40191268961E-01 0.  0.
         14    1    1    2    0    0  0.72016581338E-02  0.53691156125E-02  0.94929479491E-02  0.13069328334E-01  0.00000000000E+00 0.  1.
     999901    1    3    3    0    0 -0.49317803219E-02  0.91381907996E-01  0.86220590415E-01  0.88893698639E+00  0.88000000000E+00 0.  1.
        -11    1    4    4    0    0 -0.56853832979E-02 -0.60250355075E-02 -0.26469419488E-01  0.27740150056E-01  0.51100000000E-03 0. -1.
         11    1    4    4    0    0  0.34155054860E-02 -0.90725988101E-01 -0.69244118876E-01  0.11418353522E+00  0.51100000000E-03 0.  1.
</event>
<event>
 8    1  0.2190512E+004  0.1043930E+01  0.7957747E-01            NaN
         13   -1    0    0    0    0  0.00000000000E+00  0.00000000000E+00  0.74505805969E-08  0.10566000000E+00  0.10566000000E+00 0. -1.
     999900   -1    0    0    0    0 -0.00000000000E+00 -0.00000000000E+00 -0.74505805969E-08  0.93827000000E+00  0.93827000000E+00 0.  1.
     999902    2    1    2    0    0  0.25220651102E-02  0.11526083881E-01 -0.42450360590E-02  0.10313907914E+01  0.10313145654E+01 0.  0.
     999903    2    3    3    0    0  0.13083320606E+00  0.29413795189E-01 -0.10888696638E-01  0.14188089410E+00  0.45045812671E-01 0.  0.
         14    1    1    2    0    0 -0.25220651102E-02 -0.11526083881E-01  0.42450360590E-02  0.12539208635E-01  0.00000000000E+00 0.  1.
     999901    1    3    3    0    0 -0.12831114095E+00 -0.17887711308E-01  0.66436605791E-02  0.88950989727E+00  0.88000000000E+00 0. -1.
        -11    1    4    4    0    0  0.10058125208E+00  0.21896090684E-02 -0.10752419561E-01  0.10117933735E+00  0.51100000000E-03 0.  1.
         11    1    4    4    0    0  0.30251953982E-01  0.27224186121E-01 -0.13627707744E-03  0.40701556753E-01  0.51100000000E-03 0. -1.
</event>
<event>
 8    1  0.2190512E+004  0.1043930E+01  0.7957747E-01            NaN
         13   -1    0    0    0    0  0.00000000000E+00  0.00000000000E+00  0.74505805969E-08  0.10566000000E+00  0.10566000000E+00 0. -1.
     999900   -1    0    0    0    0 -0.00000000000E+00 -0.00000000000E+00 -0.74505805969E-08  0.93827000000E+00  0.93827000000E+00 0. -1.
     999902    2    1    2    0    0 -0.11469300474E-01  0.61469590402E-02  0.66974729800E-02  0.10292949017E+01  0.10291908513E+01 0.  0.
     999903    2    3    3    0    0  0.26508815409E-01  0.53067393656E-02  0.12992081078E+00  0.13989789570E+00  0.44284595187E-01 0.  0.
         14    1    1    2    0    0  0.11469300474E-01 -0.61469590402E-02 -0.66974729800E-02  0.14635098330E-01  0.00000000000E+00 0.  1.
     999901    1    3    3    0    0 -0.37978115883E-01  0.84021967464E-03 -0.12322333780E+00  0.88939700597E+00  0.88000000000E+00 0. -1.
        -11    1    4    4    0    0  0.19037323481E-01 -0.13468603893E-01  0.10620549298E+00  0.10873679614E+00  0.51100000000E-03 0. -1.
         11    1    4    4    0    0  0.74714919275E-02  0.18775343258E-01  0.23715317798E-01  0.31161099553E-01  0.51100000000E-03 0.  1.
</event>
<event>
 8    1  0.2190512E+004  0.1043930E+01  0.7957747E-01            NaN
         13   -1    0    0    0    0  0.00000000000E+00  0.00000000000E+00  0.74505805969E-08  0.10566000000E+00  0.10566000000E+00 0. -1.
     999900   -1    0    0    0    0 -0.00000000000E+00 -0.00000000000E+00 -0.74505805969E-08  0.93827000000E+00  0.93827000000E+00 0.  1.
     999902    2    1    2    0    0  0.74618819034E-03 -0.74780488587E-02  0.14004346446E-01  0.10280366136E+01  0.10279137509E+01 0.  0.
     999903    2    3    3    0    0 -0.74612120375E-01 -0.39374581110E-01 -0.98230225063E-01  0.13714219648E+00  0.45182726723E-01 0.  0.
         14    1    1    2    0    0 -0.74618819034E-03  0.74780488587E-02 -0.14004346446E-01  0.15893386389E-01  0.00000000000E+00 0.  1.
     999901    1    3    3    0    0  0.75358308565E-01  0.31896532252E-01  0.11223457151E+00  0.89089441713E+00  0.88000000000E+00 0. -1.
        -11    1    4    4    0    0 -0.55612558659E-01 -0.46971779042E-02 -0.51707967982E-01  0.76084132608E-01  0.51100000000E-03 0.  1.
         11    1    4    4    0    0 -0.18999561716E-01 -0.34677403206E-01 -0.46522257080E-01  0.61058063868E-01  0.51100000000E-03 0. -1.
</event>
<event>
 8    1  0.2190512E+004  0.1043930E+01  0.7957747E-01            NaN
         13   -1    0    0    0    0  0.00000000000E+00  0.00000000000E+00  0.74505805969E-08  0.10566000000E+00  0.10566000000E+00 0.  1.
     999900   -1    0    0    0    0 -0.00000000000E+00 -0.00000000000E+00 -0.74505805969E-08  0.93827000000E+00  0.93827000000E+00 0.  1.
     999902    2    1    2    0    0 -0.59208710998E-02 -0.89596969319E-02  0.82280576983E-02  0.10304010009E+01  0.10303121803E+01 0.  0.
     999903    2    3    3    0    0  0.95124349953E-01 -0.91289110213E-01  0.20931151165E-01  0.14071024698E+00  0.44485019042E-01 0.  0.
         14    1    1    2    0    0  0.59208710998E-02  0.89596969319E-02 -0.82280576983E-02  0.13528999120E-01  0.00000000000E+00 0. -1.
     999901    1    3    3    0    0 -0.10104522105E+00  0.82329413281E-01 -0.12703093467E-01  0.88969075390E+00  0.88000000000E+00 0. -1.
        -11    1    4    4    0    0  0.65583838469E-01 -0.84372791475E-01  0.25907536161E-01  0.10996121753E+00  0.51100000000E-03 0. -1.
         11    1    4    4    0    0  0.29540511484E-01 -0.69163187372E-02 -0.49763849960E-02  0.30749029452E-01  0.51100000000E-03 0.  1.
</event>
<event>
 8    1  0.2190512E+004  0.1043930E+01  0.7957747E-01            NaN
         13   -1    0    0    0    0  0.00000000000E+00  0.00000000000E+00  0.74505805969E-08  0.10566000000E+00  0.10566000000E+00 0. -1.
     999900   -1    0    0    0    0 -0.00000000000E+00 -0.00000000000E+00 -0.74505805969E-08  0.93827000000E+00  0.93827000000E+00 0.  1.
     999902    2    1    2    0    0  0.12096847155E-01  0.50803328588E-02 -0.47164038720E-02  0.10299876918E+01  0.10298933232E+01 0.  0.
     999903    2    3    3    0    0  0.36461879757E-02 -0.36713201973E-02 -0.13321410860E+00  0.14057234157E+00  0.44584876428E-01 0.  0.
         14    1    1    2    0    0 -0.12096847155E-01 -0.50803328588E-02  0.47164038720E-02  0.13942308221E-01  0.00000000000E+00 0.  1.
     999901    1    3    3    0    0  0.84506591795E-02  0.87516530561E-02  0.12849770472E+00  0.88941535021E+00  0.88000000000E+00 0. -1.
        -11    1    4    4    0    0  0.22533274026E-01  0.57530040591E-02 -0.59221008663E-01  0.63625737576E-01  0.51100000000E-03 0. -1.
         11    1    4    4    0    0 -0.18887086050E-01 -0.94243242564E-02 -0.73993099933E-01  0.76946603991E-01  0.51100000000E-03 0.  1.
</event>
<event>
 8    1  0.2190512E+004  0.1043930E+01  0.7957747E-01            NaN
         13   -1    0    0    0    0  0.00000000000E+00  0.00000000000E+00  0.74505805969E-08  0.10566000000E+00  0.10566000000E+00 0. -1.
     999900   -1    0    0    0    0 -0.00000000000E+00 -0.00000000000E+00 -0.74505805969E-08  0.93827000000E+00  0.93827000000E+00 0.  1.
     999902    2    1    2    0    0 -0.12932930308E-01  0.25272310634E-03  0.54954701235E-02  0.10298756502E+01  0.10297797484E+01 0.  0.
     999903    2    3    3    0    0  0.12158482216E+00 -0.42465153041E-01 -0.22367269409E-01  0.13819399464E+00  0.44845593011E-01 0.  0.
         14    1    1    2    0    0  0.12932930308E-01 -0.25272310634E-03 -0.54954701235E-02  0.14054349761E-01  0.00000000000E+00 0.  1.
     999901    1    3    3    0    0 -0.13451775247E+00  0.42717876148E-01  0.27862739532E-01  0.89168165560E+00  0.88000000000E+00 0.  1.
        -11    1    4    4    0    0  0.23404111401E-01  0.93007738466E-02 -0.13278628563E-02  0.25224614276E-01  0.51100000000E-03 0. -1.
         11    1    4    4    0    0  0.98180710758E-01 -0.51765926888E-01 -0.21039406553E-01  0.11296938037E+00  0.51100000000E-03 0.  1.
</event>
<event>
 8    1  0.3099200E+004  0.1043930E+01  0.7957747E-01            NaN
         13   -1    0    0    0    0  0.00000000000E+00  0.00000000000E+00  0.74505805969E-08  0.10566000000E+00  0.10566000000E+00 0.  1.
     999900   -1    0    0    0    0 -0.00000000000E+00 -0.00000000000E+00 -0.74505805969E-08  0.93827000000E+00  0.93827000000E+00 0. -1.
     999902    2    1    2    0    0 -0.12786248653E-01 -0.38869504280E-02 -0.39088324545E-02  0.10300060814E+01  0.10299119633E+01 0.  0.
     999903    2    3    3    0    0  0.64049274205E-01  0.28482034032E-01  0.11078717421E+00  0.13865507159E+00  0.45143051743E-01 0.  0.
         14    1    1    2    0    0  0.12786248653E-01  0.38869504280E-02  0.39088324545E-02  0.13923918608E-01  0.00000000000E+00 0.  1.
     999901    1    3    3    0    0 -0.76835522858E-01 -0.32368984460E-01 -0.11469600666E+00  0.89135100980E+00  0.88000000000E+00 0. -1.
        -11    1    4    4    0    0  0.53300205768E-01  0.58987614366E-03  0.66627414353E-01  0.85327213438E-01  0.51100000000E-03 0. -1.
         11    1    4    4    0    0  0.10749068437E-01  0.27892157888E-01  0.44159759854E-01  0.53327858154E-01  0.51100000000E-03 0.  1.
</event>
<event>
 7    1  0.2190512E+004  0.1043930E+01  0.7957747E-01            NaN
         13   -1    0    0    0    0  0.00000000000E+00  0.00000000000E+00  0.74505805969E-08  0.10566000000E+00  0.10566000000E+00 0. -1.
     999900   -1    0    0    0    0 -0.00000000000E+00 -0.00000000000E+00 -0.74505805969E-08  0.93827000000E+00  0.93827000000E+00 0. -1.
     999902    2    1    2    0    0  0.41763395209E-02  0.14217305865E-01  0.12854882709E-02  0.10290563294E+01  0.10289488340E+01 0.  0.
         14    1    1    2    0    0 -0.41763395209E-02 -0.14217305865E-01 -0.12854882709E-02  0.14873670628E-01  0.00000000000E+00 0.  1.
     999901    1    3    3    0    0  0.13843342925E-01  0.25481885414E-01 -0.13418136827E+00  0.89064336534E+00  0.88000000000E+00 0. -1.
        -11    1    3    3    0    0  0.51174749295E-02  0.15650522658E-02  0.66590578695E-01  0.66807216901E-01  0.51100000000E-03 0. -1.
         11    1    3    3    0    0 -0.14784478334E-01 -0.12829631815E-01  0.68876277843E-01  0.71605747134E-01  0.51100000000E-03 0.  1.
</event>
<event>
 8    1  0.2190512E+004  0.1043930E+01  0.7957747E-01            NaN
         13   -1    0    0    0    0  0.00000000000E+00  0.00000000000E+00  0.74505805969E-08  0.10566000000E+00  0.10566000000E+00 0. -1.
     999900   -1    0    0    0    0 -0.00000000000E+00 -0.00000000000E+00 -0.74505805969E-08  0.93827000000E+00  0.93827000000E+00 0. -1.
     999902    2    1    2    0    0 -0.69998838033E-02  0.54823628900E-02  0.10425042876E-01  0.10302283142E+01  0.10301371962E+01 0.  0.
     999903    2    3    3    0    0  0.11212687691E-01 -0.77239595309E-01  0.10917200054E+00  0.14066348696E+00  0.42142750412E-01 0.  0.
         14    1    1    2    0    0  0.69998838033E-02 -0.54823628900E-02 -0.10425042876E-01  0.13701685848E-01  0.00000000000E+00 0. -1.
     999901    1    3    3    0    0 -0.18212571494E-01  0.82721958199E-01 -0.98746957667E-01  0.88956482719E+00  0.88000000000E+00 0. -1.
        -11    1    4    4    0    0  0.17042855972E-01 -0.66499492996E-01  0.63967874127E-01  0.93833850767E-01  0.51100000000E-03 0.  1.
         11    1    4    4    0    0 -0.58301682809E-02 -0.10740102312E-01  0.45204126417E-01  0.46829636193E-01  0.51100000000E-03 0. -1.
</event>
<event>
 8    1  0.2190512E+004  0.1043930E+01  0.7957747E-01            NaN
         13   -1    0    0    0    0  0.00000000000E+00  0.00000000000E+00  0.74505805969E-08  0.10566000000E+00  0.10566000000E+00 0.  1.
     999900   -1    0    0    0    0 -0.00000000000E+00 -0.00000000000E+00 -0.74505805969E-08  0.93827000000E+00  0.93827000000E+00 0.  1.
     999902    2    1    2    0    0 -0.49474199928E-02  0.50550776895E-02 -0.10500137125E-01  0.10312696819E+01  0.10311919672E+01 0.  0.
     999903    2    3    3    0    0  0.53900730908E-01  0.10833827692E+00 -0.59966494213E-01  0.14190055459E+00  0.43558190131E-01 0.  0.
         14    1    1    2    0    0  0.49474199928E-02 -0.50550776895E-02  0.10500137125E-01  0.12660318111E-01  0.00000000000E+00 0.  1.
     999901    1    3    3    0    0 -0.58848150901E-01 -0.10328319923E+00  0.49466357089E-01  0.88936912730E+00  0.88000000000E+00 0. -1.
        -11    1    4    4    0    0  0.53962535287E-01  0.76504157343E-01 -0.30354143040E-01  0.98419898527E-01  0.51100000000E-03 0. -1.
         11    1    4    4    0    0 -0.61804378957E-04  0.31834119573E-01 -0.29612351173E-01  0.43480656064E-01  0.51100000000E-03 0.  1.
</event>
<event>
 8    1  0.2190512E+004  0.1043930E+01  0.7957747E-01            NaN
         13   -1    0    0    0    0  0.00000000000E+00  0.00000000000E+00  0.74505805969E-08  0.10566000000E+00  0.10566000000E+00 0.  1.
     999900   -1    0    0    0    0 -0.00000000000E+00 -0.00000000000E+00 -0.74505805969E-08  0.93827000000E+00  0.93827000000E+00 0.  1.
     999902    2    1    2    0    0  0.49277045398E-02 -0.12370609343E-01  0.36011363346E-03  0.10306091919E+01  0.10305231014E+01 0.  0.
     999903    2    3    3    0    0  0.25850409769E-01  0.47057674280E-01  0.12098281452E+00  0.14014902069E+00  0.46067756588E-01 0.  0.
         14    1    1    2    0    0 -0.49277045398E-02  0.12370609343E-01 -0.36011363346E-03  0.13320808135E-01  0.00000000000E+00 0. -1.
     999901    1    3    3    0    0 -0.20922705229E-01 -0.59428283623E-01 -0.12062270088E+00  0.89046017118E+00  0.88000000000E+00 0. -1.
        -11    1    4    4    0    0  0.33969158363E-01  0.18097096419E-01  0.50356275938E-01  0.63383154434E-01  0.51100000000E-03 0. -1.
         11    1    4    4    0    0 -0.81187485947E-02  0.28960577861E-01  0.70626538578E-01  0.76765866251E-01  0.51100000000E-03 0.  1.
</event>
<event>
 8    1  0.2190512E+004  0.1043930E+01  0.7957747E-01            NaN
         13   -1    0    0    0    0  0.00000000000E+00  0.00000000000E+00  0.74505805969E-08  0.10566000000E+00  0.10566000000E+00 0.  1.
     999900   -1    0    0    0    0 -0.00000000000E+00 -0.00000000000E+00 -0.74505805969E-08  0.93827000000E+00  0.93827000000E+00 0.  1.
     999902    2    1    2    0    0  0.68714241707E-02  0.31968383468E-02 -0.10585912728E-01  0.10309108682E+01  0.10308286571E+01 0.  0.
     999903    2    3    3    0    0 -0.12462327636E+00 -0.89821032333E-02 -0.46198497584E-01  0.14034507099E+00  0.44167845601E-01 0.  0.
         14    1    1    2    0    0 -0.68714241707E-02 -0.31968383468E-02  0.10585912728E-01  0.13019131839E-01  0.00000000000E+00 0. -1.
     999901    1    3    3    0    0  0.13149470053E+00  0.12178941580E-01  0.35612584856E-01  0.89056579717E+00  0.88000000000E+00 0. -1.
        -11    1    4    4    0    0 -0.59719868676E-01 -0.23102285424E-01 -0.10351589947E-01  0.64865975996E-01  0.51100000000E-03 0. -1.
         11    1    4    4    0    0 -0.64903407680E-01  0.14120182190E-01 -0.35846907637E-01  0.75479094998E-01  0.51100000000E-03 0.  1.
</event>
<event>
 8    1  0.2190512E+004  0.1043930E+01  0.7957747E-01            NaN
         13   -1    0    0    0    0  0.00000000000E+00  0.00000000000E+00  0.74505805969E-08  0.10566000000E+00  0.10566000000E+00 0.  1.
     999900   -1    0    0    0    0 -0.00000000000E+00 -0.00000000000E+00 -0.74505805969E-08  0.93827000000E+00  0.93827000000E+00 0.  1.
     999902    2    1    2    0    0 -0.30706890372E-02 -0.30933348556E-02  0.12562160673E-01  0.10306331683E+01  0.10305473895E+01 0.  0.
     999903    2    3    3    0    0 -0.10207265450E+00 -0.83290057382E-01 -0.21114566104E-01  0.14082025238E+00  0.45038407190E-01 0.  0.
         14    1    1    2    0    0  0.30706890372E-02  0.30933348556E-02 -0.12562160673E-01  0.13296831670E-01  0.00000000000E+00 0. -1.
     999901    1    3    3    0    0  0.99001965464E-01  0.80196722526E-01  0.33676726777E-01  0.88981291595E+00  0.88000000000E+00 0.  1.
        -11    1    4    4    0    0 -0.52297565775E-01 -0.69351868598E-01 -0.19907327571E-01  0.89113859057E-01  0.51100000000E-03 0.  1.
         11    1    4    4    0    0 -0.49775088727E-01 -0.13938188784E-01 -0.12072385330E-02  0.51706393321E-01  0.51100000000E-03 0. -1.
</event>
<event>
 8    1  0.2475261E+004  0.1043930E+01  0.7957747E-01            NaN
         13   -1    0    0    0    0  0.00000000000E+00  0.00000000000E+00  0.74505805969E-08  0.10566000000E+00  0.10566000000E+00 0.  1.
     999900   -1    0    0    0    0 -0.00000000000E+00 -0.00000000000E+00 -0.74505805969E-08  0.93827000000E+00  0.93827000000E+00 0.  1.
     999902    2    1    2    0    0  0.42028939893E-02  0.13096634845E-01 -0.30310175172E-03  0.10301721647E+01  0.10300802934E+01 0.  0.
     999903    2    3    3    0    0  0.86221415538E-01 -0.74057944451E-01 -0.67191165567E-01  0.13955610169E+00  0.45194481463E-01 0.  0.
         14    1    1    2    0    0 -0.42028939893E-02 -0.13096634845E-01  0.30310175172E-03  0.13757835324E-01  0.00000000000E+00 0.  1.
     999901    1    3    3    0    0 -0.82018521549E-01  0.87154579296E-01  0.66888063815E-01  0.89061606299E+00  0.88000000000E+00 0. -1.
        -11    1    4    4    0    0  0.40714396705E-01 -0.43487490027E-01 -0.10137199871E-01  0.60430520684E-01  0.51100000000E-03 0.  1.
         11    1    4    4    0    0  0.45507018833E-01 -0.30570454424E-01 -0.57053965696E-01  0.79125581005E-01  0.51100000000E-03 0. -1.
</event>
<event>
 8    1  0.2190512E+004  0.1043930E+01  0.7957747E-01            NaN
         13   -1    0    0    0    0  0.00000000000E+00  0.00000000000E+00  0.74505805969E-08  0.10566000000E+00  0.10566000000E+00 0. -1.
     999900   -1    0    0    0    0 -0.00000000000E+00 -0.00000000000E+00 -0.74505805969E-08  0.93827000000E+00  0.93827000000E+00 0.  1.
     999902    2    1    2    0    0  0.61019648857E-02 -0.15221454901E-01 -0.79548856776E-03  0.10275117337E+01  0.10273805544E+01 0.  0.
     999903    2    3    3    0    0  0.60368761065E-01  0.10166281980E+00  0.50976773218E-01  0.13662050249E+00  0.45681659891E-01 0.  0.
         14    1    1    2    0    0 -0.61019648857E-02  0.15221454901E-01  0.79548856776E-03  0.16418266256E-01  0.00000000000E+00 0. -1.
     999901    1    3    3    0    0 -0.54266796179E-01 -0.11688427470E+00 -0.51772261786E-01  0.89089123126E+00  0.88000000000E+00 0. -1.
        -11    1    4    4    0    0  0.32267749424E-01  0.91229697895E-01  0.39420484664E-01  0.10449067501E+00  0.51100000000E-03 0.  1.
         11    1    4    4    0    0  0.28101011641E-01  0.10433121903E-01  0.11556288554E-01  0.32129827482E-01  0.51100000000E-03 0. -1.
</event>
<event>
 8    1  0.2190512E+004  0.1043930E+01  0.7957747E-01            NaN
         13   -1    0    0    0    0  0.00000000000E+00  0.00000000000E+00  0.74505805969E-08  0.10566000000E+00  0.10566000000E+00 0. -1.
     999900   -1    0    0    0    0 -0.00000000000E+00 -0.00000000000E+00 -0.74505805969E-08  0.93827000000E+00  0.93827000000E+00 0.  1.
     999902    2    1    2    0    0 -0.29796739555E-02  0.13820335431E-01  0.52104439453E-03  0.10297825050E+01  0.10296853189E+01 0.  0.
     999903    2    3    3    0    0 -0.31486384871E-01  0.12648441127E+00 -0.31853920363E-01  0.14155169888E+00  0.45083394806E-01 0.  0.
         14    1    1    2    0    0  0.29796739555E-02 -0.13820335431E-01 -0.52104439453E-03  0.14147495028E-01  0.00000000000E+00 0. -1.
     999901    1    3    3    0    0  0.28506710916E-01 -0.11266407583E+00  0.32374964757E-01  0.88823080609E+00  0.88000000000E+00 0. -1.
        -11    1    4    4    0    0 -0.28335533275E-01  0.10174916134E+00 -0.62478225107E-02  0.10580685557E+00  0.51100000000E-03 0.  1.
         11    1    4    4    0    0 -0.31508515962E-02  0.24735249930E-01 -0.25606097852E-01  0.35744843307E-01  0.51100000000E-03 0. -1.
</event>
<event>
 8    1  0.2239082E+004  0.1043930E+01  0.7957747E-01            NaN
         13   -1    0    0    0    0  0.00000000000E+00  0.00000000000E+00  0.74505805969E-08  0.10566000000E+00  0.10566000000E+00 0. -1.
     999900   -1    0    0    0    0 -0.00000000000E+00 -0.00000000000E+00 -0.74505805969E-08  0.93827000000E+00  0.93827000000E+00 0. -1.
     999902    2    1    2    0    0 -0.96989581039E-02  0.73958712681E-02 -0.24099081928E-02  0.10314971259E+01  0.10314221951E+01 0.  0.
     999903    2    3    3    0    0  0.44531621113E-01  0.72322898063E-01  0.10319509768E+00  0.14115511760E+00  0.45407842687E-01 0.  0.
         14    1    1    2    0    0  0.96989581039E-02 -0.73958712681E-02  0.24099081928E-02  0.12432874069E-01  0.00000000000E+00 0.  1.
     999901    1    3    3    0    0 -0.54230579217E-01 -0.64927026795E-01 -0.10560500587E+00  0.89034200833E+00  0.88000000000E+00 0. -1.
        -11    1    4    4    0    0  0.35923252734E-01  0.15998037067E-01  0.42381845053E-01  0.57817810302E-01  0.51100000000E-03 0.  1.
         11    1    4    4    0    0  0.86083683794E-02  0.56324860997E-01  0.60813252623E-01  0.83337307300E-01  0.51100000000E-03 0. -1.
</event>
<event>
 8    1  0.2190512E+004  0.1043930E+01  0.7957747E-01            NaN
         13   -1    0    0    0    0  0.00000000000E+00  0.00000000000E+00  0.74505805969E-08  0.10566000000E+00  0.10566000000E+00 0. -1.
     999900   -1    0    0    0    0 -0.00000000000E+00 -0.00000000000E+00 -0.74505805969E-08  0.93827000000E+00  0.93827000000E+00 0.  1.
     999902    2    1    2    0    0  0.61556955042E-02 -0.10842568759E-01 -0.92158115882E-02  0.10284256436E+01  0.10283087665E+01 0.  0.
     999903    2    3    3    0    0 -0.23499674113E-01 -0.12582898045E+00 -0.34928843713E-01  0.14007747095E+00  0.44905531277E-01 0.  0.
         14    1    1    2    0    0 -0.61556955042E-02  0.10842568759E-01  0.92158115882E-02  0.15504356409E-01  0.00000000000E+00 0. -1.
     999901    1    3    3    0    0  0.29655369618E-01  0.11498641169E+00  0.25713032125E-01  0.88834817264E+00  0.88000000000E+00 0.  1.
        -11    1    4    4    0    0 -0.27147626239E-01 -0.58414350366E-01 -0.33364091475E-01  0.72544149730E-01  0.51100000000E-03 0. -1.
         11    1    4    4    0    0  0.36479521254E-02 -0.67414630083E-01 -0.15647522381E-02  0.67533321216E-01  0.51100000000E-03 0.  1.
</event>
<event>
 8    1  0.2190512E+004  0.1043930E+01  0.7957747E-01            NaN
         13   -1    0    0    0    0  0.00000000000E+00  0.00000000000E+00  0.74505805969E-08  0.10566000000E+00  0.10566000000E+00 0. -1.
     999900   -1    0    0    0    0 -0.00000000000E+00 -0.00000000000E+00 -0.74505805969E-08  0.93827000000E+00  0.93827000000E+00 0. -1.
     999902    2    1    2    0    0 -0.10767243609E-02 -0.62236112184E-02  0.11592239357E-01  0.10307287620E+01  0.10306442199E+01 0.  0.
     999903    2    3    3    0    0 -0.55132555201E-01 -0.83061650279E-01 -0.87560480532E-01  0.14019107106E+00  0.45253312176E-01 0.  0.
         14    1    1    2    0    0  0.10767243609E-02  0.62236112184E-02 -0.11592239357E-01  0.13201238020E-01  0.00000000000E+00 0.  1.
     999901    1    3    3    0    0  0.54055830840E-01  0.76838039060E-01  0.99152719889E-01  0.89053769092E+00  0.88000000000E+00 0.  1.
        -11    1    4    4    0    0 -0.43499721958E-01 -0.74104369830E-01 -0.48981617435E-01  0.98909774066E-01  0.51100000000E-03 0.  1.
         11    1    4    4    0    0 -0.11632833243E-01 -0.89572804487E-02 -0.38578863097E-01  0.41281296990E-01  0.51100000000E-03 0. -1.
</event>
<event>
 8    1  0.2190512E+004  0.1043930E+01  0.7957747E-01            NaN
         13   -1    0    0    0    0  0.00000000000E+00  0.00000000000E+00  0.74505805969E-08  0.10566000000E+00  0.10566000000E+00 0.  1.
     999900   -1    0    0    0    0 -0.00000000000E+00 -0.00000000000E+00 -0.74505805969E-08  0.93827000000E+00  0.93827000000E+00 0.  1.
     999902    2    1    2    0    0 -0.13629740509E-01 -0.24397171508E-02 -0.25792800918E-04  0.10300836029E+01  0.10299905370E+01 0.  0.
     999903    2    3    3    0    0 -0.90469600223E-01 -0.26108254402E-01  0.95131852891E-01  0.14130942396E+00  0.45297840493E-01 0.  0.
         14    1    1    2    0    0  0.13629740509E-01  0.24397171508E-02  0.25792800918E-04  0.13846397054E-01  0.00000000000E+00 0. -1.
     999901    1    3    3    0    0  0.76839859715E-01  0.23668537251E-01 -0.95157645692E-01  0.88877417898E+00  0.88000000000E+00 0.  1.
        -11    1    4    4    0    0 -0.58319256501E-01 -0.38579332047E-01  0.66214425200E-01  0.96302189828E-01  0.51100000000E-03 0.  1.
         11    1    4    4    0    0 -0.32150343722E-01  0.12471077645E-01  0.28917427691E-01  0.45007234133E-01  0.51100000000E-03 0. -1.
</event>
<event>
 8    1  0.2190512E+004  0.1043930E+01  0.7957747E-01            NaN
         13   -1    0    0    0    0  0.00000000000E+00  0.00000000000E+00  0.74505805969E-08  0.10566000000E+00  0.10566000000E+00 0.  1.
     999900   -1    0    0    0    0 -0.00000000000E+00 -0.00000000000E+00 -0.74505805969E-08  0.93827000000E+00  0.93827000000E+00 0.  1.
     999902    2    1    2    0    0  0.44160259970E-02 -0.58632390141E-02  0.97108615140E-02  0.10317570920E+01  0.10316852801E+01 0.  0.
     999903    2    3    3    0    0  0.52866805927E-02 -0.12576906438E+00  0.49929284101E-01  0.14271508710E+00  0.45042825506E-01 0.  0.
         14    1    1    2    0    0 -0.44160259970E-02  0.58632390141E-02 -0.97108615140E-02  0.12172907980E-01  0.00000000000E+00 0. -1.
     999901    1    3    3    0    0 -0.87065459575E-03  0.11990582536E+00 -0.40218422587E-01  0.88904200492E+00  0.88000000000E+00 0.  1.
        -11    1    4    4    0    0  0.55550431240E-02  0.33755192009E-03  0.81195707309E-02  0.98570277093E-02  0.51100000000E-03 0.  1.
         11    1    4    4    0    0 -0.26836253123E-03 -0.12610661630E+00  0.41809713371E-01  0.13285805939E+00  0.51100000000E-03 0. -1.
</event>
<event>
 8    1  0.2190512E+004  0.1043930E+01  0.7957747E-01            NaN
         13   -1    0    0    0    0  0.00000000000E+00  0.00000000000E+00  0.74505805969E-08  0.10566000000E+00  0.10566000000E+00 0. -1.
     999900   -1    0    0    0    0 -0.00000000000E+00 -0.00000000000E+00 -0.74505805969E-08  0.93827000000E+00  0.93827000000E+00 0.  1.
     999902    2    1    2    0    0  0.56031776964E-02  0.68359754573E-02 -0.11120143446E-01  0.10297249392E+01  0.10296269551E+01 0.  0.
     999903    2    3    3    0    0 -0.77674221781E-01 -0.10561744605E+00  0.41115439149E-02  0.13853870642E+00  0.44584063788E-01 0.  0.
         14    1    1    2    0    0 -0.56031776964E-02 -0.68359754573E-02  0.11120143446E-01  0.14205060754E-01  0.00000000000E+00 0. -1.
     999901    1    3    3    0    0  0.83277399478E-01  0.11245342151E+00 -0.15231687361E-01  0.89118623282E+00  0.88000000000E+00 0.  1.
        -11    1    4    4    0    0 -0.22048977657E-01 -0.14067365076E-01  0.16143770016E-01  0.30739723604E-01  0.51100000000E-03 0. -1.
         11    1    4    4    0    0 -0.55625244124E-01 -0.91550080978E-01 -0.12032226101E-01  0.10779898282E+00  0.51100000000E-03 0.  1.
</event>
<event>
 8    1  0.2190512E+004  0.1043930E+01  0.7957747E-01            NaN
         13   -1    0    0    0    0  0.00000000000E+00  0.00000000000E+00  0.74505805969E-08  0.10566000000E+00  0.10566000000E+00 0. -1.
     999900   -1    0    0    0    0 -0.00000000000E+00 -0.00000000000E+00 -0.74505805969E-08  0.93827000000E+00  0.93827000000E+00 0.  1.
     999902    2    1    2    0    0 -0.25233644416E-02 -0.12040594491E-01 -0.67281652284E-02  0.10299081780E+01  0.10298127226E+01 0.  0.
     999903    2    3    3    0    0 -0.97661756747E-01  0.64264720940E-01 -0.62535255895E-01  0.13974625669E+00  0.44165426975E-01 0.  0.
         14    1    1    2    0    0  0.25233644416E-02  0.12040594491E-01  0.67281652284E-02  0.14021821962E-01  0.00000000000E+00 0.  1.
     999901    1    3    3    0    0  0.95138392305E-01 -0.76305315431E-01  0.55807090666E-01  0.89016192135E+00  0.88000000000E+00 0. -1.
        -11    1    4    4    0    0 -0.49213815207E-01  0.18365306235E-01 -0.48604848937E-01  0.71567985451E-01  0.51100000000E-03 0.  1.
         11    1    4    4    0    0 -0.48447941540E-01  0.45899414705E-01 -0.13930406957E-01  0.68178271237E-01  0.51100000000E-03 0. -1.
</event>
<event>
 8    1  0.2190512E+004  0.1043930E+01  0.7957747E-01            NaN
         13   -1    0    0    0    0  0.00000000000E+00  0.00000000000E+00  0.74505805969E-08  0.10566000000E+00  0.10566000000E+00 0. -1.
     999900   -1    0    0    0    0 -0.00000000000E+00 -0.00000000000E+00 -0.74505805969E-08  0.93827000000E+00  0.93827000000E+00 0. -1.
     999902    2    1    2    0    0 -0.59406130899E-02  0.72353688313E-02  0.99680999382E-02  0.10302550425E+01  0.10301642821E+01 0.  0.
     999903    2    3    3    0    0 -0.12728468801E+00 -0.20199941230E-01  0.38828620955E-01  0.14103627841E+00  0.42120548349E-01 0.  0.
         14    1    1    2    0    0  0.59406130899E-02 -0.72353688313E-02 -0.99680999382E-02  0.13674957491E-01  0.00000000000E+00 0.  1.
     999901    1    3    3    0    0  0.12134407492E+00  0.27435310062E-01 -0.28860521017E-01  0.88921876410E+00  0.88000000000E+00 0.  1.
        -11    1    4    4    0    0 -0.44026456135E-01 -0.26059494982E-01  0.66989992865E-02  0.51600037122E-01  0.51100000000E-03 0.  1.
         11    1    4    4    0    0 -0.83258231878E-01  0.58595537512E-02  0.32129621669E-01  0.89436241285E-01  0.51100000000E-03 0. -1.
</event>
<event>
 8    1  0.2190512E+004  0.1043930E+01  0.7957747E-01            NaN
         13   -1    0    0    0    0  0.00000000000E+00  0.00000000000E+00  0.74505805969E-08  0.10566000000E+00  0.10566000000E+00 0.  1.
     999900   -1    0    0    0    0 -0.00000000000E+00 -0.00000000000E+00 -0.74505805969E-08  0.93827000000E+00  0.93827000000E+00 0.  1.
     999902    2    1    2    0    0  0.56283400892E-02 -0.11621768500E-01 -0.45756220031E-02  0.10302303638E+01  0.10301392733E+01 0.  0.
     999903    2    3    3    0    0  0.17961004834E-01 -0.11127309853E+00 -0.73299090535E-01  0.14185803346E+00  0.45239858882E-01 0.  0.
         14    1    1    2    0    0 -0.56283400892E-02  0.11621768500E-01  0.45756220031E-02  0.13699636197E-01  0.00000000000E+00 0.  1.
     999901    1    3    3    0    0 -0.12332664745E-01  0.99651330031E-01  0.68723468532E-01  0.88837233035E+00  0.88000000000E+00 0. -1.
        -11    1    4    4    0    0  0.32602108834E-01 -0.66432721503E-01 -0.49400284061E-01  0.88976700169E-01  0.51100000000E-03 0. -1.
         11    1    4    4    0    0 -0.14641104000E-01 -0.44840377028E-01 -0.23898806475E-01  0.52881333288E-01  0.51100000000E-03 0.  1.
</event>
<event>
 8    1  0.2190512E+004  0.1043930E+01  0.7957747E-01            NaN
         13   -1    0    0    0    0  0.00000000000E+00  0.00000000000E+00  0.74505805969E-08  0.10566000000E+00  0.10566000000E+00 0. -1.
     999900   -1    0    0    0    0 -0.00000000000E+00 -0.00000000000E+00 -0.74505805969E-08  0.93827000000E+00  0.93827000000E+00 0. -1.
     999902    2    1    2    0    0 -0.55237017397E-02  0.45356194644E-02  0.10367444783E-01  0.10313376596E+01  0.10312607823E+01 0.  0.
     999903    2    3    3    0    0  0.13129319808E+00 -0.39478033647E-02 -0.18024236526E-01  0.14027261143E+00  0.45804403737E-01 0.  0.
         14    1    1    2    0    0  0.55237017397E-02 -0.45356194644E-02 -0.10367444783E-01  0.12592340377E-01  0.00000000000E+00 0.  1.
     999901    1    3    3    0    0 -0.13681689982E+00  0.84834228291E-02  0.28391681309E-01  0.89106504819E+00  0.88000000000E+00 0.  1.
        -11    1    4    4    0    0  0.11772098298E+00 -0.17680396812E-01 -0.10357501859E-01  0.11949211367E+00  0.51100000000E-03 0. -1.
         11    1    4    4    0    0  0.13572215107E-01  0.13732593447E-01 -0.76667346671E-02  0.20780497760E-01  0.51100000000E-03 0.  1.
</event>
<event>
 8    1  0.2190512E+004  0.1043930E+01  0.7957747E-01            NaN
         13   -1    0    0    0    0  0.00000000000E+00  0.00000000000E+00  0.74505805969E-08  0.10566000000E+00  0.10566000000E+00 0.  1.
     999900   -1    0    0    0    0 -0.00000000000E+00 -0.00000000000E+00 -0.74505805969E-08  0.93827000000E+00  0.93827000000E+00 0.  1.
     999902    2    1    2    0    0 -0.12576375034E-01  0.88547325714E-04  0.88387790802E-02  0.10285580429E+01  0.10284431684E+01 0.  0.
     999903    2    3    3    0    0  0.12396556318E+00 -0.83412005259E-02  0.37326135820E-01  0.13753262741E+00  0.45661216667E-01 0.  0.
         14    1    1    2    0    0  0.12576375034E-01 -0.88547325714E-04 -0.88387790802E-02  0.15371957106E-01  0.00000000000E+00 0. -1.
     999901    1    3    3    0    0 -0.13654193821E+00  0.84297478516E-02 -0.28487356740E-01  0.89102541548E+00  0.88000000000E+00 0.  1.
        -11    1    4    4    0    0  0.68244889638E-01  0.92432946633E-02  0.12894568737E-02  0.68881980793E-01  0.51100000000E-03 0. -1.
         11    1    4    4    0    0  0.55720673540E-01 -0.17584495189E-01  0.36036678946E-01  0.68650646620E-01  0.51100000000E-03 0.  1.
</event>
<event>
 8    1  0.2190512E+004  0.1043930E+01  0.7957747E-01            NaN
         13   -1    0    0    0    0  0.00000000000E+00  0.00000000000E+00  0.74505805969E-08  0.10566000000E+00  0.10566000000E+00 0. -1.
     999900   -1    0    0    0    0 -0.00000000000E+00 -0.00000000000E+00 -0.74505805969E-08  0.93827000000E+00  0.93827000000E+00 0. -1.
     999902    2    1    2    0    0 -0.10553452390E-01  0.99924571764E-02 -0.82355182652E-03  0.10293731186E+01  0.10292701854E+01 0.  0.
     999903    2    3    3    0    0 -0.18442371144E-01  0.10655763416E+00 -0.78478855659E-01  0.14065639511E+00  0.43939051507E-01 0.  0.
         14    1    1    2    0    0  0.10553452390E-01 -0.99924571764E-02  0.82355182652E-03  0.14556881375E-01  0.00000000000E+00 0. -1.
     999901    1    3    3    0    0  0.78889187547E-02 -0.96565176987E-01  0.77655303832E-01  0.88871672352E+00  0.88000000000E+00 0.  1.
        -11    1    4    4    0    0 -0.23505335324E-01  0.71430784786E-01 -0.72884433086E-01  0.10472468434E+00  0.51100000000E-03 0.  1.
         11    1    4    4    0    0  0.50629641792E-02  0.35126849377E-01 -0.55944225728E-02  0.35931710763E-01  0.51100000000E-03 0. -1.
</event>
<event>
 8    1  0.2190512E+004  0.1043930E+01  0.7957747E-01            NaN
         13   -1    0    0    0    0  0.00000000000E+00  0.00000000000E+00  0.74505805969E-08  0.10566000000E+00  0.10566000000E+00 0. -1.
     999900   -1    0    0    0    0 -0.00000000000E+00 -0.00000000000E+00 -0.74505805969E-08  0.93827000000E+00  0.93827000000E+00 0.  1.
     999902    2    1    2    0    0  0.33968009437E-02  0.93951566698E-02  0.10374969107E-01  0.10295269722E+01  0.10294262185E+01 0.  0.
     999903    2    3    3    0    0  0.12457080515E+00 -0.12211332033E-01 -0.42026675960E-01  0.13941691606E+00  0.44764191791E-01 0.  0.
         14    1    1    2    0    0 -0.33968009437E-02 -0.93951566698E-02 -0.10374969107E-01  0.14403027788E-01  0.00000000000E+00 0.  1.
     999901    1    3    3    0    0 -0.12117400421E+00  0.21606488703E-01  0.52401645067E-01  0.89011005615E+00  0.88000000000E+00 0. -1.
        -11    1    4    4    0    0  0.20131002715E-01  0.13847319980E-01 -0.18075299477E-02  0.24505791692E-01  0.51100000000E-03 0. -1.
         11    1    4    4    0    0  0.10443980244E+00 -0.26058652013E-01 -0.40219146012E-01  0.11491112437E+00  0.51100000000E-03 0.  1.
</event>
<event>
 8    1  0.2190512E+004  0.1043930E+01  0.7957747E-01            NaN
         13   -1    0    0    0    0  0.00000000000E+00  0.00000000000E+00  0.74505805969E-08  0.10566000000E+00  0.10566000000E+00 0.  1.
     999900   -1    0    0    0    0 -0.00000000000E+00 -0.00000000000E+00 -0.74505805969E-08  0.93827000000E+00  0.93827000000E+00 0.  1.
     999902    2    1    2    0    0  0.37328158620E-02 -0.12146635872E-02 -0.18343123431E-01  0.10251715486E+01  0.10249999144E+01 0.  0.
     999903    2    3    3    0    0 -0.10364142898E-01  0.69259009251E-01  0.10426140794E+00  0.13376976830E+00  0.46040025024E-01 0.  0.
         14    1    1    2    0    0 -0.37328158620E-02  0.12146635872E-02  0.18343123431E-01  0.18758451405E-01  0.00000000000E+00 0.  1.
     999901    1    3    3    0    0  0.14096958760E-01 -0.70473672838E-01 -0.12260453137E+00  0.89140178030E+00  0.88000000000E+00 0.  1.
        -11    1    4    4    0    0 -0.21323700736E-01  0.12266619646E-01  0.41811783166E-01  0.48514497866E-01  0.51100000000E-03 0.  1.
         11    1    4    4    0    0  0.10959557839E-01  0.56992389605E-01  0.62449624771E-01  0.85255270429E-01  0.51100000000E-03 0. -1.
</event>
<event>
 8    1  0.2190512E+004  0.1043930E+01  0.7957747E-01            NaN
         13   -1    0    0    0    0  0.00000000000E+00  0.00000000000E+00  0.74505805969E-08  0.10566000000E+00  0.10566000000E+00 0.  1.
     999900   -1    0    0    0    0 -0.00000000000E+00 -0.00000000000E+00 -0.74505805969E-08  0.93827000000E+00  0.93827000000E+00 0.  1.
     999902    2    1    2    0    0  0.86416193300E-03  0.63169971560E-02  0.14932568926E-01  0.10276932256E+01  0.10275649532E+01 0.  0.
     999903    2    3    3    0    0  0.87081093566E-01  0.24176657237E-01  0.96370448117E-01  0.13955784461E+00  0.44961106641E-01 0.  0.
         14    1    1    2    0    0 -0.86416193300E-03 -0.63169971560E-02 -0.14932568926E-01  0.16236774422E-01  0.00000000000E+00 0. -1.
     999901    1    3    3    0    0 -0.86216931633E-01 -0.17859660081E-01 -0.81437879191E-01  0.88813538097E+00  0.88000000000E+00 0. -1.
        -11    1    4    4    0    0  0.16066308759E-01 -0.55828624857E-02  0.41944737493E-01  0.45264961670E-01  0.51100000000E-03 0. -1.
         11    1    4    4    0    0  0.71014784806E-01  0.29759519723E-01  0.54425710624E-01  0.94292882940E-01  0.51100000000E-03 0.  1.
</event>
<event>
 8    1  0.2190512E+004  0.1043930E+01  0.7957747E-01            NaN
         13   -1    0    0    0    0  0.00000000000E+00  0.00000000000E+00  0.74505805969E-08  0.10566000000E+00  0.10566000000E+00 0.  1.
     999900   -1    0    0    0    0 -0.00000000000E+00 -0.00000000000E+00 -0.74505805969E-08  0.93827000000E+00  0.93827000000E+00 0. -1.
     999902    2    1    2    0    0 -0.68758903629E-02  0.77270393012E-02  0.16750031737E-01  0.10242437467E+01  0.10240545416E+01 0.  0.
     999903    2    3    3    0    0 -0.10524325672E+00  0.31038539673E-01  0.67551598774E-01  0.13700062107E+00  0.46544791829E-01 0.  0.
         14    1    1    2    0    0  0.68758903629E-02 -0.77270393012E-02 -0.16750031737E-01  0.19686253271E-01  0.00000000000E+00 0. -1.
     999901    1    3    3    0    0  0.98367366360E-01 -0.23311500371E-01 -0.50801567037E-01  0.88724312566E+00  0.88000000000E+00 0. -1.
        -11    1    4    4    0    0 -0.38590033818E-01  0.21648827409E-01  0.51309789213E-01  0.67755575626E-01  0.51100000000E-03 0. -1.
         11    1    4    4    0    0 -0.66653222904E-01  0.93897122636E-02  0.16241809561E-01  0.69245045445E-01  0.51100000000E-03 0.  1.
</event>
<event>
 8    1  0.2190512E+004  0.1043930E+01  0.7957747E-01            NaN
         13   -1    0    0    0    0  0.00000000000E+00  0.00000000000E+00  0.74505805969E-08  0.10566000000E+00  0.10566000000E+00 0. -1.
     999900   -1    0    0    0    0 -0.00000000000E+00 -0.00000000000E+00 -0.74505805969E-08  0.93827000000E+00  0.93827000000E+00 0. -1.
     999902    2    1    2    0    0  0.59112524475E-03 -0.18361290649E-02  0.13859288171E-01  0.10299371208E+01  0.10298420618E+01 0.  0.
     999903    2    3    3    0    0  0.58159287486E-01 -0.57103111736E-01  0.10442191604E+00  0.14169721954E+00  0.50308025052E-01 0.  0.
         14    1    1    2    0    0 -0.59112524475E-03  0.18361290649E-02 -0.13859288171E-01  0.13992879175E-01  0.00000000000E+00 0.  1.
     999901    1    3    3    0    0 -0.57568162242E-01  0.55266982671E-01 -0.90562627865E-01  0.88823990129E+00  0.88000000000E+00 0. -1.
        -11    1    4    4    0    0  0.42612606959E-01 -0.10184107471E-01  0.33064359347E-01  0.54891377254E-01  0.51100000000E-03 0. -1.
         11    1    4    4    0    0  0.15546680528E-01 -0.46919004264E-01  0.71357556689E-01  0.86805842281E-01  0.51100000000E-03 0.  1.
</event>
<event>
 8    1  0.2190512E+004  0.1043930E+01  0.7957747E-01            NaN
         13   -1    0    0    0    0  0.00000000000E+00  0.00000000000E+00  0.74505805969E-08  0.10566000000E+00  0.10566000000E+00 0. -1.
     999900   -1    0    0    0    0 -0.00000000000E+00 -0.00000000000E+00 -0.74505805969E-08  0.93827000000E+00  0.93827000000E+00 0. -1.
     999902    2    1    2    0    0 -0.21026842369E-02  0.88535606361E-02  0.80266196159E-02  0.10317960213E+01  0.10317246707E+01 0.  0.
     999903    2    3    3    0    0  0.37085935059E-01 -0.11855162393E+00 -0.47001058210E-01  0.14005846221E+00  0.44468182419E-01 0.  0.
         14    1    1    2    0    0  0.21026842369E-02 -0.88535606361E-02 -0.80266196159E-02  0.12133978713E-01  0.00000000000E+00 0.  1.
     999901    1    3    3    0    0 -0.39188619296E-01  0.12740518457E+00  0.55027677826E-01  0.89173755907E+00  0.88000000000E+00 0.  1.
        -11    1    4    4    0    0  0.32442405688E-02 -0.31328972233E-01 -0.32714056685E-01  0.45414757776E-01  0.51100000000E-03 0.  1.
         11    1    4    4    0    0  0.33841694491E-01 -0.87222651702E-01 -0.14287001525E-01  0.94643704437E-01  0.51100000000E-03 0. -1.
</event>
<event>
 8    1  0.2190512E+004  0.1043930E+01  0.7957747E-01            NaN
         13   -1    0    0    0    0  0.00000000000E+00  0.00000000000E+00  0.74505805969E-08  0.10566000000E+00  0.10566000000E+00 0. -1.
     999900   -1    0    0    0    0 -0.00000000000E+00 -0.00000000000E+00 -0.74505805969E-08  0.93827000000E+00  0.93827000000E+00 0.  1.
     999902    2    1    2    0    0  0.11368094276E-01 -0.16609525135E-02 -0.75057551781E-02  0.10302067099E+01  0.10301153025E+01 0.  0.
     999903    2    3    3    0    0  0.13308408545E+00  0.64694621689E-02  0.14485900000E-01  0.14151974641E+00  0.45439735764E-01 0.  0.
         14    1    1    2    0    0 -0.11368094276E-01  0.16609525135E-02  0.75057551781E-02  0.13723290112E-01  0.00000000000E+00 0. -1.
     999901    1    3    3    0    0 -0.12171599117E+00 -0.81304146824E-02 -0.21991655178E-01  0.88868696347E+00  0.88000000000E+00 0. -1.
        -11    1    4    4    0    0  0.11868118052E+00  0.55235829405E-02 -0.29895840565E-02  0.11884835427E+00  0.51100000000E-03 0. -1.
         11    1    4    4    0    0  0.14402904926E-01  0.94587922843E-03  0.17475484057E-01  0.22671392146E-01  0.51100000000E-03 0.  1.
</event>
<event>
 8    1  0.2190512E+004  0.1043930E+01  0.7957747E-01            NaN
         13   -1    0    0    0    0  0.00000000000E+00  0.00000000000E+00  0.74505805969E-08  0.10566000000E+00  0.10566000000E+00 0.  1.
     999900   -1    0    0    0    0 -0.00000000000E+00 -0.00000000000E+00 -0.74505805969E-08  0.93827000000E+00  0.93827000000E+00 0.  1.
     999902    2    1    2    0    0  0.16817865752E-02 -0.12276390498E-01  0.67442550132E-02  0.10298224437E+01  0.10297258093E+01 0.  0.
     999903    2    3    3    0    0  0.37338568309E-02  0.11462347799E+00 -0.62035301372E-01  0.13806103220E+00  0.45387075292E-01 0.  0.
         14    1    1    2    0    0 -0.16817865752E-02  0.12276390498E-01 -0.67442550132E-02  0.14107556324E-01  0.00000000000E+00 0. -1.
     999901    1    3    3    0    0 -0.20520702556E-02 -0.12689986849E+00  0.68779556385E-01  0.89176141147E+00  0.88000000000E+00 0. -1.
        -11    1    4    4    0    0  0.32022688859E-02  0.11024848112E+00 -0.42781362165E-01  0.11830252823E+00  0.51100000000E-03 0.  1.
         11    1    4    4    0    0  0.53158794495E-03  0.43749968684E-02 -0.19253939208E-01  0.19758503976E-01  0.51100000000E-03 0. -1.
</event>
<event>
 8    1  0.2190512E+004  0.1043930E+01  0.7957747E-01            NaN
         13   -1    0    0    0    0  0.00000000000E+00  0.00000000000E+00  0.74505805969E-08  0.10566000000E+00  0.10566000000E+00 0. -1.
     999900   -1    0    0    0    0 -0.00000000000E+00 -0.00000000000E+00 -0.74505805969E-08  0.93827000000E+00  0.93827000000E+00 0. -1.
     999902    2    1    2    0    0  0.12804026449E-01  0.16363681480E-02  0.13704633343E-02  0.10309492849E+01  0.10308675614E+01 0.  0.
     999903    2    3    3    0    0  0.26845646278E-01 -0.64330524533E-01 -0.11287754106E+00  0.14100467737E+00  0.47768971656E-01 0.  0.
         14    1    1    2    0    0 -0.12804026449E-01 -0.16363681480E-02 -0.13704633343E-02  0.12980715072E-01  0.00000000000E+00 0.  1.
     999901    1    3    3    0    0 -0.14041619829E-01  0.65966892681E-01  0.11424800439E+00  0.88994460756E+00  0.88000000000E+00 0.  1.
        -11    1    4    4    0    0 -0.97079819121E-02 -0.38585718027E-01 -0.53026813434E-01  0.66296354443E-01  0.51100000000E-03 0.  1.
         11    1    4    4    0    0  0.36553628190E-01 -0.25744806506E-01 -0.59850727626E-01  0.74708322925E-01  0.51100000000E-03 0. -1.
</event>
<event>
 8    1  0.2190512E+004  0.1043930E+01  0.7957747E-01            NaN
         13   -1    0    0    0    0  0.00000000000E+00  0.00000000000E+00  0.74505805969E-08  0.10566000000E+00  0.10566000000E+00 0.  1.
     999900   -1    0    0    0    0 -0.00000000000E+00 -0.00000000000E+00 -0.74505805969E-08  0.93827000000E+00  0.93827000000E+00 0.  1.
     999902    2    1    2    0    0  0.87953002916E-02 -0.53912505724E-02  0.89757144379E-02  0.10302557052E+01  0.10301649536E+01 0.  0.
     999903    2    3    3    0    0 -0.39259084875E-03  0.48094675106E-01  0.12543188998E+00  0.14092606862E+00  0.42588095659E-01 0.  0.
         14    1    1    2    0    0 -0.87953002916E-02  0.53912505724E-02 -0.89757144379E-02  0.13674294849E-01  0.00000000000E+00 0. -1.
     999901    1    3    3    0    0  0.91878911403E-02 -0.53485925678E-01 -0.11645617554E+00  0.88932963653E+00  0.88000000000E+00 0.  1.
        -11    1    4    4    0    0 -0.60929338677E-02  0.47423223443E-01  0.67565394748E-01  0.82773363187E-01  0.51100000000E-03 0.  1.
         11    1    4    4    0    0  0.57003430190E-02  0.67145166307E-03  0.57866495232E-01  0.58152705434E-01  0.51100000000E-03 0. -1.
</event>
<event>
 8    1  0.2190512E+004  0.1043930E+01  0.7957747E-01            NaN
         13   -1    0    0    0    0  0.00000000000E+00  0.00000000000E+00  0.74505805969E-08  0.10566000000E+00  0.10566000000E+00 0. -1.
     999900   -1    0    0    0    0 -0.00000000000E+00 -0.00000000000E+00 -0.74505805969E-08  0.93827000000E+00  0.93827000000E+00 0. -1.
     999902    2    1    2    0    0 -0.13634515109E-01  0.23216868167E-02 -0.56424029760E-02  0.10289925657E+01  0.10288841399E+01 0.  0.
     999903    2    3    3    0    0 -0.21860888896E-01 -0.11713898089E+00 -0.56177923267E-01  0.13944640998E+00  0.45715455652E-01 0.  0.
         14    1    1    2    0    0  0.13634515109E-01 -0.23216868167E-02  0.56424029760E-02  0.14937434294E-01  0.00000000000E+00 0. -1.
     999901    1    3    3    0    0  0.82263737868E-02  0.11946066771E+00  0.50535520291E-01  0.88954615573E+00  0.88000000000E+00 0.  1.
        -11    1    4    4    0    0 -0.29760708568E-01 -0.67414113066E-01 -0.49216163092E-01  0.88616331708E-01  0.51100000000E-03 0. -1.
         11    1    4    4    0    0  0.78998196719E-02 -0.49724867828E-01 -0.69617601755E-02  0.50830078272E-01  0.51100000000E-03 0.  1.
</event>
<event>
 8    1  0.2190512E+004  0.1043930E+01  0.7957747E-01            NaN
         13   -1    0    0    0    0  0.00000000000E+00  0.00000000000E+00  0.74505805969E-08  0.10566000000E+00  0.10566000000E+00 0.  1.
     999900   -1    0    0    0    0 -0.00000000000E+00 -0.00000000000E+00 -0.74505805969E-08  0.93827000000E+00  0.93827000000E+00 0.  1.
     999902    2    1    2    0    0 -0.11746184908E-01 -0.18177523203E-02  0.75093029756E-02  0.10298706005E+01  0.10297746292E+01 0.  0.
     999903    2    3    3    0    0  0.11634270538E+00 -0.56866771083E-01 -0.19748059392E-01  0.13847836242E+00  0.44908977525E-01 0.  0.
         14    1    1    2    0    0  0.11746184908E-01  0.18177523203E-02 -0.75093029756E-02  0.14059399510E-01  0.00000000000E+00 0. -1.
     999901    1    3    3    0    0 -0.12808889028E+00  0.55049018763E-01  0.27257362367E-01  0.89139223807E+00  0.88000000000E+00 0.  1.
        -11    1    4    4    0    0  0.11189632593E+00 -0.39606810843E-01 -0.21238661146E-01  0.12058536010E+00  0.51100000000E-03 0. -1.
         11    1    4    4    0    0  0.44463794476E-02 -0.17259960240E-01  0.14906017546E-02  0.17893002327E-01  0.51100000000E-03 0.  1.
</event>
<event>
 8    1  0.2190512E+004  0.1043930E+01  0.7957747E-01            NaN
         13   -1    0    0    0    0  0.00000000000E+00  0.00000000000E+00  0.74505805969E-08  0.10566000000E+00  0.10566000000E+00 0. -1.
     999900   -1    0    0    0    0 -0.00000000000E+00 -0.00000000000E+00 -0.74505805969E-08  0.93827000000E+00  0.93827000000E+00 0. -1.
     999902    2    1    2    0    0 -0.90324544979E-02 -0.65741030422E-02 -0.80842324241E-02  0.10301401893E+01  0.10300478876E+01 0.  0.
     999903    2    3    3    0    0 -0.65528280608E-02 -0.80032336246E-02  0.13116900407E+00  0.13918583872E+00  0.45391615598E-01 0.  0.
         14    1    1    2    0    0  0.90324544979E-02  0.65741030422E-02  0.80842324241E-02  0.13789810693E-01  0.00000000000E+00 0. -1.
     999901    1    3    3    0    0 -0.24796264371E-02  0.14291305823E-02 -0.13925323649E+00  0.89095435059E+00  0.88000000000E+00 0. -1.
        -11    1    4    4    0    0  0.18830859066E-01 -0.42500042848E-02  0.74741782438E-01  0.77196236648E-01  0.51100000000E-03 0. -1.
         11    1    4    4    0    0 -0.25383687126E-01 -0.37532293398E-02  0.56427221632E-01  0.61989602069E-01  0.51100000000E-03 0.  1.
</event>
<event>
 8    1  0.2190512E+004  0.1043930E+01  0.7957747E-01            NaN
         13   -1    0    0    0    0  0.00000000000E+00  0.00000000000E+00  0.74505805969E-08  0.10566000000E+00  0.10566000000E+00 0. -1.
     999900   -1    0    0    0    0 -0.00000000000E+00 -0.00000000000E+00 -0.74505805969E-08  0.93827000000E+00  0.93827000000E+00 0. -1.
     999902    2    1    2    0    0  0.24646051522E-02 -0.70763992561E-02 -0.11797790640E-01  0.10299536783E+01  0.10298588456E+01 0.  0.
     999903    2    3    3    0    0  0.29261142169E-01  0.10933296546E-01 -0.13057774120E+00  0.14138680955E+00  0.44316272459E-01 0.  0.
         14    1    1    2    0    0 -0.24646051522E-02  0.70763992561E-02  0.11797790640E-01  0.13976321726E-01  0.00000000000E+00 0. -1.
     999901    1    3    3    0    0 -0.26796537016E-01 -0.18009695802E-01  0.11877995056E+00  0.88856686872E+00  0.88000000000E+00 0.  1.
        -11    1    4    4    0    0  0.91859319903E-02  0.16798912303E-01 -0.16123478240E-01  0.25036223211E-01  0.51100000000E-03 0.  1.
         11    1    4    4    0    0  0.20075210178E-01 -0.58656157564E-02 -0.11445426296E+00  0.11635058634E+00  0.51100000000E-03 0. -1.
</event>
<event>
 8    1  0.2190512E+004  0.1043930E+01  0.7957747E-01            NaN
         13   -1    0    0    0    0  0.00000000000E+00  0.00000000000E+00  0.74505805969E-08  0.10566000000E+00  0.10566000000E+00 0.  1.
     999900   -1    0    0    0    0 -0.00000000000E+00 -0.00000000000E+00 -0.74505805969E-08  0.93827000000E+00  0.93827000000E+00 0. -1.
     999902    2    1    2    0    0 -0.99591605398E-02 -0.73035986301E-02 -0.81545810542E-02  0.10291305195E+01  0.10290241015E+01 0.  0.
     999903    2    3    3    0    0  0.60726474567E-01  0.76086607227E-01 -0.87917598543E-01  0.13878647114E+00  0.45335459920E-01 0.  0.
         14    1    1    2    0    0  0.99591605398E-02  0.73035986301E-02  0.81545810542E-02  0.14799480524E-01  0.00000000000E+00 0. -1.
     999901    1    3    3    0    0 -0.70685635107E-01 -0.83390205857E-01  0.79763017489E-01  0.89034404833E+00  0.88000000000E+00 0.  1.
        -11    1    4    4    0    0  0.59142599658E-01  0.75501764096E-01 -0.65136097377E-01  0.11593677492E+00  0.51100000000E-03 0.  1.
         11    1    4    4    0    0  0.15838749093E-02  0.58484313146E-03 -0.22781501166E-01  0.22849696225E-01  0.51100000000E-03 0. -1.
</event>
<event>
 8    1  0.2190512E+004  0.1043930E+01  0.7957747E-01            NaN
         13   -1    0    0    0    0  0.00000000000E+00  0.00000000000E+00  0.74505805969E-08  0.10566000000E+00  0.10566000000E+00 0.  1.
     999900   -1    0    0    0    0 -0.00000000000E+00 -0.00000000000E+00 -0.74505805969E-08  0.93827000000E+00  0.93827000000E+00 0.  1.
     999902    2    1    2    0    0 -0.10509581549E-01 -0.47590424930E-02  0.80127014054E-02  0.10298835352E+01  0.10297877417E+01 0.  0.
     999903    2    3    3    0    0  0.29114602656E-01  0.12654322748E+00  0.22522328139E-01  0.13914177051E+00  0.44635507468E-01 0.  0.
         14    1    1    2    0    0  0.10509581549E-01  0.47590424930E-02 -0.80127014054E-02  0.14046464808E-01  0.00000000000E+00 0. -1.
     999901    1    3    3    0    0 -0.39624184205E-01 -0.13130226998E+00 -0.14509626734E-01  0.89074176468E+00  0.88000000000E+00 0. -1.
        -11    1    4    4    0    0  0.74312337434E-02  0.87566743917E-01 -0.26523900019E-02  0.87923001365E-01  0.51100000000E-03 0. -1.
         11    1    4    4    0    0  0.21683368913E-01  0.38976483567E-01  0.25174718141E-01  0.51218769149E-01  0.51100000000E-03 0.  1.
</event>
<event>
 8    1  0.2190512E+004  0.1043930E+01  0.7957747E-01            NaN
         13   -1    0    0    0    0  0.00000000000E+00  0.00000000000E+00  0.74505805969E-08  0.10566000000E+00  0.10566000000E+00 0. -1.
     999900   -1    0    0    0    0 -0.00000000000E+00 -0.00000000000E+00 -0.74505805969E-08  0.93827000000E+00  0.93827000000E+00 0.  1.
     999902    2    1    2    0    0  0.77295402939E-02 -0.97303472374E-02 -0.53088140000E-02  0.10304167119E+01  0.10303280988E+01 0.  0.
     999903    2    3    3    0    0  0.42872096723E-01 -0.11959516352E+00 -0.46089305868E-01  0.14195268577E+00  0.43420284044E-01 0.  0.
         14    1    1    2    0    0 -0.77295402939E-02  0.97303472374E-02  0.53088140000E-02  0.13513288149E-01  0.00000000000E+00 0. -1.
     999901    1    3    3    0    0 -0.35142556429E-01  0.10986481628E+00  0.40780491868E-01  0.88846402608E+00  0.88000000000E+00 0. -1.
        -11    1    4    4    0    0  0.23132961043E-01 -0.82424725906E-01 -0.50883400820E-01  0.99590917896E-01  0.51100000000E-03 0.  1.
         11    1    4    4    0    0  0.19739135680E-01 -0.37170437613E-01  0.47940949523E-02  0.42361767870E-01  0.51100000000E-03 0. -1.
</event>
<event>
 8    1  0.2190512E+004  0.1043930E+01  0.7957747E-01            NaN
         13   -1    0    0    0    0  0.00000000000E+00  0.00000000000E+00  0.74505805969E-08  0.10566000000E+00  0.10566000000E+00 0.  1.
     999900   -1    0    0    0    0 -0.00000000000E+00 -0.00000000000E+00 -0.74505805969E-08  0.93827000000E+00  0.93827000000E+00 0. -1.
     999902    2    1    2    0    0  0.13642870285E-01 -0.12035941490E-02  0.22087260482E-03  0.10302323603E+01  0.10301412966E+01 0.  0.
     999903    2    3    3    0    0 -0.71499396004E-02  0.12150559462E+00 -0.52537101387E-01  0.13991034565E+00  0.44721657367E-01 0.  0.
         14    1    1    2    0    0 -0.13642870285E-01  0.12035941490E-02 -0.22087260482E-03  0.13697639695E-01  0.00000000000E+00 0.  1.
     999901    1    3    3    0    0  0.20792809886E-01 -0.12270918877E+00  0.52757973992E-01  0.89032201465E+00  0.88000000000E+00 0.  1.
        -11    1    4    4    0    0  0.12260977745E-01  0.95406552187E-01 -0.46430975797E-01  0.10681216415E+00  0.51100000000E-03 0.  1.
         11    1    4    4    0    0 -0.19410917345E-01  0.26099042437E-01 -0.61061255899E-02  0.33098181507E-01  0.51100000000E-03 0. -1.
</event>
<event>
 8    1  0.2190512E+004  0.1043930E+01  0.7957747E-01            NaN
         13   -1    0    0    0    0  0.00000000000E+00  0.00000000000E+00  0.74505805969E-08  0.10566000000E+00  0.10566000000E+00 0. -1.
     999900   -1    0    0    0    0 -0.00000000000E+00 -0.00000000000E+00 -0.74505805969E-08  0.93827000000E+00  0.93827000000E+00 0.  1.
     999902    2    1    2    0    0  0.51549787681E-02  0.61965230005E-02 -0.11687777665E-01  0.10297322942E+01  0.10296344122E+01 0.  0.
     999903    2    3    3    0    0 -0.81612018821E-01 -0.96322416281E-02 -0.10410113426E+00  0.14050831221E+00  0.46392218645E-01 0.  0.
         14    1    1    2    0    0 -0.51549787681E-02 -0.61965230005E-02  0.11687777665E-01  0.14197705805E-01  0.00000000000E+00 0.  1.
     999901    1    3    3    0    0  0.86766997589E-01  0.15828764629E-01  0.92413356596E-01  0.88922398199E+00  0.88000000000E+00 0. -1.
        -11    1    4    4    0    0 -0.42444050982E-01 -0.27633435478E-01 -0.48231696842E-01  0.69940416937E-01  0.51100000000E-03 0. -1.
         11    1    4    4    0    0 -0.39167967839E-01  0.18001193850E-01 -0.55869437419E-01  0.70567895272E-01  0.51100000000E-03 0.  1.
</event>
<event>
 8    1  0.2190512E+004  0.1043930E+01  0.7957747E-01            NaN
         13   -1    0    0    0    0  0.00000000000E+00  0.00000000000E+00  0.74505805969E-08  0.10566000000E+00  0.10566000000E+00 0. -1.
     999900   -1    0    0    0    0 -0.00000000000E+00 -0.00000000000E+00 -0.74505805969E-08  0.93827000000E+00  0.93827000000E+00 0. -1.
     999902    2    1    2    0    0 -0.69186999615E-02 -0.98819808971E-02  0.11006248766E-02  0.10318166466E+01  0.10317455398E+01 0.  0.
     999903    2    3    3    0    0 -0.35069809607E-01 -0.13066383058E+00 -0.13109569913E-01  0.14300695390E+00  0.44454469665E-01 0.  0.
         14    1    1    2    0    0  0.69186999615E-02  0.98819808971E-02 -0.11006248766E-02  0.12113353406E-01  0.00000000000E+00 0. -1.
     999901    1    3    3    0    0  0.28151109646E-01  0.12078184968E+00  0.14210194790E-01  0.88880969269E+00  0.88000000000E+00 0. -1.
        -11    1    4    4    0    0  0.34481155653E-03 -0.48617395670E-01  0.12197393369E-01  0.50127912212E-01  0.51100000000E-03 0.  1.
         11    1    4    4    0    0 -0.35414621164E-01 -0.82046434911E-01 -0.25306963282E-01  0.92879041691E-01  0.51100000000E-03 0. -1.
</event>
<event>
 8    1  0.2190512E+004  0.1043930E+01  0.7957747E-01            NaN
         13   -1    0    0    0    0  0.00000000000E+00  0.00000000000E+00  0.74505805969E-08  0.10566000000E+00  0.10566000000E+00 0. -1.
     999900   -1    0    0    0    0 -0.00000000000E+00 -0.00000000000E+00 -0.74505805969E-08  0.93827000000E+00  0.93827000000E+00 0. -1.
     999902    2    1    2    0    0  0.72051464502E-02 -0.61320425928E-02  0.10039304307E-01  0.10301349388E+01  0.10300425663E+01 0.  0.
     999903    2    3    3    0    0 -0.76378020479E-01  0.78548652300E-01  0.74690738739E-01  0.13977727258E+00  0.44220885168E-01 0.  0.
         14    1    1    2    0    0 -0.72051464502E-02  0.61320425928E-02 -0.10039304307E-01  0.13795061171E-01  0.00000000000E+00 0.  1.
     999901    1    3    3    0    0  0.83583166929E-01 -0.84680694893E-01 -0.64651434432E-01  0.89035766625E+00  0.88000000000E+00 0.  1.
        -11    1    4    4    0    0 -0.21080309907E-02 -0.22818238526E-02  0.13990852314E-01  0.14340696783E-01  0.51100000000E-03 0. -1.
         11    1    4    4    0    0 -0.74269989489E-01  0.80830476152E-01  0.60699886425E-01  0.12543657579E+00  0.51100000000E-03 0.  1.
</event>
<event>
 8    1  0.2190512E+004  0.1043930E+01  0.7957747E-01            NaN
         13   -1    0    0    0    0  0.00000000000E+00  0.00000000000E+00  0.74505805969E-08  0.10566000000E+00  0.10566000000E+00 0.  1.
     999900   -1    0    0    0    0 -0.00000000000E+00 -0.00000000000E+00 -0.74505805969E-08  0.93827000000E+00  0.93827000000E+00 0. -1.
     999902    2    1    2    0    0  0.13241434925E-01  0.19665438835E-02 -0.30759946339E-03  0.10305397979E+01  0.10304528022E+01 0.  0.
     999903    2    3    3    0    0  0.74760758687E-01 -0.10575500073E+00  0.33328063485E-01  0.14120301348E+00  0.45323724265E-01 0.  0.
         14    1    1    2    0    0 -0.13241434925E-01 -0.19665438835E-02  0.30759946339E-03  0.13390202058E-01  0.00000000000E+00 0. -1.
     999901    1    3    3    0    0 -0.61519323762E-01  0.10772154462E+00 -0.33635662949E-01  0.88933678446E+00  0.88000000000E+00 0. -1.
        -11    1    4    4    0    0  0.57447271968E-01 -0.42102499434E-01  0.16072549108E-01  0.73016419188E-01  0.51100000000E-03 0. -1.
         11    1    4    4    0    0  0.17313486719E-01 -0.63652501300E-01  0.17255514378E-01  0.68186594295E-01  0.51100000000E-03 0.  1.
</event>
<event>
 8    1  0.2190512E+004  0.1043930E+01  0.7957747E-01            NaN
         13   -1    0    0    0    0  0.00000000000E+00  0.00000000000E+00  0.74505805969E-08  0.10566000000E+00  0.10566000000E+00 0. -1.
     999900   -1    0    0    0    0 -0.00000000000E+00 -0.00000000000E+00 -0.74505805969E-08  0.93827000000E+00  0.93827000000E+00 0. -1.
     999902    2    1    2    0    0 -0.59858107395E-02 -0.40068089437E-02 -0.11682834463E-01  0.10302050931E+01  0.10301136640E+01 0.  0.
     999903    2    3    3    0    0  0.12837900325E+00 -0.21202060442E-01  0.20162869141E-01  0.13927090432E+00  0.45377832220E-01 0.  0.
         14    1    1    2    0    0  0.59858107395E-02  0.40068089437E-02  0.11682834463E-01  0.13724906892E-01  0.00000000000E+00 0. -1.
     999901    1    3    3    0    0 -0.13436481399E+00  0.17195251498E-01 -0.31845703604E-01  0.89093418879E+00  0.88000000000E+00 0. -1.
        -11    1    4    4    0    0  0.79705803754E-01  0.83562587069E-02  0.18737005780E-01  0.82305399083E-01  0.51100000000E-03 0.  1.
         11    1    4    4    0    0  0.48673199492E-01 -0.29558319148E-01  0.14258633608E-02  0.56965505238E-01  0.51100000000E-03 0. -1.
</event>
<event>
 8    1  0.2190512E+004  0.1043930E+01  0.7957747E-01            NaN
         13   -1    0    0    0    0  0.00000000000E+00  0.00000000000E+00  0.74505805969E-08  0.10566000000E+00  0.10566000000E+00 0. -1.
     999900   -1    0    0    0    0 -0.00000000000E+00 -0.00000000000E+00 -0.74505805969E-08  0.93827000000E+00  0.93827000000E+00 0.  1.
     999902    2    1    2    0    0  0.99772339794E-02 -0.49919244881E-02 -0.81808836626E-02  0.10300955732E+01  0.10300026692E+01 0.  0.
     999903    2    3    3    0    0  0.11251185579E+00  0.88269358960E-02  0.71111872307E-01  0.14049361122E+00  0.44099024028E-01 0.  0.
         14    1    1    2    0    0 -0.99772339794E-02  0.49919244881E-02  0.81808836626E-02  0.13834426821E-01  0.00000000000E+00 0.  1.
     999901    1    3    3    0    0 -0.10253462181E+00 -0.13818860384E-01 -0.79292755969E-01  0.88960196196E+00  0.88000000000E+00 0.  1.
        -11    1    4    4    0    0  0.46625890459E-01  0.23373464070E-01  0.42171418751E-01  0.67074452396E-01  0.51100000000E-03 0.  1.
         11    1    4    4    0    0  0.65885965330E-01 -0.14546528174E-01  0.28940453556E-01  0.73419158824E-01  0.51100000000E-03 0. -1.
</event>
<event>
 7    1  0.2190512E+004  0.1043930E+01  0.7957747E-01            NaN
         13   -1    0    0    0    0  0.00000000000E+00  0.00000000000E+00  0.74505805969E-08  0.10566000000E+00  0.10566000000E+00 0.  1.
     999900   -1    0    0    0    0 -0.00000000000E+00 -0.00000000000E+00 -0.74505805969E-08  0.93827000000E+00  0.93827000000E+00 0.  1.
     999903    2    1    2    0    0  0.10122775859E+00 -0.17627012111E-02  0.61483403035E-01  0.12492429106E+00  0.39695131001E-01 0.  0.
         14    1    1    2    0    0  0.46961376961E-02 -0.24012462909E-01  0.15467366852E-01  0.28946355929E-01  0.00000000000E+00 0. -1.
     999901    1    1    2    0    0 -0.10592389628E+00  0.25775164120E-01 -0.76950769887E-01  0.89005935301E+00  0.88000000000E+00 0. -1.
        -11    1    3    3    0    0  0.63078465070E-01 -0.38261589920E-02  0.15370742248E-01  0.65038858281E-01  0.51100000000E-03 0. -1.
         11    1    3    3    0    0  0.38149293515E-01  0.20634577809E-02  0.46112660787E-01  0.59885432783E-01  0.51100000000E-03 0.  1.
</event>
<event>
 8    1  0.2190512E+004  0.1043930E+01  0.7957747E-01            NaN
         13   -1    0    0    0    0  0.00000000000E+00  0.00000000000E+00  0.74505805969E-08  0.10566000000E+00  0.10566000000E+00 0.  1.
     999900   -1    0    0    0    0 -0.00000000000E+00 -0.00000000000E+00 -0.74505805969E-08  0.93827000000E+00  0.93827000000E+00 0.  1.
     999902    2    1    2    0    0 -0.10195239378E-01  0.90755892985E-02 -0.52335744222E-02  0.10293115347E+01  0.10292077224E+01 0.  0.
     999903    2    3    3    0    0  0.57177598503E-01  0.11715578954E+00 -0.24243454291E-01  0.13993995626E+00  0.44729067604E-01 0.  0.
         14    1    1    2    0    0  0.10195239378E-01 -0.90755892985E-02  0.52335744222E-02  0.14618465321E-01  0.00000000000E+00 0.  1.
     999901    1    3    3    0    0 -0.67372837882E-01 -0.10808020024E+00  0.19009879869E-01  0.88937157842E+00  0.88000000000E+00 0. -1.
        -11    1    4    4    0    0  0.32956100594E-02  0.25942074400E-01  0.10880333468E-01  0.28328343532E-01  0.51100000000E-03 0.  1.
         11    1    4    4    0    0  0.53881988444E-01  0.91213715139E-01 -0.35123787760E-01  0.11161161273E+00  0.51100000000E-03 0. -1.
</event>
<event>
 8    1  0.2190512E+004  0.1043930E+01  0.7957747E-01            NaN
         13   -1    0    0    0    0  0.00000000000E+00  0.00000000000E+00  0.74505805969E-08  0.10566000000E+00  0.10566000000E+00 0. -1.
     999900   -1    0    0    0    0 -0.00000000000E+00 -0.00000000000E+00 -0.74505805969E-08  0.93827000000E+00  0.93827000000E+00 0.  1.
     999902    2    1    2    0    0  0.69751986378E-02  0.55504970658E-02 -0.14510039221E-01  0.10269005358E+01  0.10267593232E+01 0.  0.
     999903    2    3    3    0    0 -0.28516681126E-01  0.10682960374E+00 -0.70945045757E-01  0.13858637910E+00  0.44127311454E-01 0.  0.
         14    1    1    2    0    0 -0.69751986378E-02 -0.55504970658E-02  0.14510039221E-01  0.17029464229E-01  0.00000000000E+00 0. -1.
     999901    1    3    3    0    0  0.35491879764E-01 -0.10127910668E+00  0.56435006536E-01  0.88831415667E+00  0.88000000000E+00 0.  1.
        -11    1    4    4    0    0 -0.38053440661E-01  0.88610627572E-01 -0.67539549454E-01  0.11773597380E+00  0.51100000000E-03 0. -1.
         11    1    4    4    0    0  0.95367595349E-02  0.18218976173E-01 -0.34054963029E-02  0.20850405302E-01  0.51100000000E-03 0.  1.
</event>
<event>
 8    1  0.2190512E+004  0.1043930E+01  0.7957747E-01            NaN
         13   -1    0    0    0    0  0.00000000000E+00  0.00000000000E+00  0.74505805969E-08  0.10566000000E+00  0.10566000000E+00 0. -1.
     999900   -1    0    0    0    0 -0.00000000000E+00 -0.00000000000E+00 -0.74505805969E-08  0.93827000000E+00  0.93827000000E+00 0.  1.
     999902    2    1    2    0    0 -0.10164302071E-01 -0.92938994577E-03 -0.92814583502E-02  0.10301342662E+01  0.10300418846E+01 0.  0.
     999903    2    3    3    0    0 -0.35100620684E-01 -0.42121687820E-03 -0.12947887159E+00  0.14161330618E+00  0.45357681858E-01 0.  0.
         14    1    1    2    0    0  0.10164302071E-01  0.92938994577E-03  0.92814583502E-02  0.13795733810E-01  0.00000000000E+00 0. -1.
     999901    1    3    3    0    0  0.24936318614E-01 -0.50817306758E-03  0.12019741324E+00  0.88852096001E+00  0.88000000000E+00 0. -1.
        -11    1    4    4    0    0 -0.27189770887E-01 -0.21555954524E-01 -0.82074449596E-01  0.89109029923E-01  0.51100000000E-03 0.  1.
         11    1    4    4    0    0 -0.79108497977E-02  0.21134737646E-01 -0.47404421993E-01  0.52504276258E-01  0.51100000000E-03 0. -1.
</event>
<event>
 8    1  0.2190512E+004  0.1043930E+01  0.7957747E-01            NaN
         13   -1    0    0    0    0  0.00000000000E+00  0.00000000000E+00  0.74505805969E-08  0.10566000000E+00  0.10566000000E+00 0. -1.
     999900   -1    0    0    0    0 -0.00000000000E+00 -0.00000000000E+00 -0.74505805969E-08  0.93827000000E+00  0.93827000000E+00 0.  1.
     999902    2    1    2    0    0  0.58046213465E-02 -0.85710515513E-02  0.99664158382E-02  0.10295603793E+01  0.10294600957E+01 0.  0.
     999903    2    3    3    0    0 -0.11470239905E-02 -0.13110948594E+00 -0.21730155666E-01  0.14047733151E+00  0.45504593551E-01 0.  0.
         14    1    1    2    0    0 -0.58046213465E-02  0.85710515513E-02 -0.99664158382E-02  0.14369620675E-01  0.00000000000E+00 0. -1.
     999901    1    3    3    0    0  0.69516453370E-02  0.12253843439E+00  0.31696571504E-01  0.88908304782E+00  0.88000000000E+00 0. -1.
        -11    1    4    4    0    0 -0.74094852532E-02 -0.56307382572E-01 -0.31226666364E-01  0.64813483297E-01  0.51100000000E-03 0.  1.
         11    1    4    4    0    0  0.62624612627E-02 -0.74802103368E-01  0.94965106981E-02  0.75663848209E-01  0.51100000000E-03 0. -1.
</event>
<event>
 8    1  0.2190512E+004  0.1043930E+01  0.7957747E-01            NaN
         13   -1    0    0    0    0  0.00000000000E+00  0.00000000000E+00  0.74505805969E-08  0.10566000000E+00  0.10566000000E+00 0.  1.
     999900   -1    0    0    0    0 -0.00000000000E+00 -0.00000000000E+00 -0.74505805969E-08  0.93827000000E+00  0.93827000000E+00 0. -1.
     999902    2    1    2    0    0 -0.12153101662E-01  0.18370846143E-02  0.45873356930E-02  0.10308106857E+01  0.10307271963E+01 0.  0.
     999903    2    3    3    0    0 -0.79153664184E-01  0.25442349208E-01 -0.10463054788E+00  0.14121817783E+00  0.45633392521E-01 0.  0.
         14    1    1    2    0    0  0.12153101662E-01 -0.18370846143E-02 -0.45873356930E-02  0.13119314336E-01  0.00000000000E+00 0. -1.
     999901    1    3    3    0    0  0.67000562522E-01 -0.23605264594E-01  0.10921788358E+00  0.88959250783E+00  0.88000000000E+00 0.  1.
        -11    1    4    4    0    0 -0.37410926649E-01  0.16298155631E-01 -0.17966249895E-01  0.44589848239E-01  0.51100000000E-03 0. -1.
         11    1    4    4    0    0 -0.41742737535E-01  0.91441935769E-02 -0.86664297990E-01  0.96628329594E-01  0.51100000000E-03 0.  1.
</event>
<event>
 8    1  0.2190512E+004  0.1043930E+01  0.7957747E-01            NaN
         13   -1    0    0    0    0  0.00000000000E+00  0.00000000000E+00  0.74505805969E-08  0.10566000000E+00  0.10566000000E+00 0.  1.
     999900   -1    0    0    0    0 -0.00000000000E+00 -0.00000000000E+00 -0.74505805969E-08  0.93827000000E+00  0.93827000000E+00 0.  1.
     999902    2    1    2    0    0  0.65378439422E-02  0.11385913446E-02 -0.10613350781E-01  0.10314126916E+01  0.10313367333E+01 0.  0.
     999903    2    3    3    0    0 -0.10325116074E+00 -0.30500213937E-01  0.76938109821E-01  0.13971773382E+00  0.44838679253E-01 0.  0.
         14    1    1    2    0    0 -0.65378439422E-02 -0.11385913446E-02  0.10613350781E-01  0.12517308356E-01  0.00000000000E+00 0.  1.
     999901    1    3    3    0    0  0.10978900468E+00  0.31638805281E-01 -0.87551460602E-01  0.89169495782E+00  0.88000000000E+00 0.  1.
        -11    1    4    4    0    0 -0.16121203222E-01  0.11478023423E-01  0.10811309771E-01  0.22556235391E-01  0.51100000000E-03 0.  1.
         11    1    4    4    0    0 -0.87129957520E-01 -0.41978237360E-01  0.66126800049E-01  0.11716149843E+00  0.51100000000E-03 0. -1.
</event>
<event>
 8    1  0.2190512E+004  0.1043930E+01  0.7957747E-01            NaN
         13   -1    0    0    0    0  0.00000000000E+00  0.00000000000E+00  0.74505805969E-08  0.10566000000E+00  0.10566000000E+00 0. -1.
     999900   -1    0    0    0    0 -0.00000000000E+00 -0.00000000000E+00 -0.74505805969E-08  0.93827000000E+00  0.93827000000E+00 0. -1.
     999902    2    1    2    0    0  0.90718727909E-02 -0.68434405404E-02 -0.83729911409E-02  0.10298148119E+01  0.10297180722E+01 0.  0.
     999903    2    3    3    0    0 -0.12195782332E+00  0.47635973424E-01 -0.11821239377E-01  0.13844021151E+00  0.43394168167E-01 0.  0.
         14    1    1    2    0    0 -0.90718727909E-02  0.68434405404E-02  0.83729911409E-02  0.14115188097E-01  0.00000000000E+00 0. -1.
     999901    1    3    3    0    0  0.13102969611E+00 -0.54479413964E-01  0.34482482358E-02  0.89137460039E+00  0.88000000000E+00 0.  1.
        -11    1    4    4    0    0 -0.84200800940E-01  0.10519076287E-01 -0.10193731224E-01  0.85466947542E-01  0.51100000000E-03 0. -1.
         11    1    4    4    0    0 -0.37757022376E-01  0.37116897137E-01 -0.16275081528E-02  0.52973263970E-01  0.51100000000E-03 0.  1.
</event>
<event>
 8    1  0.2190512E+004  0.1043930E+01  0.7957747E-01            NaN
         13   -1    0    0    0    0  0.00000000000E+00  0.00000000000E+00  0.74505805969E-08  0.10566000000E+00  0.10566000000E+00 0.  1.
     999900   -1    0    0    0    0 -0.00000000000E+00 -0.00000000000E+00 -0.74505805969E-08  0.93827000000E+00  0.93827000000E+00 0.  1.
     999902    2    1    2    0    0  0.17817256387E-02 -0.19124438403E-01 -0.21846361812E-02  0.10245989026E+01  0.10244165266E+01 0.  0.
     999903    2    3    3    0    0 -0.11041532759E+00 -0.18948288022E-01  0.60765209093E-01  0.13524470277E+00  0.45256345458E-01 0.  0.
         14    1    1    2    0    0 -0.17817256387E-02  0.19124438403E-01  0.21846361812E-02  0.19331097376E-01  0.00000000000E+00 0.  1.
     999901    1    3    3    0    0  0.11219705323E+00 -0.17615038135E-03 -0.62949845275E-01  0.88935419986E+00  0.88000000000E+00 0.  1.
        -11    1    4    4    0    0 -0.12806645977E-01 -0.38358935914E-02  0.28249544953E-01  0.31257353885E-01  0.51100000000E-03 0. -1.
         11    1    4    4    0    0 -0.97608681616E-01 -0.15112394431E-01  0.32515664140E-01  0.10398734888E+00  0.51100000000E-03 0.  1.
</event>
<event>
 8    1  0.2190512E+004  0.1043930E+01  0.7957747E-01            NaN
         13   -1    0    0    0    0  0.00000000000E+00  0.00000000000E+00  0.74505805969E-08  0.10566000000E+00  0.10566000000E+00 0.  1.
     999900   -1    0    0    0    0 -0.00000000000E+00 -0.00000000000E+00 -0.74505805969E-08  0.93827000000E+00  0.93827000000E+00 0.  1.
     999902    2    1    2    0    0 -0.11030519273E-01 -0.38182263560E-02 -0.20158956774E-01  0.10206354782E+01  0.10203696118E+01 0.  0.
     999903    2    3    3    0    0 -0.33521557878E-01  0.11885497407E+00 -0.62531859592E-02  0.13173282245E+00  0.45433847220E-01 0.  0.
         14    1    1    2    0    0  0.11030519273E-01  0.38182263560E-02  0.20158956774E-01  0.23294521806E-01  0.00000000000E+00 0.  1.
     999901    1    3    3    0    0  0.22491038605E-01 -0.12267320043E+00 -0.13905770815E-01  0.88890265574E+00  0.88000000000E+00 0.  1.
        -11    1    4    4    0    0 -0.31036200537E-01  0.38894526233E-01  0.82105653802E-02  0.50435150634E-01  0.51100000000E-03 0. -1.
         11    1    4    4    0    0 -0.24853573412E-02  0.79960447838E-01 -0.14463751339E-01  0.81297671820E-01  0.51100000000E-03 0.  1.
</event>
<event>
 8    1  0.2190512E+004  0.1043930E+01  0.7957747E-01            NaN
         13   -1    0    0    0    0  0.00000000000E+00  0.00000000000E+00  0.74505805969E-08  0.10566000000E+00  0.10566000000E+00 0.  1.
     999900   -1    0    0    0    0 -0.00000000000E+00 -0.00000000000E+00 -0.74505805969E-08  0.93827000000E+00  0.93827000000E+00 0.  1.
     999902    2    1    2    0    0 -0.51208755782E-02 -0.10854356866E-01 -0.88348379422E-02  0.10290271549E+01  0.10289192343E+01 0.  0.
     999903    2    3    3    0    0  0.12384066954E+00  0.27980343847E-01 -0.32221108872E-01  0.13847332064E+00  0.44913801890E-01 0.  0.
         14    1    1    2    0    0  0.51208755782E-02  0.10854356866E-01  0.88348379422E-02  0.14902845068E-01  0.00000000000E+00 0.  1.
     999901    1    3    3    0    0 -0.12896154511E+00 -0.38834700713E-01  0.23386270929E-01  0.89055383429E+00  0.88000000000E+00 0.  1.
        -11    1    4    4    0    0  0.72760282030E-01  0.12007970917E-01  0.39876412710E-02  0.73853993870E-01  0.51100000000E-03 0. -1.
         11    1    4    4    0    0  0.51080387506E-01  0.15972372930E-01 -0.36208750143E-01  0.64619326774E-01  0.51100000000E-03 0.  1.
</event>
<event>
 8    1  0.2190512E+004  0.1043930E+01  0.7957747E-01            NaN
         13   -1    0    0    0    0  0.00000000000E+00  0.00000000000E+00  0.74505805969E-08  0.10566000000E+00  0.10566000000E+00 0.  1.
     999900   -1    0    0    0    0 -0.00000000000E+00 -0.00000000000E+00 -0.74505805969E-08  0.93827000000E+00  0.93827000000E+00 0. -1.
     999902    2    1    2    0    0 -0.17848643783E-02 -0.12252046243E-01 -0.66218415743E-02  0.10298890896E+01  0.10297933724E+01 0.  0.
     999903    2    3    3    0    0  0.10885947620E-01  0.12929997657E+00 -0.17553570828E-01  0.13842006194E+00  0.44888728001E-01 0.  0.
         14    1    1    2    0    0  0.17848643783E-02  0.12252046243E-01  0.66218415743E-02  0.14040910363E-01  0.00000000000E+00 0. -1.
     999901    1    3    3    0    0 -0.12670811998E-01 -0.14155202281E+00  0.10931729254E-01  0.89146902770E+00  0.88000000000E+00 0.  1.
        -11    1    4    4    0    0 -0.15194732336E-01  0.37277878500E-01  0.37344109718E-02  0.40431758094E-01  0.51100000000E-03 0. -1.
         11    1    4    4    0    0  0.26080679956E-01  0.92022098071E-01 -0.21287981800E-01  0.97988303845E-01  0.51100000000E-03 0.  1.
</event>
<event>
 8    1  0.2353878E+004  0.1043930E+01  0.7957747E-01            NaN
         13   -1    0    0    0    0  0.00000000000E+00  0.00000000000E+00  0.74505805969E-08  0.10566000000E+00  0.10566000000E+00 0.  1.
     999900   -1    0    0    0    0 -0.00000000000E+00 -0.00000000000E+00 -0.74505805969E-08  0.93827000000E+00  0.93827000000E+00 0.  1.
     999902    2    1    2    0    0 -0.13245107291E-01 -0.70975427065E-03 -0.11099944272E-02  0.10306195265E+01  0.10305335703E+01 0.  0.
     999903    2    3    3    0    0 -0.97846621157E-01  0.91819618820E-01  0.60090513107E-02  0.14170458011E+00  0.45158339804E-01 0.  0.
         14    1    1    2    0    0  0.13245107291E-01  0.70975427065E-03  0.11099944272E-02  0.13310473542E-01  0.00000000000E+00 0. -1.
     999901    1    3    3    0    0  0.84601513865E-01 -0.92529373091E-01 -0.71190457380E-02  0.88891494635E+00  0.88000000000E+00 0. -1.
        -11    1    4    4    0    0 -0.34904688544E-01  0.63521729764E-01  0.55014092633E-02  0.72690261104E-01  0.51100000000E-03 0. -1.
         11    1    4    4    0    0 -0.62941932613E-01  0.28297889056E-01  0.50764204745E-03  0.69014319004E-01  0.51100000000E-03 0.  1.
</event>
<event>
 8    1  0.2190512E+004  0.1043930E+01  0.7957747E-01            NaN
         13   -1    0    0    0    0  0.00000000000E+00  0.00000000000E+00  0.74505805969E-08  0.10566000000E+00  0.10566000000E+00 0. -1.
     999900   -1    0    0    0    0 -0.00000000000E+00 -0.00000000000E+00 -0.74505805969E-08  0.93827000000E+00  0.93827000000E+00 0.  1.
     999902    2    1    2    0    0 -0.58240531746E-02 -0.10981758711E-01 -0.10719835122E-02  0.10314533110E+01  0.10313778478E+01 0.  0.
     999903    2    3    3    0    0  0.10732090436E+00 -0.19795593262E-01  0.76933282822E-01  0.14074332078E+00  0.44500677686E-01 0.  0.
         14    1    1    2    0    0  0.58240531746E-02  0.10981758711E-01  0.10719835122E-02  0.12476689000E-01  0.00000000000E+00 0.  1.
     999901    1    3    3    0    0 -0.11314495753E+00  0.88138345519E-02 -0.78005266334E-01  0.89070999022E+00  0.88000000000E+00 0.  1.
        -11    1    4    4    0    0  0.17846046820E-01  0.37721261136E-03  0.36237266842E-01  0.40398320579E-01  0.51100000000E-03 0. -1.
         11    1    4    4    0    0  0.89474857539E-01 -0.20172805874E-01  0.40696015980E-01  0.10034500020E+00  0.51100000000E-03 0.  1.
</event>
<event>
 8    1  0.2190512E+004  0.1043930E+01  0.7957747E-01            NaN
         13   -1    0    0    0    0  0.00000000000E+00  0.00000000000E+00  0.74505805969E-08  0.10566000000E+00  0.10566000000E+00 0.  1.
     999900   -1    0    0    0    0 -0.00000000000E+00 -0.00000000000E+00 -0.74505805969E-08  0.93827000000E+00  0.93827000000E+00 0.  1.
     999902    2    1    2    0    0  0.11501361147E-01 -0.14768809663E-02  0.21916146969E-02  0.10321289127E+01  0.10320614453E+01 0.  0.
     999903    2    3    3    0    0 -0.18744422013E-01  0.46557745392E-02 -0.13217895110E+00  0.14139445971E+00  0.46347475977E-01 0.  0.
         14    1    1    2    0    0 -0.11501361147E-01  0.14768809663E-02 -0.21916146969E-02  0.11801087264E-01  0.00000000000E+00 0. -1.
     999901    1    3    3    0    0  0.30245783160E-01 -0.61326555055E-02  0.13437056579E+00  0.89073445303E+00  0.88000000000E+00 0. -1.
        -11    1    4    4    0    0 -0.12546675823E-01  0.85942094413E-02 -0.13310811614E+00  0.13397503951E+00  0.51100000000E-03 0.  1.
         11    1    4    4    0    0 -0.61977461903E-02 -0.39384349021E-02  0.92916504055E-03  0.74194201923E-02  0.51100000000E-03 0. -1.
</event>
<event>
 8    1  0.2190512E+004  0.1043930E+01  0.7957747E-01            NaN
         13   -1    0    0    0    0  0.00000000000E+00  0.00000000000E+00  0.74505805969E-08  0.10566000000E+00  0.10566000000E+00 0. -1.
     999900   -1    0    0    0    0 -0.00000000000E+00 -0.00000000000E+00 -0.74505805969E-08  0.93827000000E+00  0.93827000000E+00 0. -1.
     999902    2    1    2    0    0 -0.13822798448E-01  0.18017567650E-02  0.51964495078E-02  0.10290532002E+01  0.10289456593E+01 0.  0.
     999903    2    3    3    0    0  0.15085486386E-01  0.11218461406E+00  0.69884366054E-01  0.13933156360E+00  0.41430670570E-01 0.  0.
         14    1    1    2    0    0  0.13822798448E-01 -0.18017567650E-02 -0.51964495078E-02  0.14876799786E-01  0.00000000000E+00 0.  1.
     999901    1    3    3    0    0 -0.28908284834E-01 -0.11038285730E+00 -0.64687916546E-01  0.88972163662E+00  0.88000000000E+00 0. -1.
        -11    1    4    4    0    0 -0.12395974173E-01  0.21413823502E-01  0.76855658721E-02  0.25914109216E-01  0.51100000000E-03 0. -1.
         11    1    4    4    0    0  0.27481460559E-01  0.90770790560E-01  0.62198800182E-01  0.11341745438E+00  0.51100000000E-03 0.  1.
</event>
<event>
 8    1  0.2190512E+004  0.1043930E+01  0.7957747E-01            NaN
         13   -1    0    0    0    0  0.00000000000E+00  0.00000000000E+00  0.74505805969E-08  0.10566000000E+00  0.10566000000E+00 0.  1.
     999900   -1    0    0    0    0 -0.00000000000E+00 -0.00000000000E+00 -0.74505805969E-08  0.93827000000E+00  0.93827000000E+00 0. -1.
     999902    2    1    2    0    0  0.13118171779E-01 -0.17904442547E-02  0.22556840222E-02  0.10304994292E+01  0.10304119047E+01 0.  0.
     999903    2    3    3    0    0 -0.55975704087E-01 -0.11111337345E+00  0.45875981441E-01  0.13997812296E+00  0.44830882504E-01 0.  0.
         14    1    1    2    0    0 -0.13118171779E-01  0.17904442547E-02 -0.22556840222E-02  0.13430570794E-01  0.00000000000E+00 0. -1.
     999901    1    3    3    0    0  0.69093875866E-01  0.10932292920E+00 -0.43620297419E-01  0.89052130625E+00  0.88000000000E+00 0. -1.
        -11    1    4    4    0    0 -0.44785677864E-01 -0.39780620729E-01  0.17648424801E-01  0.62449841843E-01  0.51100000000E-03 0.  1.
         11    1    4    4    0    0 -0.11190026224E-01 -0.71332752724E-01  0.28227556640E-01  0.77528281117E-01  0.51100000000E-03 0. -1.
</event>
<event>
 8    1  0.2190512E+004  0.1043930E+01  0.7957747E-01            NaN
         13   -1    0    0    0    0  0.00000000000E+00  0.00000000000E+00  0.74505805969E-08  0.10566000000E+00  0.10566000000E+00 0.  1.
     999900   -1    0    0    0    0 -0.00000000000E+00 -0.00000000000E+00 -0.74505805969E-08  0.93827000000E+00  0.93827000000E+00 0. -1.
     999902    2    1    2    0    0 -0.48283756743E-02  0.12531256979E-02  0.13783757361E-01  0.10292713676E+01  0.10291669800E+01 0.  0.
     999903    2    3    3    0    0  0.99218938769E-01 -0.85585064043E-01 -0.77967032513E-02  0.13863539761E+00  0.44606993732E-01 0.  0.
         14    1    1    2    0    0  0.48283756743E-02 -0.12531256979E-02 -0.13783757361E-01  0.14658632359E-01  0.00000000000E+00 0. -1.
     999901    1    3    3    0    0 -0.10404731444E+00  0.86838189741E-01  0.21580460612E-01  0.89063597004E+00  0.88000000000E+00 0.  1.
        -11    1    4    4    0    0  0.40764784192E-01 -0.48188748435E-01  0.16273912330E-01  0.65184541492E-01  0.51100000000E-03 0. -1.
         11    1    4    4    0    0  0.58454154578E-01 -0.37396315608E-01 -0.24070615581E-01  0.73450856114E-01  0.51100000000E-03 0.  1.
</event>
<event>
 8    1  0.2190512E+004  0.1043930E+01  0.7957747E-01            NaN
         13   -1    0    0    0    0  0.00000000000E+00  0.00000000000E+00  0.74505805969E-08  0.10566000000E+00  0.10566000000E+00 0.  1.
     999900   -1    0    0    0    0 -0.00000000000E+00 -0.00000000000E+00 -0.74505805969E-08  0.93827000000E+00  0.93827000000E+00 0.  1.
     999902    2    1    2    0    0 -0.65225412223E-02  0.11673682758E-01 -0.27815803762E-02  0.10302714641E+01  0.10301809230E+01 0.  0.
     999903    2    3    3    0    0 -0.28875746760E-01  0.11190202388E+00 -0.69172551910E-01  0.14181597999E+00  0.44396605099E-01 0.  0.
         14    1    1    2    0    0  0.65225412223E-02 -0.11673682758E-01  0.27815803762E-02  0.13658535885E-01  0.00000000000E+00 0. -1.
     999901    1    3    3    0    0  0.22353205538E-01 -0.10022834112E+00  0.66390971534E-01  0.88845548412E+00  0.88000000000E+00 0. -1.
        -11    1    4    4    0    0  0.13071692046E-02  0.69681510614E-01 -0.26286459309E-01  0.74487990152E-01  0.51100000000E-03 0. -1.
         11    1    4    4    0    0 -0.30182915965E-01  0.42220513267E-01 -0.42886092601E-01  0.67327989843E-01  0.51100000000E-03 0.  1.
</event>
<event>
 8    1  0.2190512E+004  0.1043930E+01  0.7957747E-01            NaN
         13   -1    0    0    0    0  0.00000000000E+00  0.00000000000E+00  0.74505805969E-08  0.10566000000E+00  0.10566000000E+00 0.  1.
     999900   -1    0    0    0    0 -0.00000000000E+00 -0.00000000000E+00 -0.74505805969E-08  0.93827000000E+00  0.93827000000E+00 0. -1.
     999902    2    1    2    0    0 -0.94217261161E-02  0.10278537435E-01  0.37990105482E-03  0.10299814668E+01  0.10298870134E+01 0.  0.
     999903    2    3    3    0    0 -0.91001386818E-02  0.11726355510E+00  0.63990244814E-01  0.14122268438E+00  0.44894780009E-01 0.  0.
         14    1    1    2    0    0  0.94217261161E-02 -0.10278537435E-01 -0.37990105482E-03  0.13948533243E-01  0.00000000000E+00 0.  1.
     999901    1    3    3    0    0 -0.32158743431E-03 -0.10698501767E+00 -0.63610343759E-01  0.88875878238E+00  0.88000000000E+00 0. -1.
        -11    1    4    4    0    0 -0.44540299898E-02  0.71814814075E-01  0.62820873414E-01  0.95519260682E-01  0.51100000000E-03 0. -1.
         11    1    4    4    0    0 -0.46461086920E-02  0.45448741028E-01  0.11693713997E-02  0.45703423695E-01  0.51100000000E-03 0.  1.
</event>
<event>
 8    1  0.2190512E+004  0.1043930E+01  0.7957747E-01            NaN
         13   -1    0    0    0    0  0.00000000000E+00  0.00000000000E+00  0.74505805969E-08  0.10566000000E+00  0.10566000000E+00 0. -1.
     999900   -1    0    0    0    0 -0.00000000000E+00 -0.00000000000E+00 -0.74505805969E-08  0.93827000000E+00  0.93827000000E+00 0.  1.
     999902    2    1    2    0    0 -0.93577875879E-02  0.71263557742E-03  0.11023693810E-01  0.10294525049E+01  0.10293506993E+01 0.  0.
     999903    2    3    3    0    0 -0.36857002088E-02 -0.28021634937E-01  0.13064450842E+00  0.14087669491E+00  0.44491113490E-01 0.  0.
         14    1    1    2    0    0  0.93577875879E-02 -0.71263557742E-03 -0.11023693810E-01  0.14477495060E-01  0.00000000000E+00 0.  1.
     999901    1    3    3    0    0 -0.56720873791E-02  0.28734270514E-01 -0.11962081461E+00  0.88857581003E+00  0.88000000000E+00 0.  1.
        -11    1    4    4    0    0  0.38113853931E-02  0.33629663706E-02  0.84007894420E-01  0.84163077696E-01  0.51100000000E-03 0.  1.
         11    1    4    4    0    0 -0.74970856019E-02 -0.31384601307E-01  0.46636613997E-01  0.56713617217E-01  0.51100000000E-03 0. -1.
</event>
<event>
 8    1  0.2190512E+004  0.1043930E+01  0.7957747E-01            NaN
         13   -1    0    0    0    0  0.00000000000E+00  0.00000000000E+00  0.74505805969E-08  0.10566000000E+00  0.10566000000E+00 0. -1.
     999900   -1    0    0    0    0 -0.00000000000E+00 -0.00000000000E+00 -0.74505805969E-08  0.93827000000E+00  0.93827000000E+00 0. -1.
     999902    2    1    2    0    0 -0.10629310128E-01  0.80237819414E-02 -0.53979180594E-02  0.10295598633E+01  0.10294595724E+01 0.  0.
     999903    2    3    3    0    0  0.96906526605E-01  0.80761518291E-01 -0.37920209753E-01  0.13944052636E+00  0.45742981419E-01 0.  0.
         14    1    1    2    0    0  0.10629310128E-01 -0.80237819414E-02  0.53979180594E-02  0.14370136736E-01  0.00000000000E+00 0. -1.
     999901    1    3    3    0    0 -0.10753583673E+00 -0.72737736349E-01  0.32522291693E-01  0.89011933690E+00  0.88000000000E+00 0.  1.
        -11    1    4    4    0    0  0.87112134957E-01  0.68644776902E-01 -0.15286388879E-01  0.11195786823E+00  0.51100000000E-03 0.  1.
         11    1    4    4    0    0  0.97943916479E-02  0.12116741389E-01 -0.22633820874E-01  0.27482658131E-01  0.51100000000E-03 0. -1.
</event>
<event>
 8    1  0.2190512E+004  0.1043930E+01  0.7957747E-01            NaN
         13   -1    0    0    0    0  0.00000000000E+00  0.00000000000E+00  0.74505805969E-08  0.10566000000E+00  0.10566000000E+00 0. -1.
     999900   -1    0    0    0    0 -0.00000000000E+00 -0.00000000000E+00 -0.74505805969E-08  0.93827000000E+00  0.93827000000E+00 0.  1.
     999902    2    1    2    0    0 -0.39202588270E-02  0.87357634494E-03  0.13349835217E-01  0.10299890651E+01  0.10298947153E+01 0.  0.
     999903    2    3    3    0    0  0.58536491736E-02  0.30627164611E-01 -0.12681251233E+00  0.13834659812E+00  0.45673619379E-01 0.  0.
         14    1    1    2    0    0  0.39202588270E-02 -0.87357634494E-03 -0.13349835217E-01  0.13940934876E-01  0.00000000000E+00 0.  1.
     999901    1    3    3    0    0 -0.97739080007E-02 -0.29753588266E-01  0.14016234755E+00  0.89164246700E+00  0.88000000000E+00 0. -1.
        -11    1    4    4    0    0 -0.20046527422E-01  0.12373901099E-01 -0.56974871620E-01  0.61655282071E-01  0.51100000000E-03 0.  1.
         11    1    4    4    0    0  0.25900176595E-01  0.18253263512E-01 -0.69837640711E-01  0.76691316051E-01  0.51100000000E-03 0. -1.
</event>
<event>
 8    1  0.2190512E+004  0.1043930E+01  0.7957747E-01            NaN
         13   -1    0    0    0    0  0.00000000000E+00  0.00000000000E+00  0.74505805969E-08  0.10566000000E+00  0.10566000000E+00 0. -1.
     999900   -1    0    0    0    0 -0.00000000000E+00 -0.00000000000E+00 -0.74505805969E-08  0.93827000000E+00  0.93827000000E+00 0.  1.
     999902    2    1    2    0    0 -0.64353697403E-02 -0.44851654802E-02 -0.10586756484E-01  0.10307538812E+01  0.10306696627E+01 0.  0.
     999903    2    3    3    0    0  0.11387157262E+00  0.51086883230E-01 -0.44724016332E-01  0.14017689663E+00  0.45527135019E-01 0.  0.
         14    1    1    2    0    0  0.64353697403E-02  0.44851654802E-02  0.10586756484E-01  0.13176118773E-01  0.00000000000E+00 0. -1.
     999901    1    3    3    0    0 -0.12030694236E+00 -0.55572048710E-01  0.34137259849E-01  0.89057698459E+00  0.88000000000E+00 0. -1.
        -11    1    4    4    0    0  0.24940698121E-01  0.30164853878E-01 -0.16674079719E-02  0.39179053110E-01  0.51100000000E-03 0.  1.
         11    1    4    4    0    0  0.88930874501E-01  0.20922029352E-01 -0.43056608361E-01  0.10099784352E+00  0.51100000000E-03 0. -1.
</event>
<event>
 8    1  0.2190512E+004  0.1043930E+01  0.7957747E-01            NaN
         13   -1    0    0    0    0  0.00000000000E+00  0.00000000000E+00  0.74505805969E-08  0.10566000000E+00  0.10566000000E+00 0.  1.
     999900   -1    0    0    0    0 -0.00000000000E+00 -0.00000000000E+00 -0.74505805969E-08  0.93827000000E+00  0.93827000000E+00 0. -1.
     999902    2    1    2    0    0  0.76122119471E-02  0.29602408948E-02 -0.11880597697E-01  0.10295127396E+01  0.10294117852E+01 0.  0.
     999903    2    3    3    0    0 -0.20174858804E-01  0.10314378870E+00  0.78620871762E-01  0.13878304963E+00  0.45097974592E-01 0.  0.
         14    1    1    2    0    0 -0.76122119471E-02 -0.29602408948E-02  0.11880597697E-01  0.14417260438E-01  0.00000000000E+00 0.  1.
     999901    1    3    3    0    0  0.27787070751E-01 -0.10018354781E+00 -0.90501469459E-01  0.89072968993E+00  0.88000000000E+00 0. -1.
        -11    1    4    4    0    0 -0.27180642158E-01  0.58041472969E-01  0.64676847373E-01  0.91054684666E-01  0.51100000000E-03 0.  1.
         11    1    4    4    0    0  0.70057833546E-02  0.45102315734E-01  0.13944024389E-01  0.47728364964E-01  0.51100000000E-03 0. -1.
</event>
<event>
 8    1  0.2190512E+004  0.1043930E+01  0.7957747E-01            NaN
         13   -1    0    0    0    0  0.00000000000E+00  0.00000000000E+00  0.74505805969E-08  0.10566000000E+00  0.10566000000E+00 0.  1.
     999900   -1    0    0    0    0 -0.00000000000E+00 -0.00000000000E+00 -0.74505805969E-08  0.93827000000E+00  0.93827000000E+00 0.  1.
     999902    2    1    2    0    0 -0.11393099533E-02  0.10801777989E-01 -0.73419424945E-02  0.10308196776E+01  0.10307363034E+01 0.  0.
     999903    2    3    3    0    0  0.11587234668E-02 -0.10334538056E+00 -0.83242973915E-01  0.14020426037E+00  0.45235291501E-01 0.  0.
         14    1    1    2    0    0  0.11393099533E-02 -0.10801777989E-01  0.73419424945E-02  0.13110322441E-01  0.00000000000E+00 0. -1.
     999901    1    3    3    0    0 -0.22980334201E-02  0.11414715855E+00  0.75901031421E-01  0.89061541719E+00  0.88000000000E+00 0.  1.
        -11    1    4    4    0    0  0.93959930178E-02 -0.92560290789E-01 -0.53053908801E-01  0.10710121603E+00  0.51100000000E-03 0.  1.
         11    1    4    4    0    0 -0.82372695509E-02 -0.10785089769E-01 -0.30189065114E-01  0.33103044338E-01  0.51100000000E-03 0. -1.
</event>
<event>
 8    1  0.2190512E+004  0.1043930E+01  0.7957747E-01            NaN
         13   -1    0    0    0    0  0.00000000000E+00  0.00000000000E+00  0.74505805969E-08  0.10566000000E+00  0.10566000000E+00 0. -1.
     999900   -1    0    0    0    0 -0.00000000000E+00 -0.00000000000E+00 -0.74505805969E-08  0.93827000000E+00  0.93827000000E+00 0.  1.
     999902    2    1    2    0    0  0.50803356096E-02 -0.12084898418E-01  0.23115650015E-03  0.10308186304E+01  0.10307352428E+01 0.  0.
     999903    2    3    3    0    0 -0.21422238755E-01 -0.13153731975E+00 -0.20354006627E-01  0.14211450845E+00  0.44958526739E-01 0.  0.
         14    1    1    2    0    0 -0.50803356096E-02  0.12084898418E-01 -0.23115650015E-03  0.13111369608E-01  0.00000000000E+00 0. -1.
     999901    1    3    3    0    0  0.26502574365E-01  0.11945242133E+00  0.20585163128E-01  0.88870412194E+00  0.88000000000E+00 0. -1.
        -11    1    4    4    0    0  0.90812124854E-02 -0.15023697207E-01 -0.12226245159E-01  0.21399114226E-01  0.51100000000E-03 0. -1.
         11    1    4    4    0    0 -0.30503451241E-01 -0.11651362254E+00 -0.81277614682E-02  0.12071539423E+00  0.51100000000E-03 0.  1.
</event>
<event>
 8    1  0.2190512E+004  0.1043930E+01  0.7957747E-01            NaN
         13   -1    0    0    0    0  0.00000000000E+00  0.00000000000E+00  0.74505805969E-08  0.10566000000E+00  0.10566000000E+00 0.  1.
     999900   -1    0    0    0    0 -0.00000000000E+00 -0.00000000000E+00 -0.74505805969E-08  0.93827000000E+00  0.93827000000E+00 0. -1.
     999902    2    1    2    0    0 -0.11092913247E-01  0.84487560967E-02  0.58220004846E-02  0.10288194112E+01  0.10287084383E+01 0.  0.
     999903    2    3    3    0    0 -0.58648860189E-01  0.11834177750E+00 -0.19096488498E-01  0.14036064721E+00  0.43496785039E-01 0.  0.
         14    1    1    2    0    0  0.11092913247E-01 -0.84487560967E-02 -0.58220004846E-02  0.15110588788E-01  0.00000000000E+00 0. -1.
     999901    1    3    3    0    0  0.47555946943E-01 -0.10989302140E+00  0.24918488983E-01  0.88845876400E+00  0.88000000000E+00 0. -1.
        -11    1    4    4    0    0 -0.52922078522E-01  0.63300808040E-01 -0.23583785329E-02  0.82544301826E-01  0.51100000000E-03 0.  1.
         11    1    4    4    0    0 -0.57267816676E-02  0.55040969458E-01 -0.16738109965E-01  0.57816345382E-01  0.51100000000E-03 0. -1.
</event>
<event>
 8    1  0.2190512E+004  0.1043930E+01  0.7957747E-01            NaN
         13   -1    0    0    0    0  0.00000000000E+00  0.00000000000E+00  0.74505805969E-08  0.10566000000E+00  0.10566000000E+00 0. -1.
     999900   -1    0    0    0    0 -0.00000000000E+00 -0.00000000000E+00 -0.74505805969E-08  0.93827000000E+00  0.93827000000E+00 0. -1.
     999902    2    1    2    0    0  0.82702134442E-02  0.10607895757E-01  0.47032548024E-02  0.10296806320E+01  0.10295820314E+01 0.  0.
     999903    2    3    3    0    0  0.68999762189E-01 -0.11232332478E+00 -0.31390503072E-02  0.13902825041E+00  0.44062504492E-01 0.  0.
         14    1    1    2    0    0 -0.82702134442E-02 -0.10607895757E-01 -0.47032548024E-02  0.14249368005E-01  0.00000000000E+00 0.  1.
     999901    1    3    3    0    0 -0.60729548745E-01  0.12293122054E+00  0.78423051097E-02  0.89065238159E+00  0.88000000000E+00 0.  1.
        -11    1    4    4    0    0  0.30638606109E-01 -0.25723388177E-01  0.14741487250E-01  0.42637887506E-01  0.51100000000E-03 0. -1.
         11    1    4    4    0    0  0.38361156080E-01 -0.86599936608E-01 -0.17880537557E-01  0.96390362904E-01  0.51100000000E-03 0.  1.
</event>
<event>
 8    1  0.2190512E+004  0.1043930E+01  0.7957747E-01            NaN
         13   -1    0    0    0    0  0.00000000000E+00  0.00000000000E+00  0.74505805969E-08  0.10566000000E+00  0.10566000000E+00 0. -1.
     999900   -1    0    0    0    0 -0.00000000000E+00 -0.00000000000E+00 -0.74505805969E-08  0.93827000000E+00  0.93827000000E+00 0.  1.
     999902    2    1    2    0    0  0.12643603605E-01 -0.43752451686E-02 -0.10574999780E-02  0.10305090541E+01  0.10304216558E+01 0.  0.
     999903    2    3    3    0    0 -0.48642019140E-01 -0.70775459352E-01 -0.10121363357E+00  0.14023035219E+00  0.45223228332E-01 0.  0.
         14    1    1    2    0    0 -0.12643603605E-01  0.43752451686E-02  0.10574999780E-02  0.13420945891E-01  0.00000000000E+00 0. -1.
     999901    1    3    3    0    0  0.61285622745E-01  0.66400214183E-01  0.10015613360E+00  0.89027870192E+00  0.88000000000E+00 0. -1.
        -11    1    4    4    0    0 -0.37553444901E-01 -0.39355015634E-01 -0.89826389619E-01  0.10501485548E+00  0.51100000000E-03 0.  1.
         11    1    4    4    0    0 -0.11088574239E-01 -0.31420443718E-01 -0.11387243955E-01  0.35215496702E-01  0.51100000000E-03 0. -1.
</event>
<event>
 8    1  0.2190512E+004  0.1043930E+01  0.7957747E-01            NaN
         13   -1    0    0    0    0  0.00000000000E+00  0.00000000000E+00  0.74505805969E-08  0.10566000000E+00  0.10566000000E+00 0. -1.
     999900   -1    0    0    0    0 -0.00000000000E+00 -0.00000000000E+00 -0.74505805969E-08  0.93827000000E+00  0.93827000000E+00 0.  1.
     999902    2    1    2    0    0  0.70902300480E-02  0.12282940888E-01 -0.84607151352E-02  0.10274155912E+01  0.10272828584E+01 0.  0.
     999903    2    3    3    0    0  0.28639740489E-01 -0.66288036491E-01 -0.10881257250E+00  0.13797291444E+00  0.44519778379E-01 0.  0.
         14    1    1    2    0    0 -0.70902300480E-02 -0.12282940888E-01  0.84607151352E-02  0.16514408848E-01  0.00000000000E+00 0. -1.
     999901    1    3    3    0    0 -0.21549510441E-01  0.78570977379E-01  0.10035185736E+00  0.88944267672E+00  0.88000000000E+00 0. -1.
        -11    1    4    4    0    0  0.81643620716E-03 -0.53976769865E-01 -0.75996903574E-01  0.93219894481E-01  0.51100000000E-03 0. -1.
         11    1    4    4    0    0  0.27823304282E-01 -0.12311266626E-01 -0.32815668926E-01  0.44753019956E-01  0.51100000000E-03 0.  1.
</event>
<event>
 8    1  0.2190512E+004  0.1043930E+01  0.7957747E-01            NaN
         13   -1    0    0    0    0  0.00000000000E+00  0.00000000000E+00  0.74505805969E-08  0.10566000000E+00  0.10566000000E+00 0.  1.
     999900   -1    0    0    0    0 -0.00000000000E+00 -0.00000000000E+00 -0.74505805969E-08  0.93827000000E+00  0.93827000000E+00 0. -1.
     999902    2    1    2    0    0 -0.14135259073E-01 -0.29022582127E-02  0.19570011414E-02  0.10293677713E+01  0.10292647619E+01 0.  0.
     999903    2    3    3    0    0 -0.12878364583E+00 -0.51507966380E-02  0.35661616695E-01  0.14128820862E+00  0.45594394952E-01 0.  0.
         14    1    1    2    0    0  0.14135259073E-01  0.29022582127E-02 -0.19570011414E-02  0.14562228719E-01  0.00000000000E+00 0.  1.
     999901    1    3    3    0    0  0.11464838675E+00  0.22485384254E-02 -0.33704615554E-01  0.88807956266E+00  0.88000000000E+00 0. -1.
        -11    1    4    4    0    0 -0.80547953582E-01 -0.24233149523E-01  0.29060255356E-01  0.88994257817E-01  0.51100000000E-03 0. -1.
         11    1    4    4    0    0 -0.48235692244E-01  0.19082352885E-01  0.66013613392E-02  0.52293950801E-01  0.51100000000E-03 0.  1.
</event>
<event>
 8    1  0.2190512E+004  0.1043930E+01  0.7957747E-01            NaN
         13   -1    0    0    0    0  0.00000000000E+00  0.00000000000E+00  0.74505805969E-08  0.10566000000E+00  0.10566000000E+00 0.  1.
     999900   -1    0    0    0    0 -0.00000000000E+00 -0.00000000000E+00 -0.74505805969E-08  0.93827000000E+00  0.93827000000E+00 0.  1.
     999902    2    1    2    0    0  0.10488826267E-01  0.91089317666E-02 -0.49116519132E-02  0.10291952642E+01  0.10290897820E+01 0.  0.
     999903    2    3    3    0    0  0.10528688944E+00 -0.26101689937E-03  0.80624585230E-01  0.13993100844E+00  0.44665044078E-01 0.  0.
         14    1    1    2    0    0 -0.10488826267E-01 -0.91089317666E-02  0.49116519132E-02  0.14734735794E-01  0.00000000000E+00 0. -1.
     999901    1    3    3    0    0 -0.94798063169E-01  0.93699486660E-02 -0.85536237144E-01  0.88926425577E+00  0.88000000000E+00 0.  1.
        -11    1    4    4    0    0  0.97378748573E-02  0.14285712780E-01  0.81228389400E-02  0.19108883531E-01  0.51100000000E-03 0. -1.
         11    1    4    4    0    0  0.95549014579E-01 -0.14546729679E-01  0.72501746290E-01  0.12082212491E+00  0.51100000000E-03 0.  1.
</event>
<event>
 8    1  0.2190512E+004  0.1043930E+01  0.7957747E-01            NaN
         13   -1    0    0    0    0  0.00000000000E+00  0.00000000000E+00  0.74505805969E-08  0.10566000000E+00  0.10566000000E+00 0. -1.
     999900   -1    0    0    0    0 -0.00000000000E+00 -0.00000000000E+00 -0.74505805969E-08  0.93827000000E+00  0.93827000000E+00 0.  1.
     999902    2    1    2    0    0  0.11561976481E-01  0.62007209486E-03 -0.22444669631E-02  0.10321358734E+01  0.10320684860E+01 0.  0.
     999903    2    3    3    0    0 -0.25090401058E-01 -0.45544431921E-01 -0.12351045019E+00  0.14186625309E+00  0.46555117391E-01 0.  0.
         14    1    1    2    0    0 -0.11561976481E-01 -0.62007209486E-03  0.22444669631E-02  0.11794126568E-01  0.00000000000E+00 0. -1.
     999901    1    3    3    0    0  0.36652377540E-01  0.46164504016E-01  0.12126598323E+00  0.89026962034E+00  0.88000000000E+00 0. -1.
        -11    1    4    4    0    0 -0.19568138365E-01 -0.96621674481E-02 -0.12691289870E-01  0.25250732236E-01  0.51100000000E-03 0.  1.
         11    1    4    4    0    0 -0.55222626931E-02 -0.35882264473E-01 -0.11081916032E+00  0.11661552086E+00  0.51100000000E-03 0. -1.
</event>
<event>
 8    1  0.2190512E+004  0.1043930E+01  0.7957747E-01            NaN
         13   -1    0    0    0    0  0.00000000000E+00  0.00000000000E+00  0.74505805969E-08  0.10566000000E+00  0.10566000000E+00 0.  1.
     999900   -1    0    0    0    0 -0.00000000000E+00 -0.00000000000E+00 -0.74505805969E-08  0.93827000000E+00  0.93827000000E+00 0.  1.
     999902    2    1    2    0    0  0.65468739190E-02  0.22200307769E-01  0.46330698728E-02  0.10203253276E+01  0.10200522504E+01 0.  0.
     999903    2    3    3    0    0  0.11841730257E+00  0.38509732404E-01  0.13123087777E-01  0.13305250002E+00  0.45001058787E-01 0.  0.
         14    1    1    2    0    0 -0.65468739190E-02 -0.22200307769E-01 -0.46330698728E-02  0.23604672410E-01  0.00000000000E+00 0. -1.
     999901    1    3    3    0    0 -0.11187042865E+00 -0.16309424635E-01 -0.84900179038E-02  0.88727282757E+00  0.88000000000E+00 0.  1.
        -11    1    4    4    0    0  0.70000699014E-01  0.44398197285E-01  0.14996671539E-01  0.84240483515E-01  0.51100000000E-03 0.  1.
         11    1    4    4    0    0  0.48416603553E-01 -0.58884648812E-02 -0.18735837620E-02  0.48812016505E-01  0.51100000000E-03 0. -1.
</event>
<event>
 8    1  0.2190512E+004  0.1043930E+01  0.7957747E-01            NaN
         13   -1    0    0    0    0  0.00000000000E+00  0.00000000000E+00  0.74505805969E-08  0.10566000000E+00  0.10566000000E+00 0. -1.
     999900   -1    0    0    0    0 -0.00000000000E+00 -0.00000000000E+00 -0.74505805969E-08  0.93827000000E+00  0.93827000000E+00 0.  1.
     999902    2    1    2    0    0 -0.61119524119E-02 -0.89723877471E-02  0.86557903065E-02  0.10300453895E+01  0.10299518056E+01 0.  0.
     999903    2    3    3    0    0 -0.73938687200E-01  0.57717389961E-01 -0.93449049645E-01  0.13904965953E+00  0.42471830276E-01 0.  0.
         14    1    1    2    0    0  0.61119524119E-02  0.89723877471E-02 -0.86557903065E-02  0.13884610545E-01  0.00000000000E+00 0.  1.
     999901    1    3    3    0    0  0.67826734788E-01 -0.66689777708E-01  0.10210483995E+00  0.89099572992E+00  0.88000000000E+00 0. -1.
        -11    1    4    4    0    0 -0.51127637762E-01  0.30507719131E-01 -0.30795385880E-01  0.67032627743E-01  0.51100000000E-03 0. -1.
         11    1    4    4    0    0 -0.22811049438E-01  0.27209670830E-01 -0.62653663765E-01  0.72017031786E-01  0.51100000000E-03 0.  1.
</event>
<event>
 8    1  0.2190512E+004  0.1043930E+01  0.7957747E-01            NaN
         13   -1    0    0    0    0  0.00000000000E+00  0.00000000000E+00  0.74505805969E-08  0.10566000000E+00  0.10566000000E+00 0.  1.
     999900   -1    0    0    0    0 -0.00000000000E+00 -0.00000000000E+00 -0.74505805969E-08  0.93827000000E+00  0.93827000000E+00 0.  1.
     999902    2    1    2    0    0  0.52891062336E-02  0.12932980679E-01  0.12496160626E-02  0.10299015227E+01  0.10298059761E+01 0.  0.
     999903    2    3    3    0    0  0.11913109155E+00  0.57286289883E-01 -0.21624593854E-01  0.14116621730E+00  0.44568395365E-01 0.  0.
         14    1    1    2    0    0 -0.52891062336E-02 -0.12932980679E-01 -0.12496160626E-02  0.14028477262E-01  0.00000000000E+00 0. -1.
     999901    1    3    3    0    0 -0.11384198531E+00 -0.44353309204E-01  0.22874209916E-01  0.88873530544E+00  0.88000000000E+00 0. -1.
        -11    1    4    4    0    0  0.69468250547E-01  0.13297819640E-01 -0.24240254404E-01  0.74769785982E-01  0.51100000000E-03 0. -1.
         11    1    4    4    0    0  0.49662840999E-01  0.43988470243E-01  0.26156605500E-02  0.66396431316E-01  0.51100000000E-03 0.  1.
</event>
<event>
 8    1  0.2190512E+004  0.1043930E+01  0.7957747E-01            NaN
         13   -1    0    0    0    0  0.00000000000E+00  0.00000000000E+00  0.74505805969E-08  0.10566000000E+00  0.10566000000E+00 0. -1.
     999900   -1    0    0    0    0 -0.00000000000E+00 -0.00000000000E+00 -0.74505805969E-08  0.93827000000E+00  0.93827000000E+00 0.  1.
     999902    2    1    2    0    0 -0.46081240673E-02 -0.17273701975E-01  0.58192706167E-02  0.10251289496E+01  0.10249565277E+01 0.  0.
     999903    2    3    3    0    0  0.34330115539E-01  0.19518352671E-01  0.12207214163E+00  0.13586826123E+00  0.44710778594E-01 0.  0.
         14    1    1    2    0    0  0.46081240673E-02  0.17273701975E-01 -0.58192706167E-02  0.18801050445E-01  0.00000000000E+00 0.  1.
     999901    1    3    3    0    0 -0.38938239607E-01 -0.36792054646E-01 -0.11625287101E+00  0.88926068833E+00  0.88000000000E+00 0.  1.
        -11    1    4    4    0    0  0.33896806659E-01 -0.12661205371E-02  0.46968081872E-01  0.57938401761E-01  0.51100000000E-03 0. -1.
         11    1    4    4    0    0  0.43330888052E-03  0.20784473208E-01  0.75104059757E-01  0.77929859465E-01  0.51100000000E-03 0.  1.
</event>
<event>
 8    1  0.2190512E+004  0.1043930E+01  0.7957747E-01            NaN
         13   -1    0    0    0    0  0.00000000000E+00  0.00000000000E+00  0.74505805969E-08  0.10566000000E+00  0.10566000000E+00 0.  1.
     999900   -1    0    0    0    0 -0.00000000000E+00 -0.00000000000E+00 -0.74505805969E-08  0.93827000000E+00  0.93827000000E+00 0. -1.
     999902    2    1    2    0    0  0.11171121213E-01 -0.47784367225E-02 -0.69282835088E-02  0.10299432735E+01  0.10298482986E+01 0.  0.
     999903    2    3    3    0    0 -0.10306706581E+00 -0.72976207495E-01 -0.39457446837E-01  0.13934827810E+00  0.43734489638E-01 0.  0.
         14    1    1    2    0    0 -0.11171121213E-01  0.47784367225E-02  0.69282835088E-02  0.13986726531E-01  0.00000000000E+00 0.  1.
     999901    1    3    3    0    0  0.11423818702E+00  0.68197770773E-01  0.32529163328E-01  0.89059499537E+00  0.88000000000E+00 0.  1.
        -11    1    4    4    0    0 -0.27423526874E-01 -0.16135366425E-01  0.89595410197E-02  0.33059557954E-01  0.51100000000E-03 0.  1.
         11    1    4    4    0    0 -0.75643538932E-01 -0.56840841071E-01 -0.48416987857E-01  0.10628872014E+00  0.51100000000E-03 0. -1.
</event>
<event>
 8    1  0.2190512E+004  0.1043930E+01  0.7957747E-01            NaN
         13   -1    0    0    0    0  0.00000000000E+00  0.00000000000E+00  0.74505805969E-08  0.10566000000E+00  0.10566000000E+00 0. -1.
     999900   -1    0    0    0    0 -0.00000000000E+00 -0.00000000000E+00 -0.74505805969E-08  0.93827000000E+00  0.93827000000E+00 0. -1.
     999902    2    1    2    0    0  0.59119469567E-02 -0.29553773062E-02  0.12450250214E-01  0.10298341104E+01  0.10297376369E+01 0.  0.
     999903    2    3    3    0    0 -0.89032894600E-01 -0.68450879165E-02 -0.96341034330E-01  0.13805768310E+00  0.42480788802E-01 0.  0.
         14    1    1    2    0    0 -0.59119469567E-02  0.29553773062E-02 -0.12450250214E-01  0.14095889551E-01  0.00000000000E+00 0.  1.
     999901    1    3    3    0    0  0.94944841556E-01  0.38897106102E-02  0.10879128454E+00  0.89177642735E+00  0.88000000000E+00 0.  1.
        -11    1    4    4    0    0 -0.47074883434E-01  0.47303506389E-02 -0.77112966712E-01  0.90471496194E-01  0.51100000000E-03 0. -1.
         11    1    4    4    0    0 -0.41958011166E-01 -0.11575438555E-01 -0.19228067618E-01  0.47586186904E-01  0.51100000000E-03 0.  1.
</event>
<event>
 8    1  0.2190512E+004  0.1043930E+01  0.7957747E-01            NaN
         13   -1    0    0    0    0  0.00000000000E+00  0.00000000000E+00  0.74505805969E-08  0.10566000000E+00  0.10566000000E+00 0. -1.
     999900   -1    0    0    0    0 -0.00000000000E+00 -0.00000000000E+00 -0.74505805969E-08  0.93827000000E+00  0.93827000000E+00 0.  1.
     999902    2    1    2    0    0  0.33889061474E-02  0.11907321584E-01  0.50074070032E-02  0.10305754833E+01  0.10304889537E+01 0.  0.
     999903    2    3    3    0    0  0.32606831767E-01 -0.10247503087E+00  0.77105440556E-01  0.13976959186E+00  0.45010581162E-01 0.  0.
         14    1    1    2    0    0 -0.33889061474E-02 -0.11907321584E-01 -0.50074070032E-02  0.13354516730E-01  0.00000000000E+00 0.  1.
     999901    1    3    3    0    0 -0.29217925620E-01  0.11438235245E+00 -0.72098033552E-01  0.89080589141E+00  0.88000000000E+00 0.  1.
        -11    1    4    4    0    0  0.37271715600E-01 -0.90080628501E-01  0.80109425655E-01  0.12618035352E+00  0.51100000000E-03 0.  1.
         11    1    4    4    0    0 -0.46648838324E-02 -0.12394402365E-01 -0.30039850994E-02  0.13589238339E-01  0.51100000000E-03 0. -1.
</event>
<event>
 8    1  0.2190512E+004  0.1043930E+01  0.7957747E-01            NaN
         13   -1    0    0    0    0  0.00000000000E+00  0.00000000000E+00  0.74505805969E-08  0.10566000000E+00  0.10566000000E+00 0.  1.
     999900   -1    0    0    0    0 -0.00000000000E+00 -0.00000000000E+00 -0.74505805969E-08  0.93827000000E+00  0.93827000000E+00 0. -1.
     999902    2    1    2    0    0 -0.73970454277E-02  0.73397704991E-02 -0.87157233832E-02  0.10303449955E+01  0.10302554331E+01 0.  0.
     999903    2    3    3    0    0 -0.69096751728E-01 -0.38116865407E-01 -0.11249192572E+00  0.14093920532E+00  0.31339587049E-01 0.  0.
         14    1    1    2    0    0  0.73970454277E-02 -0.73397704991E-02  0.87157233832E-02  0.13585004458E-01  0.00000000000E+00 0.  1.
     999901    1    3    3    0    0  0.61699706300E-01  0.45456635906E-01  0.10377620234E+00  0.88940579022E+00  0.88000000000E+00 0.  1.
        -11    1    4    4    0    0 -0.47893748551E-01 -0.25340329673E-01 -0.50038929344E-01  0.73757026981E-01  0.51100000000E-03 0.  1.
         11    1    4    4    0    0 -0.21203003177E-01 -0.12776535733E-01 -0.62452996377E-01  0.67182178340E-01  0.51100000000E-03 0. -1.
</event>
<event>
 8    1  0.2190512E+004  0.1043930E+01  0.7957747E-01            NaN
         13   -1    0    0    0    0  0.00000000000E+00  0.00000000000E+00  0.74505805969E-08  0.10566000000E+00  0.10566000000E+00 0.  1.
     999900   -1    0    0    0    0 -0.00000000000E+00 -0.00000000000E+00 -0.74505805969E-08  0.93827000000E+00  0.93827000000E+00 0. -1.
     999902    2    1    2    0    0 -0.35664847604E-02 -0.70874987147E-02  0.13585391888E-01  0.10281973802E+01  0.10280770095E+01 0.  0.
     999903    2    3    3    0    0 -0.10115314798E+00 -0.72979011730E-01  0.45207830528E-01  0.13979160193E+00  0.44045981994E-01 0.  0.
         14    1    1    2    0    0  0.35664847604E-02  0.70874987147E-02 -0.13585391888E-01  0.15732619754E-01  0.00000000000E+00 0.  1.
     999901    1    3    3    0    0  0.97586663215E-01  0.65891513016E-01 -0.31622438641E-01  0.88840577832E+00  0.88000000000E+00 0. -1.
        -11    1    4    4    0    0 -0.93440383956E-01 -0.78390926477E-01  0.37488758310E-01  0.12760059102E+00  0.51100000000E-03 0. -1.
         11    1    4    4    0    0 -0.77127640195E-02  0.54119147472E-02  0.77190722179E-02  0.12191010908E-01  0.51100000000E-03 0.  1.
</event>
<event>
 8    1  0.2190512E+004  0.1043930E+01  0.7957747E-01            NaN
         13   -1    0    0    0    0  0.00000000000E+00  0.00000000000E+00  0.74505805969E-08  0.10566000000E+00  0.10566000000E+00 0.  1.
     999900   -1    0    0    0    0 -0.00000000000E+00 -0.00000000000E+00 -0.74505805969E-08  0.93827000000E+00  0.93827000000E+00 0.  1.
     999902    2    1    2    0    0 -0.16797306852E-01  0.25846828138E-02  0.33091008801E-02  0.10266158367E+01  0.10264698222E+01 0.  0.
     999903    2    3    3    0    0 -0.11580209672E+00  0.25781878755E-01  0.57928768570E-01  0.13907802542E+00  0.43727840691E-01 0.  0.
         14    1    1    2    0    0  0.16797306852E-01 -0.25846828138E-02 -0.33091008801E-02  0.17314163317E-01  0.00000000000E+00 0.  1.
     999901    1    3    3    0    0  0.99004789866E-01 -0.23197195941E-01 -0.54619667690E-01  0.88753781126E+00  0.88000000000E+00 0. -1.
        -11    1    4    4    0    0 -0.57820366990E-01  0.34291138026E-01  0.37727880725E-01  0.77089111365E-01  0.51100000000E-03 0. -1.
         11    1    4    4    0    0 -0.57981729727E-01 -0.85092592711E-02  0.20200887845E-01  0.61988914059E-01  0.51100000000E-03 0.  1.
</event>
<event>
 8    1  0.2190512E+004  0.1043930E+01  0.7957747E-01            NaN
         13   -1    0    0    0    0  0.00000000000E+00  0.00000000000E+00  0.74505805969E-08  0.10566000000E+00  0.10566000000E+00 0. -1.
     999900   -1    0    0    0    0 -0.00000000000E+00 -0.00000000000E+00 -0.74505805969E-08  0.93827000000E+00  0.93827000000E+00 0.  1.
     999902    2    1    2    0    0  0.27307523605E-02  0.70458819547E-02  0.11397495305E-01  0.10302550462E+01  0.10301642859E+01 0.  0.
     999903    2    3    3    0    0 -0.80636424601E-01  0.84156378663E-01  0.66032578391E-01  0.14127748342E+00  0.44883146852E-01 0.  0.
         14    1    1    2    0    0 -0.27307523605E-02 -0.70458819547E-02 -0.11397495305E-01  0.13674953755E-01  0.00000000000E+00 0.  1.
     999901    1    3    3    0    0  0.83367176961E-01 -0.77110496708E-01 -0.54635083086E-01  0.88897756282E+00  0.88000000000E+00 0. -1.
        -11    1    4    4    0    0 -0.49338046327E-01  0.72525781141E-01  0.31402842619E-01  0.93169906037E-01  0.51100000000E-03 0.  1.
         11    1    4    4    0    0 -0.31298378274E-01  0.11630597522E-01  0.34629735772E-01  0.48107577386E-01  0.51100000000E-03 0. -1.
</event>
<event>
 8    1  0.2190512E+004  0.1043930E+01  0.7957747E-01            NaN
         13   -1    0    0    0    0  0.00000000000E+00  0.00000000000E+00  0.74505805969E-08  0.10566000000E+00  0.10566000000E+00 0.  1.
     999900   -1    0    0    0    0 -0.00000000000E+00 -0.00000000000E+00 -0.74505805969E-08  0.93827000000E+00  0.93827000000E+00 0.  1.
     999902    2    1    2    0    0 -0.32842344899E-02 -0.79089051372E-02  0.77450343404E-02  0.10323834623E+01  0.10323188900E+01 0.  0.
     999903    2    3    3    0    0 -0.95601005506E-01  0.33318416647E-01  0.90135619901E-01  0.14277102594E+00  0.44827075888E-01 0.  0.
         14    1    1    2    0    0  0.32842344899E-02  0.79089051372E-02 -0.77450343404E-02  0.11546537732E-01  0.00000000000E+00 0. -1.
     999901    1    3    3    0    0  0.92316771017E-01 -0.41227321784E-01 -0.82390585561E-01  0.88961243632E+00  0.88000000000E+00 0.  1.
        -11    1    4    4    0    0 -0.62708159156E-01  0.43001916969E-01  0.56449588792E-01  0.94701083856E-01  0.51100000000E-03 0. -1.
         11    1    4    4    0    0 -0.32892846351E-01 -0.96835003221E-02  0.33686031109E-01  0.48069942089E-01  0.51100000000E-03 0.  1.
</event>
<event>
 8    1  0.2190512E+004  0.1043930E+01  0.7957747E-01            NaN
         13   -1    0    0    0    0  0.00000000000E+00  0.00000000000E+00  0.74505805969E-08  0.10566000000E+00  0.10566000000E+00 0. -1.
     999900   -1    0    0    0    0 -0.00000000000E+00 -0.00000000000E+00 -0.74505805969E-08  0.93827000000E+00  0.93827000000E+00 0. -1.
     999902    2    1    2    0    0 -0.32386204078E-03  0.12523714722E-01  0.10635294956E-01  0.10274965641E+01  0.10273651402E+01 0.  0.
     999903    2    3    3    0    0 -0.79310824535E-01 -0.85710737536E-01  0.55807515497E-01  0.13736765356E+00  0.46031033451E-01 0.  0.
         14    1    1    2    0    0  0.32386204078E-03 -0.12523714722E-01 -0.10635294956E-01  0.16433435912E-01  0.00000000000E+00 0.  1.
     999901    1    3    3    0    0  0.78986962494E-01  0.98234452258E-01 -0.45172220541E-01  0.89012891053E+00  0.88000000000E+00 0. -1.
        -11    1    4    4    0    0 -0.43697086738E-01 -0.19822543471E-01  0.83705112250E-02  0.48710319217E-01  0.51100000000E-03 0. -1.
         11    1    4    4    0    0 -0.35613737797E-01 -0.65888194065E-01  0.47437004272E-01  0.88657334340E-01  0.51100000000E-03 0.  1.
</event>
<event>
 8    1  0.2190512E+004  0.1043930E+01  0.7957747E-01            NaN
         13   -1    0    0    0    0  0.00000000000E+00  0.00000000000E+00  0.74505805969E-08  0.10566000000E+00  0.10566000000E+00 0. -1.
     999900   -1    0    0    0    0 -0.00000000000E+00 -0.00000000000E+00 -0.74505805969E-08  0.93827000000E+00  0.93827000000E+00 0. -1.
     999902    2    1    2    0    0 -0.19156154081E-01  0.37149008782E-02  0.72517685670E-02  0.10231130147E+01  0.10229012142E+01 0.  0.
     999903    2    3    3    0    0  0.11416787606E-01  0.12616207716E+00  0.80628689670E-03  0.13408570359E+00  0.43944431469E-01 0.  0.
         14    1    1    2    0    0  0.19156154081E-01 -0.37149008782E-02 -0.72517685670E-02  0.20816985254E-01  0.00000000000E+00 0. -1.
     999901    1    3    3    0    0 -0.30572941686E-01 -0.12244717628E+00  0.64454816703E-02  0.88902731115E+00  0.88000000000E+00 0. -1.
        -11    1    4    4    0    0 -0.99493157804E-02  0.39293502964E-01 -0.15034483232E-01  0.43234998170E-01  0.51100000000E-03 0.  1.
         11    1    4    4    0    0  0.21366103386E-01  0.86868574195E-01  0.15840770129E-01  0.90850705423E-01  0.51100000000E-03 0. -1.
</event>
<event>
 8    1  0.2190512E+004  0.1043930E+01  0.7957747E-01            NaN
         13   -1    0    0    0    0  0.00000000000E+00  0.00000000000E+00  0.74505805969E-08  0.10566000000E+00  0.10566000000E+00 0. -1.
     999900   -1    0    0    0    0 -0.00000000000E+00 -0.00000000000E+00 -0.74505805969E-08  0.93827000000E+00  0.93827000000E+00 0.  1.
     999902    2    1    2    0    0  0.13244515205E-02  0.10708642072E-02  0.13443023360E-01  0.10303795093E+01  0.10302904044E+01 0.  0.
     999903    2    3    3    0    0 -0.24776463737E-01  0.51195579599E-01 -0.11867170655E+00  0.13872484140E+00  0.43894728180E-01 0.  0.
         14    1    1    2    0    0 -0.13244515205E-02 -0.10708642072E-02 -0.13443023360E-01  0.13550490731E-01  0.00000000000E+00 0.  1.
     999901    1    3    3    0    0  0.26100915258E-01 -0.50124715391E-01  0.13211472991E+00  0.89165466787E+00  0.88000000000E+00 0. -1.
        -11    1    4    4    0    0 -0.10180581705E-01  0.22475102866E-01 -0.96517797208E-01  0.99622892909E-01  0.51100000000E-03 0.  1.
         11    1    4    4    0    0 -0.14595882032E-01  0.28720476733E-01 -0.22153909337E-01  0.39101948493E-01  0.51100000000E-03 0. -1.
</event>
<event>
 8    1  0.2190512E+004  0.1043930E+01  0.7957747E-01            NaN
         13   -1    0    0    0    0  0.00000000000E+00  0.00000000000E+00  0.74505805969E-08  0.10566000000E+00  0.10566000000E+00 0. -1.
     999900   -1    0    0    0    0 -0.00000000000E+00 -0.00000000000E+00 -0.74505805969E-08  0.93827000000E+00  0.93827000000E+00 0.  1.
     999902    2    1    2    0    0  0.16202061058E-01  0.80878983973E-02 -0.51057067665E-02  0.10251154013E+01  0.10249427286E+01 0.  0.
     999903    2    3    3    0    0  0.11726694448E+00 -0.22492948668E-01 -0.51141399749E-01  0.13760845264E+00  0.45422180295E-01 0.  0.
         14    1    1    2    0    0 -0.16202061058E-01 -0.80878983973E-02  0.51057067665E-02  0.18814598710E-01  0.00000000000E+00 0. -1.
     999901    1    3    3    0    0 -0.10106488342E+00  0.30580847065E-01  0.46035692982E-01  0.88750694865E+00  0.88000000000E+00 0. -1.
        -11    1    4    4    0    0  0.25866893005E-01 -0.16264477752E-01 -0.31549813027E-01  0.43923583794E-01  0.51100000000E-03 0.  1.
         11    1    4    4    0    0  0.91400051477E-01 -0.62284709152E-02 -0.19591586721E-01  0.93684868849E-01  0.51100000000E-03 0. -1.
</event>
<event>
 8    1  0.2190512E+004  0.1043930E+01  0.7957747E-01            NaN
         13   -1    0    0    0    0  0.00000000000E+00  0.00000000000E+00  0.74505805969E-08  0.10566000000E+00  0.10566000000E+00 0.  1.
     999900   -1    0    0    0    0 -0.00000000000E+00 -0.00000000000E+00 -0.74505805969E-08  0.93827000000E+00  0.93827000000E+00 0. -1.
     999902    2    1    2    0    0 -0.12273402215E-01  0.47885408259E-02 -0.15147656693E-02  0.10306687391E+01  0.10305834215E+01 0.  0.
     999903    2    3    3    0    0 -0.48469234980E-01  0.39827660756E-01 -0.11921937151E+00  0.14140373223E+00  0.42967983949E-01 0.  0.
         14    1    1    2    0    0  0.12273402215E-01 -0.47885408259E-02  0.15147656693E-02  0.13261260883E-01  0.00000000000E+00 0. -1.
     999901    1    3    3    0    0  0.36195832765E-01 -0.35039119930E-01  0.11770460584E+00  0.88926500689E+00  0.88000000000E+00 0.  1.
        -11    1    4    4    0    0 -0.10910466198E-01  0.36501682939E-01 -0.54446678768E-01  0.66453841724E-01  0.51100000000E-03 0.  1.
         11    1    4    4    0    0 -0.37558768782E-01  0.33259778169E-02 -0.64772692743E-01  0.74949890507E-01  0.51100000000E-03 0. -1.
</event>
<event>
 8    1  0.2190512E+004  0.1043930E+01  0.7957747E-01            NaN
         13   -1    0    0    0    0  0.00000000000E+00  0.00000000000E+00  0.74505805969E-08  0.10566000000E+00  0.10566000000E+00 0. -1.
     999900   -1    0    0    0    0 -0.00000000000E+00 -0.00000000000E+00 -0.74505805969E-08  0.93827000000E+00  0.93827000000E+00 0.  1.
     999902    2    1    2    0    0 -0.39820258535E-02  0.54954203536E-03 -0.11871747190E-01  0.10313961695E+01  0.10313200093E+01 0.  0.
     999903    2    3    3    0    0 -0.43489780187E-01  0.11643982273E+00  0.48954908379E-01  0.14083943246E+00  0.44604589247E-01 0.  0.
         14    1    1    2    0    0  0.39820258535E-02 -0.54954203536E-03  0.11871747190E-01  0.12533830527E-01  0.00000000000E+00 0. -1.
     999901    1    3    3    0    0  0.39507754334E-01 -0.11589028070E+00 -0.60826655569E-01  0.89055673701E+00  0.88000000000E+00 0. -1.
        -11    1    4    4    0    0 -0.12555421050E-01  0.50359047301E-01  0.43411126464E-01  0.67664313081E-01  0.51100000000E-03 0. -1.
         11    1    4    4    0    0 -0.30934359137E-01  0.66080775434E-01  0.55437819146E-02  0.73175119379E-01  0.51100000000E-03 0.  1.
</event>
<event>
 8    1  0.2190512E+004  0.1043930E+01  0.7957747E-01            NaN
         13   -1    0    0    0    0  0.00000000000E+00  0.00000000000E+00  0.74505805969E-08  0.10566000000E+00  0.10566000000E+00 0. -1.
     999900   -1    0    0    0    0 -0.00000000000E+00 -0.00000000000E+00 -0.74505805969E-08  0.93827000000E+00  0.93827000000E+00 0. -1.
     999902    2    1    2    0    0 -0.10833816070E-01  0.47474607340E-02  0.71527881326E-02  0.10301071084E+01  0.10300143603E+01 0.  0.
     999903    2    3    3    0    0 -0.12160068352E+00 -0.54686379664E-01 -0.26171084862E-02  0.14112053303E+00  0.46160905900E-01 0.  0.
         14    1    1    2    0    0  0.10833816070E-01 -0.47474607340E-02 -0.71527881326E-02  0.13822891598E-01  0.00000000000E+00 0.  1.
     999901    1    3    3    0    0  0.11076686745E+00  0.59433840398E-01  0.97698966188E-02  0.88898657537E+00  0.88000000000E+00 0.  1.
        -11    1    4    4    0    0 -0.41570294762E-01 -0.83228761736E-03  0.12632213177E-01  0.43458210272E-01  0.51100000000E-03 0. -1.
         11    1    4    4    0    0 -0.80030388756E-01 -0.53854092047E-01 -0.15249321664E-01  0.97662322760E-01  0.51100000000E-03 0.  1.
</event>
<event>
 8    1  0.2190512E+004  0.1043930E+01  0.7957747E-01            NaN
         13   -1    0    0    0    0  0.00000000000E+00  0.00000000000E+00  0.74505805969E-08  0.10566000000E+00  0.10566000000E+00 0.  1.
     999900   -1    0    0    0    0 -0.00000000000E+00 -0.00000000000E+00 -0.74505805969E-08  0.93827000000E+00  0.93827000000E+00 0. -1.
     999902    2    1    2    0    0 -0.16566026414E-02  0.10595234220E-01  0.56061767440E-02  0.10318290687E+01  0.10317581085E+01 0.  0.
     999903    2    3    3    0    0  0.15114222573E-01 -0.19193477291E-01 -0.13095469605E+00  0.14064025600E+00  0.45096783671E-01 0.  0.
         14    1    1    2    0    0  0.16566026414E-02 -0.10595234220E-01 -0.56061767440E-02  0.12100931293E-01  0.00000000000E+00 0. -1.
     999901    1    3    3    0    0 -0.16770825214E-01  0.29788711511E-01  0.13656087279E+00  0.89118881270E+00  0.88000000000E+00 0.  1.
        -11    1    4    4    0    0 -0.21539995860E-02 -0.22768139649E-01 -0.27865326493E-01  0.36052259830E-01  0.51100000000E-03 0. -1.
         11    1    4    4    0    0  0.17268222159E-01  0.35746623579E-02 -0.10308936955E+00  0.10458799617E+00  0.51100000000E-03 0.  1.
</event>
<event>
 8    1  0.2190512E+004  0.1043930E+01  0.7957747E-01            NaN
         13   -1    0    0    0    0  0.00000000000E+00  0.00000000000E+00  0.74505805969E-08  0.10566000000E+00  0.10566000000E+00 0.  1.
     999900   -1    0    0    0    0 -0.00000000000E+00 -0.00000000000E+00 -0.74505805969E-08  0.93827000000E+00  0.93827000000E+00 0.  1.
     999902    2    1    2    0    0 -0.69681056423E-02  0.91628779543E-02 -0.58936302731E-02  0.10309975715E+01  0.10309164587E+01 0.  0.
     999903    2    3    3    0    0 -0.58680251016E-01 -0.65897668675E-01 -0.10048319398E+00  0.14124737219E+00  0.45476073743E-01 0.  0.
         14    1    1    2    0    0  0.69681056423E-02 -0.91628779543E-02  0.58936302731E-02  0.12932428482E-01  0.00000000000E+00 0. -1.
     999901    1    3    3    0    0  0.51712145374E-01  0.75060546629E-01  0.94589563704E-01  0.88975019933E+00  0.88000000000E+00 0. -1.
        -11    1    4    4    0    0 -0.17287768982E-01  0.42503236701E-02 -0.18612433562E-01  0.25760745559E-01  0.51100000000E-03 0. -1.
         11    1    4    4    0    0 -0.41392482034E-01 -0.70147992345E-01 -0.81870760415E-01  0.11548662663E+00  0.51100000000E-03 0.  1.
</event>
<event>
 8    1  0.2190512E+004  0.1043930E+01  0.7957747E-01            NaN
         13   -1    0    0    0    0  0.00000000000E+00  0.00000000000E+00  0.74505805969E-08  0.10566000000E+00  0.10566000000E+00 0.  1.
     999900   -1    0    0    0    0 -0.00000000000E+00 -0.00000000000E+00 -0.74505805969E-08  0.93827000000E+00  0.93827000000E+00 0.  1.
     999902    2    1    2    0    0  0.75240998156E-02  0.11373761786E-01 -0.12164838200E-02  0.10302386024E+01  0.10301476222E+01 0.  0.
     999903    2    3    3    0    0  0.14546881451E-01 -0.74363070176E-01  0.10813711315E+00  0.13930744177E+00  0.44401014938E-01 0.  0.
         14    1    1    2    0    0 -0.75240998156E-02 -0.11373761786E-01  0.12164838200E-02  0.13691397594E-01  0.00000000000E+00 0. -1.
     999901    1    3    3    0    0 -0.70227816357E-02  0.85736831961E-01 -0.10935359697E+00  0.89093116063E+00  0.88000000000E+00 0.  1.
        -11    1    4    4    0    0  0.24106926764E-01 -0.20185496660E-01  0.51545287386E-01  0.60380261395E-01  0.51100000000E-03 0.  1.
         11    1    4    4    0    0 -0.95600453125E-02 -0.54177573515E-01  0.56591825762E-01  0.78927180378E-01  0.51100000000E-03 0. -1.
</event>
<event>
 7    1  0.2190512E+004  0.1043930E+01  0.7957747E-01            NaN
         13   -1    0    0    0    0  0.00000000000E+00  0.00000000000E+00  0.74505805969E-08  0.10566000000E+00  0.10566000000E+00 0.  1.
     999900   -1    0    0    0    0 -0.00000000000E+00 -0.00000000000E+00 -0.74505805969E-08  0.93827000000E+00  0.93827000000E+00 0. -1.
     999903    2    1    2    0    0  0.31839151575E-01  0.25770140462E-01 -0.94835253103E-01  0.11252916243E+00  0.44623485460E-01 0.  0.
         14    1    1    2    0    0 -0.37006175049E-01  0.10641251042E-01  0.28944800473E-01  0.48171513262E-01  0.00000000000E+00 0.  1.
     999901    1    1    2    0    0  0.51670234741E-02 -0.36411391505E-01  0.65890452630E-01  0.88322932430E+00  0.88000000000E+00 0.  1.
        -11    1    3    3    0    0  0.18615084045E-01 -0.85267589610E-02 -0.17652417640E-01  0.27038785881E-01  0.51100000000E-03 0. -1.
         11    1    3    3    0    0  0.13224067529E-01  0.34296899423E-01 -0.77182835463E-01  0.85490376553E-01  0.51100000000E-03 0.  1.
</event>
<event>
 8    1  0.2190512E+004  0.1043930E+01  0.7957747E-01            NaN
         13   -1    0    0    0    0  0.00000000000E+00  0.00000000000E+00  0.74505805969E-08  0.10566000000E+00  0.10566000000E+00 0.  1.
     999900   -1    0    0    0    0 -0.00000000000E+00 -0.00000000000E+00 -0.74505805969E-08  0.93827000000E+00  0.93827000000E+00 0. -1.
     999902    2    1    2    0    0 -0.11400209418E-01 -0.25751197693E-02  0.79827911043E-02  0.10297765209E+01  0.10296792520E+01 0.  0.
     999903    2    3    3    0    0  0.72557517499E-01 -0.10826485402E+00 -0.23134681369E-01  0.13894122921E+00  0.42232448797E-01 0.  0.
         14    1    1    2    0    0  0.11400209418E-01  0.25751197693E-02 -0.79827911043E-02  0.14153479092E-01  0.00000000000E+00 0. -1.
     999901    1    3    3    0    0 -0.83957726917E-01  0.10568973425E+00  0.31117472473E-01  0.89083529169E+00  0.88000000000E+00 0.  1.
        -11    1    4    4    0    0  0.69191768044E-01 -0.72724727044E-01 -0.99206090587E-02  0.10087153361E+00  0.51100000000E-03 0. -1.
         11    1    4    4    0    0  0.33657494552E-02 -0.35540126977E-01 -0.13214072310E-01  0.38069695599E-01  0.51100000000E-03 0.  1.
</event>
<event>
 8    1  0.2190512E+004  0.1043930E+01  0.7957747E-01            NaN
         13   -1    0    0    0    0  0.00000000000E+00  0.00000000000E+00  0.74505805969E-08  0.10566000000E+00  0.10566000000E+00 0.  1.
     999900   -1    0    0    0    0 -0.00000000000E+00 -0.00000000000E+00 -0.74505805969E-08  0.93827000000E+00  0.93827000000E+00 0.  1.
     999902    2    1    2    0    0  0.15687047788E-01  0.94451032809E-03 -0.57939565904E-03  0.10282038667E+01  0.10280835960E+01 0.  0.
     999903    2    3    3    0    0  0.54710662613E-01  0.11177868194E+00  0.48505200386E-01  0.13903776657E+00  0.38613672820E-01 0.  0.
         14    1    1    2    0    0 -0.15687047788E-01 -0.94451032809E-03  0.57939565904E-03  0.15726133262E-01  0.00000000000E+00 0.  1.
     999901    1    3    3    0    0 -0.39023614825E-01 -0.11083417162E+00 -0.49084596045E-01  0.88916610016E+00  0.88000000000E+00 0. -1.
        -11    1    4    4    0    0 -0.23211265266E-02  0.57622868146E-02 -0.43092773511E-02  0.75777681395E-02  0.51100000000E-03 0. -1.
         11    1    4    4    0    0  0.57031789139E-01  0.10601639513E+00  0.52814477737E-01  0.13145999843E+00  0.51100000000E-03 0.  1.
</event>
<event>
 8    1  0.2190512E+004  0.1043930E+01  0.7957747E-01            NaN
         13   -1    0    0    0    0  0.00000000000E+00  0.00000000000E+00  0.74505805969E-08  0.10566000000E+00  0.10566000000E+00 0.  1.
     999900   -1    0    0    0    0 -0.00000000000E+00 -0.00000000000E+00 -0.74505805969E-08  0.93827000000E+00  0.93827000000E+00 0. -1.
     999902    2    1    2    0    0 -0.55627345218E-02 -0.10533485658E-01  0.49960893325E-02  0.10310125992E+01  0.10309316759E+01 0.  0.
     999903    2    3    3    0    0 -0.16412812869E-01 -0.11224039972E+00  0.73604780223E-01  0.14243554960E+00  0.44754154685E-01 0.  0.
         14    1    1    2    0    0  0.55627345218E-02  0.10533485658E-01 -0.49960893325E-02  0.12917400826E-01  0.00000000000E+00 0. -1.
     999901    1    3    3    0    0  0.10850078347E-01  0.10170691406E+00 -0.68608690891E-01  0.88857704958E+00  0.88000000000E+00 0.  1.
        -11    1    4    4    0    0 -0.25860012083E-01 -0.64169422731E-01  0.25392419317E-01  0.73698650722E-01  0.51100000000E-03 0.  1.
         11    1    4    4    0    0  0.94471992137E-02 -0.48070976991E-01  0.48212360907E-01  0.68736898876E-01  0.51100000000E-03 0. -1.
</event>
<event>
 8    1  0.2190512E+004  0.1043930E+01  0.7957747E-01            NaN
         13   -1    0    0    0    0  0.00000000000E+00  0.00000000000E+00  0.74505805969E-08  0.10566000000E+00  0.10566000000E+00 0. -1.
     999900   -1    0    0    0    0 -0.00000000000E+00 -0.00000000000E+00 -0.74505805969E-08  0.93827000000E+00  0.93827000000E+00 0. -1.
     999902    2    1    2    0    0 -0.12011771015E-01  0.14492743098E-02 -0.88990299767E-02  0.10289108198E+01  0.10288011953E+01 0.  0.
     999903    2    3    3    0    0  0.10054793127E+00 -0.64307536113E-02 -0.84275891952E-01  0.13851009388E+00  0.43947458041E-01 0.  0.
         14    1    1    2    0    0  0.12011771015E-01 -0.14492743098E-02  0.88990299767E-02  0.15019180186E-01  0.00000000000E+00 0. -1.
     999901    1    3    3    0    0 -0.11255970228E+00  0.78800279211E-02  0.75376861975E-01  0.89040072593E+00  0.88000000000E+00 0.  1.
        -11    1    4    4    0    0  0.52476627616E-01 -0.40733791581E-02 -0.71364557351E-01  0.88676660010E-01  0.51100000000E-03 0. -1.
         11    1    4    4    0    0  0.48071303653E-01 -0.23573744532E-02 -0.12911334601E-01  0.49833433871E-01  0.51100000000E-03 0.  1.
</event>
<event>
 8    1  0.2190512E+004  0.1043930E+01  0.7957747E-01            NaN
         13   -1    0    0    0    0  0.00000000000E+00  0.00000000000E+00  0.74505805969E-08  0.10566000000E+00  0.10566000000E+00 0. -1.
     999900   -1    0    0    0    0 -0.00000000000E+00 -0.00000000000E+00 -0.74505805969E-08  0.93827000000E+00  0.93827000000E+00 0.  1.
     999902    2    1    2    0    0 -0.29041461139E-03  0.10532842997E-01  0.89664410325E-02  0.10300944593E+01  0.10300015402E+01 0.  0.
     999903    2    3    3    0    0  0.11035623807E+00 -0.65110707228E-01 -0.30136684401E-01  0.13908734210E+00  0.44935125580E-01 0.  0.
         14    1    1    2    0    0  0.29041461139E-03 -0.10532842997E-01 -0.89664410325E-02  0.13835540721E-01  0.00000000000E+00 0.  1.
     999901    1    3    3    0    0 -0.11064665268E+00  0.75643550225E-01  0.39103125434E-01  0.89100711718E+00  0.88000000000E+00 0.  1.
        -11    1    4    4    0    0  0.84971901746E-01 -0.26368065029E-01 -0.14169929318E-01  0.90091880642E-01  0.51100000000E-03 0. -1.
         11    1    4    4    0    0  0.25384336320E-01 -0.38742642199E-01 -0.15966755083E-01  0.48995461462E-01  0.51100000000E-03 0.  1.
</event>
<event>
 8    1  0.2190512E+004  0.1043930E+01  0.7957747E-01            NaN
         13   -1    0    0    0    0  0.00000000000E+00  0.00000000000E+00  0.74505805969E-08  0.10566000000E+00  0.10566000000E+00 0. -1.
     999900   -1    0    0    0    0 -0.00000000000E+00 -0.00000000000E+00 -0.74505805969E-08  0.93827000000E+00  0.93827000000E+00 0. -1.
     999902    2    1    2    0    0 -0.12251976677E-01  0.84254245251E-02 -0.67853718783E-02  0.10275855825E+01  0.10274555900E+01 0.  0.
     999903    2    3    3    0    0 -0.12874528583E+00 -0.21104689127E-01 -0.17782000529E-01  0.13934932762E+00  0.45621037248E-01 0.  0.
         14    1    1    2    0    0  0.12251976677E-01 -0.84254245251E-02  0.67853718783E-02  0.16344417470E-01  0.00000000000E+00 0. -1.
     999901    1    3    3    0    0  0.11649330915E+00  0.29530113652E-01  0.10996628651E-01  0.88823625491E+00  0.88000000000E+00 0. -1.
        -11    1    4    4    0    0 -0.47367664913E-01 -0.15096679739E-01  0.14198542719E-01  0.51705562126E-01  0.51100000000E-03 0.  1.
         11    1    4    4    0    0 -0.81377620917E-01 -0.60080093875E-02 -0.31980543249E-01  0.87643765496E-01  0.51100000000E-03 0. -1.
</event>
<event>
 8    1  0.2190512E+004  0.1043930E+01  0.7957747E-01            NaN
         13   -1    0    0    0    0  0.00000000000E+00  0.00000000000E+00  0.74505805969E-08  0.10566000000E+00  0.10566000000E+00 0. -1.
     999900   -1    0    0    0    0 -0.00000000000E+00 -0.00000000000E+00 -0.74505805969E-08  0.93827000000E+00  0.93827000000E+00 0.  1.
     999902    2    1    2    0    0  0.77959753641E-02  0.94448070390E-03  0.97909368971E-02  0.10313788359E+01  0.10313024636E+01 0.  0.
     999903    2    3    3    0    0 -0.81030623839E-02  0.11219027540E+00  0.73858765568E-01  0.14192220797E+00  0.45105192072E-01 0.  0.
         14    1    1    2    0    0 -0.77959753641E-02 -0.94448070390E-03 -0.97909368971E-02  0.12551164129E-01  0.00000000000E+00 0.  1.
     999901    1    3    3    0    0  0.15899037748E-01 -0.11124579469E+00 -0.64067828671E-01  0.88945662790E+00  0.88000000000E+00 0.  1.
        -11    1    4    4    0    0 -0.19949069009E-01  0.33069853634E-01  0.38224907301E-01  0.54341376803E-01  0.51100000000E-03 0.  1.
         11    1    4    4    0    0  0.11846006625E-01  0.79120421762E-01  0.35633858267E-01  0.87580831171E-01  0.51100000000E-03 0. -1.
</event>
<event>
 8    1  0.2190512E+004  0.1043930E+01  0.7957747E-01            NaN
         13   -1    0    0    0    0  0.00000000000E+00  0.00000000000E+00  0.74505805969E-08  0.10566000000E+00  0.10566000000E+00 0. -1.
     999900   -1    0    0    0    0 -0.00000000000E+00 -0.00000000000E+00 -0.74505805969E-08  0.93827000000E+00  0.93827000000E+00 0. -1.
     999902    2    1    2    0    0  0.89435406361E-02  0.69577249233E-02  0.74524684637E-02  0.10303676941E+01  0.10302784327E+01 0.  0.
     999903    2    3    3    0    0 -0.10345552743E+00 -0.64181282220E-01  0.51348371471E-01  0.13928904485E+00  0.44073797437E-01 0.  0.
         14    1    1    2    0    0 -0.89435406361E-02 -0.69577249233E-02 -0.74524684637E-02  0.13562305903E-01  0.00000000000E+00 0.  1.
     999901    1    3    3    0    0  0.11239906806E+00  0.71139007143E-01 -0.43895903007E-01  0.89107864924E+00  0.88000000000E+00 0. -1.
        -11    1    4    4    0    0 -0.43558285587E-01 -0.52806828171E-01  0.25156839311E-01  0.72931564017E-01  0.51100000000E-03 0. -1.
         11    1    4    4    0    0 -0.59897241840E-01 -0.11374454048E-01  0.26191532160E-01  0.66357480835E-01  0.51100000000E-03 0.  1.
</event>
<event>
 8    1  0.2190512E+004  0.1043930E+01  0.7957747E-01            NaN
         13   -1    0    0    0    0  0.00000000000E+00  0.00000000000E+00  0.74505805969E-08  0.10566000000E+00  0.10566000000E+00 0. -1.
     999900   -1    0    0    0    0 -0.00000000000E+00 -0.00000000000E+00 -0.74505805969E-08  0.93827000000E+00  0.93827000000E+00 0. -1.
     999902    2    1    2    0    0  0.15184506631E-01  0.10838924671E-01 -0.80973888092E-03  0.10252562964E+01  0.10250862237E+01 0.  0.
     999903    2    3    3    0    0 -0.11351829249E+00 -0.51476580638E-01  0.16909917316E-01  0.13353794460E+00  0.44835212282E-01 0.  0.
         14    1    1    2    0    0 -0.15184506631E-01 -0.10838924671E-01  0.80973888092E-03  0.18673703615E-01  0.00000000000E+00 0.  1.
     999901    1    3    3    0    0  0.12870279912E+00  0.62315505309E-01 -0.17719656197E-01  0.89171835179E+00  0.88000000000E+00 0.  1.
        -11    1    4    4    0    0 -0.30395023915E-01 -0.23834047283E-01  0.24283758018E-01  0.45627637602E-01  0.51100000000E-03 0.  1.
         11    1    4    4    0    0 -0.83123268570E-01 -0.27642533355E-01 -0.73738407018E-02  0.87910306994E-01  0.51100000000E-03 0. -1.
</event>
<event>
 8    1  0.2190512E+004  0.1043930E+01  0.7957747E-01            NaN
         13   -1    0    0    0    0  0.00000000000E+00  0.00000000000E+00  0.74505805969E-08  0.10566000000E+00  0.10566000000E+00 0.  1.
     999900   -1    0    0    0    0 -0.00000000000E+00 -0.00000000000E+00 -0.74505805969E-08  0.93827000000E+00  0.93827000000E+00 0. -1.
     999902    2    1    2    0    0  0.16827383121E-03 -0.94545988943E-02 -0.92896168090E-02  0.10306742565E+01  0.10305890103E+01 0.  0.
     999903    2    3    3    0    0 -0.89045185799E-01 -0.94794330603E-01  0.29186973911E-01  0.14122366243E+00  0.46660831066E-01 0.  0.
         14    1    1    2    0    0 -0.16827383121E-03  0.94545988943E-02  0.92896168090E-02  0.13255743540E-01  0.00000000000E+00 0.  1.
     999901    1    3    3    0    0  0.89213459630E-01  0.85339731708E-01 -0.38476590720E-01  0.88945059403E+00  0.88000000000E+00 0.  1.
        -11    1    4    4    0    0 -0.54599236535E-01 -0.44335255755E-01  0.37261298000E-01  0.79594955761E-01  0.51100000000E-03 0.  1.
         11    1    4    4    0    0 -0.34445949264E-01 -0.50459074847E-01 -0.80743240890E-02  0.61628706669E-01  0.51100000000E-03 0. -1.
</event>
<event>
 8    1  0.2190512E+004  0.1043930E+01  0.7957747E-01            NaN
         13   -1    0    0    0    0  0.00000000000E+00  0.00000000000E+00  0.74505805969E-08  0.10566000000E+00  0.10566000000E+00 0. -1.
     999900   -1    0    0    0    0 -0.00000000000E+00 -0.00000000000E+00 -0.74505805969E-08  0.93827000000E+00  0.93827000000E+00 0.  1.
     999902    2    1    2    0    0  0.74379994353E-02  0.78152396725E-02  0.49282595274E-02  0.10320687375E+01  0.10320005762E+01 0.  0.
     999903    2    3    3    0    0 -0.11080815200E+00 -0.73851919655E-01 -0.69868763360E-02  0.14033242684E+00  0.43724375310E-01 0.  0.
         14    1    1    2    0    0 -0.74379994353E-02 -0.78152396725E-02 -0.49282595274E-02  0.11861262526E-01  0.00000000000E+00 0. -1.
     999901    1    3    3    0    0  0.11824615143E+00  0.81667159328E-01  0.11915135863E-01  0.89173631063E+00  0.88000000000E+00 0. -1.
        -11    1    4    4    0    0 -0.52297131484E-01 -0.26080964154E-01 -0.23536675117E-01  0.63003514579E-01  0.51100000000E-03 0.  1.
         11    1    4    4    0    0 -0.58511020512E-01 -0.47770955501E-01  0.16549798781E-01  0.77328912261E-01  0.51100000000E-03 0. -1.
</event>
<event>
 8    1  0.2190512E+004  0.1043930E+01  0.7957747E-01            NaN
         13   -1    0    0    0    0  0.00000000000E+00  0.00000000000E+00  0.74505805969E-08  0.10566000000E+00  0.10566000000E+00 0.  1.
     999900   -1    0    0    0    0 -0.00000000000E+00 -0.00000000000E+00 -0.74505805969E-08  0.93827000000E+00  0.93827000000E+00 0. -1.
     999902    2    1    2    0    0 -0.13027663302E-01 -0.14114037496E-02  0.63616991961E-02  0.10293634874E+01  0.10292604170E+01 0.  0.
     999903    2    3    3    0    0 -0.90075771423E-01 -0.62915217658E-01  0.78538186476E-01  0.14092183183E+00  0.40233651864E-01 0.  0.
         14    1    1    2    0    0  0.13027663302E-01  0.14114037496E-02 -0.63616991961E-02  0.14566512566E-01  0.00000000000E+00 0. -1.
     999901    1    3    3    0    0  0.77048108120E-01  0.61503813908E-01 -0.72176487280E-01  0.88844165560E+00  0.88000000000E+00 0. -1.
        -11    1    4    4    0    0 -0.81110105252E-02 -0.12725820237E-01  0.29230311177E-01  0.32899957522E-01  0.51100000000E-03 0. -1.
         11    1    4    4    0    0 -0.81964760897E-01 -0.50189397421E-01  0.49307875299E-01  0.10802187431E+00  0.51100000000E-03 0.  1.
</event>
<event>
 8    1  0.2190512E+004  0.1043930E+01  0.7957747E-01            NaN
         13   -1    0    0    0    0  0.00000000000E+00  0.00000000000E+00  0.74505805969E-08  0.10566000000E+00  0.10566000000E+00 0.  1.
     999900   -1    0    0    0    0 -0.00000000000E+00 -0.00000000000E+00 -0.74505805969E-08  0.93827000000E+00  0.93827000000E+00 0. -1.
     999902    2    1    2    0    0  0.12916521368E-01  0.24174671491E-02  0.37341169993E-02  0.10302689495E+01  0.10301783748E+01 0.  0.
     999903    2    3    3    0    0  0.88721958428E-01 -0.91621323115E-02 -0.10092450092E+00  0.14075561190E+00  0.40876115520E-01 0.  0.
         14    1    1    2    0    0 -0.12916521368E-01 -0.24174671491E-02 -0.37341169993E-02  0.13661050524E-01  0.00000000000E+00 0. -1.
     999901    1    3    3    0    0 -0.75805437060E-01  0.11579599461E-01  0.10465861792E+00  0.88951333757E+00  0.88000000000E+00 0.  1.
        -11    1    4    4    0    0  0.28063973311E-01 -0.22537211396E-01 -0.36925748057E-01  0.51568250756E-01  0.51100000000E-03 0.  1.
         11    1    4    4    0    0  0.60657985117E-01  0.13375079085E-01 -0.63998752867E-01  0.89187361148E-01  0.51100000000E-03 0. -1.
</event>
<event>
 8    1  0.2190512E+004  0.1043930E+01  0.7957747E-01            NaN
         13   -1    0    0    0    0  0.00000000000E+00  0.00000000000E+00  0.74505805969E-08  0.10566000000E+00  0.10566000000E+00 0. -1.
     999900   -1    0    0    0    0 -0.00000000000E+00 -0.00000000000E+00 -0.74505805969E-08  0.93827000000E+00  0.93827000000E+00 0.  1.
     999902    2    1    2    0    0 -0.14236710631E-02  0.12542997867E-01 -0.37385494705E-02  0.10307645001E+01  0.10306804181E+01 0.  0.
     999903    2    3    3    0    0  0.90290421667E-01 -0.90963432380E-01 -0.33907900212E-01  0.13945352991E+00  0.43253150541E-01 0.  0.
         14    1    1    2    0    0  0.14236710631E-02 -0.12542997867E-01  0.37385494705E-02  0.13165499874E-01  0.00000000000E+00 0. -1.
     999901    1    3    3    0    0 -0.91714092730E-01  0.10350643025E+00  0.30169350741E-01  0.89131097022E+00  0.88000000000E+00 0.  1.
        -11    1    4    4    0    0  0.51239740836E-03 -0.15451289626E-01 -0.13182369485E-01  0.20323407403E-01  0.51100000000E-03 0.  1.
         11    1    4    4    0    0  0.89778024259E-01 -0.75512142753E-01 -0.20725530727E-01  0.11913012250E+00  0.51100000000E-03 0. -1.
</event>
<event>
 8    1  0.2190512E+004  0.1043930E+01  0.7957747E-01            NaN
         13   -1    0    0    0    0  0.00000000000E+00  0.00000000000E+00  0.74505805969E-08  0.10566000000E+00  0.10566000000E+00 0.  1.
     999900   -1    0    0    0    0 -0.00000000000E+00 -0.00000000000E+00 -0.74505805969E-08  0.93827000000E+00  0.93827000000E+00 0.  1.
     999902    2    1    2    0    0  0.11157712806E-01 -0.69978298491E-02 -0.16332050946E-02  0.10306585443E+01  0.10305730946E+01 0.  0.
     999903    2    3    3    0    0 -0.10512785713E-01  0.10665607892E+00  0.77214629587E-01  0.13958963421E+00  0.45134566829E-01 0.  0.
         14    1    1    2    0    0 -0.11157712806E-01  0.69978298491E-02  0.16332050946E-02  0.13271455705E-01  0.00000000000E+00 0.  1.
     999901    1    3    3    0    0  0.21670498518E-01 -0.11365390877E+00 -0.78847834682E-01  0.89106891008E+00  0.88000000000E+00 0.  1.
        -11    1    4    4    0    0 -0.27365102042E-01  0.81417543346E-01  0.58693721279E-01  0.10403306788E+00  0.51100000000E-03 0.  1.
         11    1    4    4    0    0  0.16852316329E-01  0.25238535573E-01  0.18520908309E-01  0.35556566329E-01  0.51100000000E-03 0. -1.
</event>
<event>
 8    1  0.2190512E+004  0.1043930E+01  0.7957747E-01            NaN
         13   -1    0    0    0    0  0.00000000000E+00  0.00000000000E+00  0.74505805969E-08  0.10566000000E+00  0.10566000000E+00 0. -1.
     999900   -1    0    0    0    0 -0.00000000000E+00 -0.00000000000E+00 -0.74505805969E-08  0.93827000000E+00  0.93827000000E+00 0. -1.
     999902    2    1    2    0    0  0.62196672289E-03  0.76170086327E-02 -0.10095716261E-01  0.10312678852E+01  0.10311901483E+01 0.  0.
     999903    2    3    3    0    0 -0.11362523718E+00  0.50184877853E-01 -0.52548325686E-01  0.14184859654E+00  0.43937242948E-01 0.  0.
         14    1    1    2    0    0 -0.62196672289E-03 -0.76170086327E-02  0.10095716261E-01  0.12662114750E-01  0.00000000000E+00 0. -1.
     999901    1    3    3    0    0  0.11424720390E+00 -0.42567869221E-01  0.42452609425E-01  0.88941928871E+00  0.88000000000E+00 0.  1.
        -11    1    4    4    0    0 -0.15049584387E-01  0.19055145753E-01  0.30378880173E-02  0.24476079230E-01  0.51100000000E-03 0.  1.
         11    1    4    4    0    0 -0.98575652791E-01  0.31129732101E-01 -0.55586213704E-01  0.11737251731E+00  0.51100000000E-03 0. -1.
</event>
<event>
 8    1  0.2190512E+004  0.1043930E+01  0.7957747E-01            NaN
         13   -1    0    0    0    0  0.00000000000E+00  0.00000000000E+00  0.74505805969E-08  0.10566000000E+00  0.10566000000E+00 0. -1.
     999900   -1    0    0    0    0 -0.00000000000E+00 -0.00000000000E+00 -0.74505805969E-08  0.93827000000E+00  0.93827000000E+00 0.  1.
     999902    2    1    2    0    0 -0.12583510269E-01  0.30792050102E-02 -0.48835927217E-02  0.10300853002E+01  0.10299922573E+01 0.  0.
     999903    2    3    3    0    0 -0.14238446633E-01 -0.10837747587E+00  0.74940912116E-01  0.13946906294E+00  0.43440402505E-01 0.  0.
         14    1    1    2    0    0  0.12583510269E-01 -0.30792050102E-02  0.48835927217E-02  0.13844699782E-01  0.00000000000E+00 0. -1.
     999901    1    3    3    0    0  0.16549363636E-02  0.11145668088E+00 -0.79824504838E-01  0.89061623728E+00  0.88000000000E+00 0.  1.
        -11    1    4    4    0    0  0.75218736960E-02 -0.81122664168E-01  0.42760128043E-01  0.92011710650E-01  0.51100000000E-03 0.  1.
         11    1    4    4    0    0 -0.21760320328E-01 -0.27254811705E-01  0.32180784074E-01  0.47457352291E-01  0.51100000000E-03 0. -1.
</event>
<event>
 8    1  0.2190512E+004  0.1043930E+01  0.7957747E-01            NaN
         13   -1    0    0    0    0  0.00000000000E+00  0.00000000000E+00  0.74505805969E-08  0.10566000000E+00  0.10566000000E+00 0. -1.
     999900   -1    0    0    0    0 -0.00000000000E+00 -0.00000000000E+00 -0.74505805969E-08  0.93827000000E+00  0.93827000000E+00 0. -1.
     999902    2    1    2    0    0 -0.42194554790E-02  0.11984801150E-01  0.33412330243E-02  0.10307921501E+01  0.10307084231E+01 0.  0.
     999903    2    3    3    0    0  0.54890494662E-01  0.11274726971E+00  0.49881893446E-01  0.14185284147E+00  0.43693387445E-01 0.  0.
         14    1    1    2    0    0  0.42194554790E-02 -0.11984801150E-01 -0.33412330243E-02  0.13137849948E-01  0.00000000000E+00 0.  1.
     999901    1    3    3    0    0 -0.59109950141E-01 -0.10076246856E+00 -0.46540660422E-01  0.88893930859E+00  0.88000000000E+00 0. -1.
        -11    1    4    4    0    0  0.51483857703E-01  0.61212087440E-01  0.21089691057E-01  0.82719667810E-01  0.51100000000E-03 0.  1.
         11    1    4    4    0    0  0.34066369591E-02  0.51535182273E-01  0.28792202389E-01  0.59133173656E-01  0.51100000000E-03 0. -1.
</event>
<event>
 8    1  0.2190512E+004  0.1043930E+01  0.7957747E-01            NaN
         13   -1    0    0    0    0  0.00000000000E+00  0.00000000000E+00  0.74505805969E-08  0.10566000000E+00  0.10566000000E+00 0.  1.
     999900   -1    0    0    0    0 -0.00000000000E+00 -0.00000000000E+00 -0.74505805969E-08  0.93827000000E+00  0.93827000000E+00 0.  1.
     999902    2    1    2    0    0  0.92677877671E-02  0.53103627783E-02 -0.87373969539E-02  0.10301302193E+01  0.10300377831E+01 0.  0.
     999903    2    3    3    0    0 -0.11327102530E-01  0.10064225666E+00 -0.87589787936E-01  0.14123763910E+00  0.44932534670E-01 0.  0.
         14    1    1    2    0    0 -0.92677877671E-02 -0.53103627783E-02  0.87373969539E-02  0.13799780740E-01  0.00000000000E+00 0.  1.
     999901    1    3    3    0    0  0.20594890297E-01 -0.95331893878E-01  0.78852390982E-01  0.88889258016E+00  0.88000000000E+00 0.  1.
        -11    1    4    4    0    0 -0.28083195794E-01  0.50846138111E-01 -0.42112570904E-01  0.71747650805E-01  0.51100000000E-03 0.  1.
         11    1    4    4    0    0  0.16756093264E-01  0.49796118545E-01 -0.45477217032E-01  0.69489988297E-01  0.51100000000E-03 0. -1.
</event>
<event>
 8    1  0.2190512E+004  0.1043930E+01  0.7957747E-01            NaN
         13   -1    0    0    0    0  0.00000000000E+00  0.00000000000E+00  0.74505805969E-08  0.10566000000E+00  0.10566000000E+00 0.  1.
     999900   -1    0    0    0    0 -0.00000000000E+00 -0.00000000000E+00 -0.74505805969E-08  0.93827000000E+00  0.93827000000E+00 0. -1.
     999902    2    1    2    0    0  0.87777138584E-02 -0.46648228164E-02  0.98337188901E-02  0.10299474802E+01  0.10298525628E+01 0.  0.
     999903    2    3    3    0    0 -0.33202017421E-01 -0.12294770505E+00  0.38988145882E-01  0.14056391915E+00  0.44940268251E-01 0.  0.
         14    1    1    2    0    0 -0.87777138584E-02  0.46648228164E-02 -0.98337188901E-02  0.13982519791E-01  0.00000000000E+00 0. -1.
     999901    1    3    3    0    0  0.41979731279E-01  0.11828288223E+00 -0.29154426992E-01  0.88938356106E+00  0.88000000000E+00 0. -1.
        -11    1    4    4    0    0 -0.30726215185E-01 -0.55566766527E-01  0.17195349937E-02  0.63521522050E-01  0.51100000000E-03 0. -1.
         11    1    4    4    0    0 -0.24758022358E-02 -0.67380938521E-01  0.37268610888E-01  0.77042397102E-01  0.51100000000E-03 0.  1.
</event>
<event>
 8    1  0.2190512E+004  0.1043930E+01  0.7957747E-01            NaN
         13   -1    0    0    0    0  0.00000000000E+00  0.00000000000E+00  0.74505805969E-08  0.10566000000E+00  0.10566000000E+00 0. -1.
     999900   -1    0    0    0    0 -0.00000000000E+00 -0.00000000000E+00 -0.74505805969E-08  0.93827000000E+00  0.93827000000E+00 0.  1.
     999902    2    1    2    0    0 -0.42407989049E-02 -0.99487656848E-02  0.80985623282E-02  0.10304189295E+01  0.10303303457E+01 0.  0.
     999903    2    3    3    0    0  0.20849008975E-02  0.13036719876E+00  0.15939850122E-01  0.13924550635E+00  0.46209078015E-01 0.  0.
         14    1    1    2    0    0  0.42407989049E-02  0.99487656848E-02 -0.80985623282E-02  0.13511070490E-01  0.00000000000E+00 0.  1.
     999901    1    3    3    0    0 -0.63256998025E-02 -0.14031596445E+00 -0.78412877939E-02  0.89117342316E+00  0.88000000000E+00 0. -1.
        -11    1    4    4    0    0  0.65263622866E-02  0.55465594259E-02 -0.83863872878E-02  0.11997930609E-01  0.51100000000E-03 0. -1.
         11    1    4    4    0    0 -0.44414613891E-02  0.12482063934E+00  0.24326237410E-01  0.12724757574E+00  0.51100000000E-03 0.  1.
</event>
<event>
 8    1  0.2190512E+004  0.1043930E+01  0.7957747E-01            NaN
         13   -1    0    0    0    0  0.00000000000E+00  0.00000000000E+00  0.74505805969E-08  0.10566000000E+00  0.10566000000E+00 0.  1.
     999900   -1    0    0    0    0 -0.00000000000E+00 -0.00000000000E+00 -0.74505805969E-08  0.93827000000E+00  0.93827000000E+00 0.  1.
     999902    2    1    2    0    0 -0.60944189886E-02  0.64410319426E-02  0.10176105714E-01  0.10304325201E+01  0.10303441156E+01 0.  0.
     999903    2    3    3    0    0 -0.10062070762E+00 -0.79364715296E-02  0.89134266446E-01  0.14173891545E+00  0.44243511582E-01 0.  0.
         14    1    1    2    0    0  0.60944189886E-02 -0.64410319426E-02 -0.10176105714E-01  0.13497479869E-01  0.00000000000E+00 0. -1.
     999901    1    3    3    0    0  0.94526288631E-01  0.14377503472E-01 -0.78958160731E-01  0.88869360468E+00  0.88000000000E+00 0.  1.
        -11    1    4    4    0    0 -0.69992334557E-01  0.73085278022E-02  0.37351645958E-01  0.79672756022E-01  0.51100000000E-03 0. -1.
         11    1    4    4    0    0 -0.30628373062E-01 -0.15244999332E-01  0.51782620488E-01  0.62066159432E-01  0.51100000000E-03 0.  1.
</event>
<event>
 8    1  0.2190512E+004  0.1043930E+01  0.7957747E-01            NaN
         13   -1    0    0    0    0  0.00000000000E+00  0.00000000000E+00  0.74505805969E-08  0.10566000000E+00  0.10566000000E+00 0. -1.
     999900   -1    0    0    0    0 -0.00000000000E+00 -0.00000000000E+00 -0.74505805969E-08  0.93827000000E+00  0.93827000000E+00 0. -1.
     999902    2    1    2    0    0 -0.32886321013E-02 -0.70429899748E-02  0.15168837192E-01  0.10268855748E+01  0.10267441119E+01 0.  0.
     999903    2    3    3    0    0 -0.11981154876E+00  0.30804572215E-01 -0.34478712725E-01  0.13701204036E+00  0.47747132751E-01 0.  0.
         14    1    1    2    0    0  0.32886321013E-02  0.70429899748E-02 -0.15168837192E-01  0.17044425207E-01  0.00000000000E+00 0.  1.
     999901    1    3    3    0    0  0.11652291666E+00 -0.37847562190E-01  0.49647549917E-01  0.88987353443E+00  0.88000000000E+00 0.  1.
        -11    1    4    4    0    0 -0.39350797834E-01  0.20076882716E-02  0.10021930863E-01  0.40659762931E-01  0.51100000000E-03 0.  1.
         11    1    4    4    0    0 -0.80460750929E-01  0.28796883944E-01 -0.44500643588E-01  0.96352277429E-01  0.51100000000E-03 0. -1.
</event>
<event>
 8    1  0.2190512E+004  0.1043930E+01  0.7957747E-01            NaN
         13   -1    0    0    0    0  0.00000000000E+00  0.00000000000E+00  0.74505805969E-08  0.10566000000E+00  0.10566000000E+00 0.  1.
     999900   -1    0    0    0    0 -0.00000000000E+00 -0.00000000000E+00 -0.74505805969E-08  0.93827000000E+00  0.93827000000E+00 0. -1.
     999902    2    1    2    0    0 -0.11786978705E-03  0.62868725635E-02  0.11528585366E-01  0.10307980946E+01  0.10307144439E+01 0.  0.
     999903    2    3    3    0    0 -0.54124883750E-01 -0.16155309023E-01  0.12197152874E+00  0.14196849739E+00  0.45689204153E-01 0.  0.
         14    1    1    2    0    0  0.11786978705E-03 -0.62868725635E-02 -0.11528585366E-01  0.13131905439E-01  0.00000000000E+00 0. -1.
     999901    1    3    3    0    0  0.54007013963E-01  0.22442181586E-01 -0.11044294337E+00  0.88882959717E+00  0.88000000000E+00 0. -1.
        -11    1    4    4    0    0 -0.32776467018E-01  0.14038936264E-01  0.60868639803E-01  0.70545311355E-01  0.51100000000E-03 0. -1.
         11    1    4    4    0    0 -0.21348416732E-01 -0.30194245287E-01  0.61102888938E-01  0.71423186032E-01  0.51100000000E-03 0.  1.
</event>
<event>
 8    1  0.2190512E+004  0.1043930E+01  0.7957747E-01            NaN
         13   -1    0    0    0    0  0.00000000000E+00  0.00000000000E+00  0.74505805969E-08  0.10566000000E+00  0.10566000000E+00 0. -1.
     999900   -1    0    0    0    0 -0.00000000000E+00 -0.00000000000E+00 -0.74505805969E-08  0.93827000000E+00  0.93827000000E+00 0. -1.
     999902    2    1    2    0    0 -0.28688169318E-02  0.10904121071E-02  0.13955118075E-01  0.10296413881E+01  0.10295422399E+01 0.  0.
     999903    2    3    3    0    0  0.96496743321E-02 -0.74733155286E-01  0.11052485985E+00  0.14102918866E+00  0.44669079842E-01 0.  0.
         14    1    1    2    0    0  0.28688169318E-02 -0.10904121071E-02 -0.13955118075E-01  0.14288611887E-01  0.00000000000E+00 0.  1.
     999901    1    3    3    0    0 -0.12518491264E-01  0.75823567393E-01 -0.96569741778E-01  0.88861219946E+00  0.88000000000E+00 0. -1.
        -11    1    4    4    0    0 -0.16362063215E-02 -0.97904060873E-02  0.51805428223E-01  0.52750286604E-01  0.51100000000E-03 0. -1.
         11    1    4    4    0    0  0.11285880654E-01 -0.64942749199E-01  0.58719431631E-01  0.88278902053E-01  0.51100000000E-03 0.  1.
</event>
<event>
 8    1  0.2190512E+004  0.1043930E+01  0.7957747E-01            NaN
         13   -1    0    0    0    0  0.00000000000E+00  0.00000000000E+00  0.74505805969E-08  0.10566000000E+00  0.10566000000E+00 0.  1.
     999900   -1    0    0    0    0 -0.00000000000E+00 -0.00000000000E+00 -0.74505805969E-08  0.93827000000E+00  0.93827000000E+00 0. -1.
     999902    2    1    2    0    0 -0.77235676209E-02 -0.48985252782E-02 -0.10306197914E-01  0.10301507851E+01  0.10300586262E+01 0.  0.
     999903    2    3    3    0    0 -0.26602950784E-02  0.61912470618E-01  0.11547530962E+00  0.13868551182E+00  0.45375024717E-01 0.  0.
         14    1    1    2    0    0  0.77235676209E-02  0.48985252782E-02  0.10306197914E-01  0.13779214859E-01  0.00000000000E+00 0.  1.
     999901    1    3    3    0    0 -0.50632725425E-02 -0.66810995896E-01 -0.12578150754E+00  0.89146527332E+00  0.88000000000E+00 0. -1.
        -11    1    4    4    0    0 -0.23595613636E-01  0.40220089108E-01  0.68541345526E-01  0.82901059814E-01  0.51100000000E-03 0. -1.
         11    1    4    4    0    0  0.20935318558E-01  0.21692381510E-01  0.46933964096E-01  0.55784452004E-01  0.51100000000E-03 0.  1.
</event>
<event>
 8    1  0.2190512E+004  0.1043930E+01  0.7957747E-01            NaN
         13   -1    0    0    0    0  0.00000000000E+00  0.00000000000E+00  0.74505805969E-08  0.10566000000E+00  0.10566000000E+00 0.  1.
     999900   -1    0    0    0    0 -0.00000000000E+00 -0.00000000000E+00 -0.74505805969E-08  0.93827000000E+00  0.93827000000E+00 0.  1.
     999902    2    1    2    0    0 -0.98912450496E-02 -0.15328012204E-02 -0.18681944525E-02  0.10337478412E+01  0.10336976941E+01 0.  0.
     999903    2    3    3    0    0 -0.77471122259E-01 -0.83836834547E-01 -0.79350190615E-01  0.14394760884E+00  0.37337269964E-01 0.  0.
         14    1    1    2    0    0  0.98912450496E-02  0.15328012204E-02  0.18681944525E-02  0.10182158844E-01  0.00000000000E+00 0.  1.
     999901    1    3    3    0    0  0.67579877209E-01  0.82304033327E-01  0.77481996162E-01  0.88980023232E+00  0.88000000000E+00 0. -1.
        -11    1    4    4    0    0 -0.67404303673E-01 -0.79827752201E-01 -0.56794206220E-01  0.11891868296E+00  0.51100000000E-03 0. -1.
         11    1    4    4    0    0 -0.10066818586E-01 -0.40090823464E-02 -0.22555984395E-01  0.25028925880E-01  0.51100000000E-03 0.  1.
</event>
<event>
 8    1  0.2190512E+004  0.1043930E+01  0.7957747E-01            NaN
         13   -1    0    0    0    0  0.00000000000E+00  0.00000000000E+00  0.74505805969E-08  0.10566000000E+00  0.10566000000E+00 0.  1.
     999900   -1    0    0    0    0 -0.00000000000E+00 -0.00000000000E+00 -0.74505805969E-08  0.93827000000E+00  0.93827000000E+00 0. -1.
     999902    2    1    2    0    0  0.12351955501E-01  0.66614596315E-02  0.17736597871E-02  0.10297846220E+01  0.10296874652E+01 0.  0.
     999903    2    3    3    0    0 -0.89295918805E-01  0.88078053280E-01 -0.40433767457E-01  0.13919918593E+00  0.44833237966E-01 0.  0.
         14    1    1    2    0    0 -0.12351955501E-01 -0.66614596315E-02 -0.17736597871E-02  0.14145377979E-01  0.00000000000E+00 0.  1.
     999901    1    3    3    0    0  0.10164787431E+00 -0.81416593649E-01  0.42207427245E-01  0.89058543610E+00  0.88000000000E+00 0. -1.
        -11    1    4    4    0    0 -0.89406848079E-02  0.27542546201E-01  0.39629618827E-02  0.29231727351E-01  0.51100000000E-03 0. -1.
         11    1    4    4    0    0 -0.80355233997E-01  0.60535507080E-01 -0.44396729340E-01  0.10996745857E+00  0.51100000000E-03 0.  1.
</event>
<event>
 8    1  0.2190512E+004  0.1043930E+01  0.7957747E-01            NaN
         13   -1    0    0    0    0  0.00000000000E+00  0.00000000000E+00  0.74505805969E-08  0.10566000000E+00  0.10566000000E+00 0. -1.
     999900   -1    0    0    0    0 -0.00000000000E+00 -0.00000000000E+00 -0.74505805969E-08  0.93827000000E+00  0.93827000000E+00 0.  1.
     999902    2    1    2    0    0 -0.41270281352E-02  0.39440499698E-02 -0.12900437578E-01  0.10298229386E+01  0.10297263111E+01 0.  0.
     999903    2    3    3    0    0  0.11405884949E+00  0.57256118319E-02  0.63616696554E-01  0.13862938643E+00  0.46139125716E-01 0.  0.
         14    1    1    2    0    0  0.41270281352E-02 -0.39440499698E-02  0.12900437578E-01  0.14107061391E-01  0.00000000000E+00 0. -1.
     999901    1    3    3    0    0 -0.11818587763E+00 -0.17815618621E-02 -0.76517134132E-01  0.89119355218E+00  0.88000000000E+00 0. -1.
        -11    1    4    4    0    0  0.34298103656E-01 -0.61272224510E-02  0.43097091892E-01  0.55421324596E-01  0.51100000000E-03 0.  1.
         11    1    4    4    0    0  0.79760745838E-01  0.11852834283E-01  0.20519604662E-01  0.83208061831E-01  0.51100000000E-03 0. -1.
</event>
<event>
 8    1  0.2190512E+004  0.1043930E+01  0.7957747E-01            NaN
         13   -1    0    0    0    0  0.00000000000E+00  0.00000000000E+00  0.74505805969E-08  0.10566000000E+00  0.10566000000E+00 0. -1.
     999900   -1    0    0    0    0 -0.00000000000E+00 -0.00000000000E+00 -0.74505805969E-08  0.93827000000E+00  0.93827000000E+00 0. -1.
     999902    2    1    2    0    0  0.27021863316E-02  0.80226717389E-02  0.60018404071E-02  0.10335527575E+01  0.10335006606E+01 0.  0.
     999903    2    3    3    0    0 -0.66472554974E-01 -0.46982802712E-01  0.11047213502E+00  0.14297721919E+00  0.40154803902E-01 0.  0.
         14    1    1    2    0    0 -0.27021863316E-02 -0.80226717389E-02 -0.60018404071E-02  0.10377242460E-01  0.00000000000E+00 0.  1.
     999901    1    3    3    0    0  0.69174741305E-01  0.55005474451E-01 -0.10447029461E+00  0.89057553835E+00  0.88000000000E+00 0. -1.
        -11    1    4    4    0    0 -0.44069539279E-01 -0.30726441478E-01  0.39169502805E-01  0.66488717608E-01  0.51100000000E-03 0. -1.
         11    1    4    4    0    0 -0.22403015695E-01 -0.16256361234E-01  0.71302632212E-01  0.76488501581E-01  0.51100000000E-03 0.  1.
</event>
<event>
 8    1  0.2190512E+004  0.1043930E+01  0.7957747E-01            NaN
         13   -1    0    0    0    0  0.00000000000E+00  0.00000000000E+00  0.74505805969E-08  0.10566000000E+00  0.10566000000E+00 0. -1.
     999900   -1    0    0    0    0 -0.00000000000E+00 -0.00000000000E+00 -0.74505805969E-08  0.93827000000E+00  0.93827000000E+00 0.  1.
     999902    2    1    2    0    0 -0.30650933806E-02 -0.15536421664E-02 -0.13891189597E-01  0.10296200821E+01  0.10295206359E+01 0.  0.
     999903    2    3    3    0    0 -0.11542399306E+00  0.50149029044E-01 -0.46414399962E-01  0.14037576937E+00  0.41393680848E-01 0.  0.
         14    1    1    2    0    0  0.30650933806E-02  0.15536421664E-02  0.13891189597E-01  0.14309917883E-01  0.00000000000E+00 0. -1.
     999901    1    3    3    0    0  0.11235889968E+00 -0.51702671210E-01  0.32523210366E-01  0.88924431275E+00  0.88000000000E+00 0. -1.
        -11    1    4    4    0    0 -0.21999749655E-01  0.28937481067E-01 -0.17195088864E-01  0.40215656123E-01  0.51100000000E-03 0.  1.
         11    1    4    4    0    0 -0.93424243402E-01  0.21211547977E-01 -0.29219311098E-01  0.10016011324E+00  0.51100000000E-03 0. -1.
</event>
<event>
 8    1  0.2190512E+004  0.1043930E+01  0.7957747E-01            NaN
         13   -1    0    0    0    0  0.00000000000E+00  0.00000000000E+00  0.74505805969E-08  0.10566000000E+00  0.10566000000E+00 0.  1.
     999900   -1    0    0    0    0 -0.00000000000E+00 -0.00000000000E+00 -0.74505805969E-08  0.93827000000E+00  0.93827000000E+00 0. -1.
     999902    2    1    2    0    0  0.10540173842E-01  0.53483817281E-02 -0.69171032217E-02  0.10302352284E+01  0.10301442031E+01 0.  0.
     999903    2    3    3    0    0 -0.25471554222E-01  0.10725858620E+00  0.73702332100E-01  0.13996446753E+00  0.44775149646E-01 0.  0.
         14    1    1    2    0    0 -0.10540173842E-01 -0.53483817281E-02  0.69171032217E-02  0.13694771583E-01  0.00000000000E+00 0. -1.
     999901    1    3    3    0    0  0.36011728063E-01 -0.10191020448E+00 -0.80619435322E-01  0.89027076088E+00  0.88000000000E+00 0. -1.
        -11    1    4    4    0    0  0.76896154859E-02  0.53796765846E-01  0.46089431570E-01  0.71258115504E-01  0.51100000000E-03 0. -1.
         11    1    4    4    0    0 -0.33161169708E-01  0.53461820358E-01  0.27612900530E-01  0.68706352028E-01  0.51100000000E-03 0.  1.
</event>
<event>
 8    1  0.2190512E+004  0.1043930E+01  0.7957747E-01            NaN
         13   -1    0    0    0    0  0.00000000000E+00  0.00000000000E+00  0.74505805969E-08  0.10566000000E+00  0.10566000000E+00 0.  1.
     999900   -1    0    0    0    0 -0.00000000000E+00 -0.00000000000E+00 -0.74505805969E-08  0.93827000000E+00  0.93827000000E+00 0. -1.
     999902    2    1    2    0    0 -0.47660354218E-02  0.13843680987E-01 -0.19986211535E-02  0.10291530895E+01  0.10290469982E+01 0.  0.
     999903    2    3    3    0    0  0.28639681674E-01  0.12778741085E+00 -0.21979839441E-01  0.14095358231E+00  0.47275207955E-01 0.  0.
         14    1    1    2    0    0  0.47660354218E-02 -0.13843680987E-01  0.19986211535E-02  0.14776910483E-01  0.00000000000E+00 0. -1.
     999901    1    3    3    0    0 -0.33405717096E-01 -0.11394372986E+00  0.19981218288E-01  0.88819950720E+00  0.88000000000E+00 0.  1.
        -11    1    4    4    0    0  0.18322145854E-01  0.12756442685E+00 -0.21005230028E-01  0.13057513100E+00  0.51100000000E-03 0.  1.
         11    1    4    4    0    0  0.10317535820E-01  0.22298400531E-03 -0.97460941355E-03  0.10378451319E-01  0.51100000000E-03 0. -1.
</event>
<event>
 8    1  0.2190512E+004  0.1043930E+01  0.7957747E-01            NaN
         13   -1    0    0    0    0  0.00000000000E+00  0.00000000000E+00  0.74505805969E-08  0.10566000000E+00  0.10566000000E+00 0. -1.
     999900   -1    0    0    0    0 -0.00000000000E+00 -0.00000000000E+00 -0.74505805969E-08  0.93827000000E+00  0.93827000000E+00 0. -1.
     999902    2    1    2    0    0 -0.76929413348E-02  0.10058740467E-01  0.45791512534E-02  0.10304641828E+01  0.10303761953E+01 0.  0.
     999903    2    3    3    0    0 -0.57325930343E-01  0.83419624477E-01  0.88396560707E-01  0.14205514919E+00  0.46050162105E-01 0.  0.
         14    1    1    2    0    0  0.76929413348E-02 -0.10058740467E-01 -0.45791512534E-02  0.13465817181E-01  0.00000000000E+00 0.  1.
     999901    1    3    3    0    0  0.49632989008E-01 -0.73360884010E-01 -0.83817409453E-01  0.88840903363E+00  0.88000000000E+00 0. -1.
        -11    1    4    4    0    0 -0.17260322365E-01  0.44428778763E-01  0.15368333235E-01  0.50082750503E-01  0.51100000000E-03 0.  1.
         11    1    4    4    0    0 -0.40065607978E-01  0.38990845714E-01  0.73028227472E-01  0.91972398690E-01  0.51100000000E-03 0. -1.
</event>
<event>
 8    1  0.2190512E+004  0.1043930E+01  0.7957747E-01            NaN
         13   -1    0    0    0    0  0.00000000000E+00  0.00000000000E+00  0.74505805969E-08  0.10566000000E+00  0.10566000000E+00 0.  1.
     999900   -1    0    0    0    0 -0.00000000000E+00 -0.00000000000E+00 -0.74505805969E-08  0.93827000000E+00  0.93827000000E+00 0.  1.
     999902    2    1    2    0    0  0.29510197718E-02  0.11601463853E-01  0.77193579856E-02  0.10296860199E+01  0.10295874944E+01 0.  0.
     999903    2    3    3    0    0 -0.10281774258E+00 -0.43379629852E-01 -0.71121198189E-01  0.13815599514E+00  0.39693496775E-01 0.  0.
         14    1    1    2    0    0 -0.29510197718E-02 -0.11601463853E-01 -0.77193579856E-02  0.14243980094E-01  0.00000000000E+00 0. -1.
     999901    1    3    3    0    0  0.10576876235E+00  0.54981093705E-01  0.78840556175E-01  0.89153002476E+00  0.88000000000E+00 0.  1.
        -11    1    4    4    0    0 -0.54112498446E-01 -0.63702563859E-02 -0.18741461268E-01  0.57621577086E-01  0.51100000000E-03 0. -1.
         11    1    4    4    0    0 -0.48705244137E-01 -0.37009373466E-01 -0.52379736922E-01  0.80534418057E-01  0.51100000000E-03 0.  1.
</event>
<event>
 8    1  0.2190512E+004  0.1043930E+01  0.7957747E-01            NaN
         13   -1    0    0    0    0  0.00000000000E+00  0.00000000000E+00  0.74505805969E-08  0.10566000000E+00  0.10566000000E+00 0.  1.
     999900   -1    0    0    0    0 -0.00000000000E+00 -0.00000000000E+00 -0.74505805969E-08  0.93827000000E+00  0.93827000000E+00 0. -1.
     999902    2    1    2    0    0 -0.57307058760E-02 -0.13326554999E-01  0.47716475568E-02  0.10286588940E+01  0.10285455330E+01 0.  0.
     999903    2    3    3    0    0  0.34049218051E-01 -0.11648898123E+00 -0.52957362615E-01  0.13986332294E+00  0.45035928424E-01 0.  0.
         14    1    1    2    0    0  0.57307058760E-02  0.13326554999E-01 -0.47716475568E-02  0.15271105997E-01  0.00000000000E+00 0. -1.
     999901    1    3    3    0    0 -0.39779923927E-01  0.10316242623E+00  0.57729010172E-01  0.88879557107E+00  0.88000000000E+00 0. -1.
        -11    1    4    4    0    0  0.34976622020E-01 -0.11415326202E+00 -0.38894009311E-01  0.12556805485E+00  0.51100000000E-03 0.  1.
         11    1    4    4    0    0 -0.92740396906E-03 -0.23357192076E-02 -0.14063353304E-01  0.14295268081E-01  0.51100000000E-03 0. -1.
</event>
<event>
 8    1  0.2190512E+004  0.1043930E+01  0.7957747E-01            NaN
         13   -1    0    0    0    0  0.00000000000E+00  0.00000000000E+00  0.74505805969E-08  0.10566000000E+00  0.10566000000E+00 0.  1.
     999900   -1    0    0    0    0 -0.00000000000E+00 -0.00000000000E+00 -0.74505805969E-08  0.93827000000E+00  0.93827000000E+00 0.  1.
     999902    2    1    2    0    0 -0.95156761746E-02 -0.16938895008E-01  0.12147046050E-01  0.10210165763E+01  0.10207594350E+01 0.  0.
     999903    2    3    3    0    0 -0.78113522187E-01  0.45932097778E-01 -0.82841019959E-01  0.13102716127E+00  0.45760271499E-01 0.  0.
         14    1    1    2    0    0  0.95156761746E-02  0.16938895008E-01 -0.12147046050E-01  0.22913423684E-01  0.00000000000E+00 0.  1.
     999901    1    3    3    0    0  0.68597846012E-01 -0.62870992786E-01  0.94988066010E-01  0.88998941505E+00  0.88000000000E+00 0. -1.
        -11    1    4    4    0    0 -0.47415248644E-01  0.42368814903E-01 -0.76494735722E-01  0.99473755305E-01  0.51100000000E-03 0. -1.
         11    1    4    4    0    0 -0.30698273543E-01  0.35632828749E-02 -0.63462842377E-02  0.31553405965E-01  0.51100000000E-03 0.  1.
</event>
<event>
 8    1  0.2190512E+004  0.1043930E+01  0.7957747E-01            NaN
         13   -1    0    0    0    0  0.00000000000E+00  0.00000000000E+00  0.74505805969E-08  0.10566000000E+00  0.10566000000E+00 0. -1.
     999900   -1    0    0    0    0 -0.00000000000E+00 -0.00000000000E+00 -0.74505805969E-08  0.93827000000E+00  0.93827000000E+00 0. -1.
     999902    2    1    2    0    0  0.40811436891E-02 -0.97231313476E-02 -0.10174524612E-01  0.10292768103E+01  0.10291725007E+01 0.  0.
     999903    2    3    3    0    0 -0.37043225920E-01  0.11787385474E+00 -0.44150558422E-01  0.13847572392E+00  0.44269719762E-01 0.  0.
         14    1    1    2    0    0 -0.40811436891E-02  0.97231313476E-02  0.10174524612E-01  0.14653189690E-01  0.00000000000E+00 0. -1.
     999901    1    3    3    0    0  0.41124369609E-01 -0.12759698609E+00  0.33976033810E-01  0.89080108639E+00  0.88000000000E+00 0. -1.
        -11    1    4    4    0    0 -0.37019716150E-01  0.45718605106E-01 -0.24190280866E-01  0.63608812645E-01  0.51100000000E-03 0.  1.
         11    1    4    4    0    0 -0.23509770103E-04  0.72155249639E-01 -0.19960277556E-01  0.74866911278E-01  0.51100000000E-03 0. -1.
</event>
<event>
 8    1  0.2190512E+004  0.1043930E+01  0.7957747E-01            NaN
         13   -1    0    0    0    0  0.00000000000E+00  0.00000000000E+00  0.74505805969E-08  0.10566000000E+00  0.10566000000E+00 0. -1.
     999900   -1    0    0    0    0 -0.00000000000E+00 -0.00000000000E+00 -0.74505805969E-08  0.93827000000E+00  0.93827000000E+00 0.  1.
     999902    2    1    2    0    0  0.10508203575E-01 -0.34022957870E-02  0.62728429415E-02  0.10312277751E+01  0.10311495418E+01 0.  0.
     999903    2    3    3    0    0 -0.77954177699E-01 -0.82094429274E-01 -0.68785773138E-01  0.14013191009E+00  0.45706897747E-01 0.  0.
         14    1    1    2    0    0 -0.10508203575E-01  0.34022957870E-02 -0.62728429415E-02  0.12702224906E-01  0.00000000000E+00 0.  1.
     999901    1    3    3    0    0  0.88462381274E-01  0.78692133487E-01  0.75058616080E-01  0.89109586500E+00  0.88000000000E+00 0.  1.
        -11    1    4    4    0    0 -0.58090522144E-02 -0.31460453811E-01 -0.29903970750E-01  0.43795134767E-01  0.51100000000E-03 0.  1.
         11    1    4    4    0    0 -0.72145125485E-01 -0.50633975462E-01 -0.38881802389E-01  0.96336775327E-01  0.51100000000E-03 0. -1.
</event>
<event>
 8    1  0.2190512E+004  0.1043930E+01  0.7957747E-01            NaN
         13   -1    0    0    0    0  0.00000000000E+00  0.00000000000E+00  0.74505805969E-08  0.10566000000E+00  0.10566000000E+00 0.  1.
     999900   -1    0    0    0    0 -0.00000000000E+00 -0.00000000000E+00 -0.74505805969E-08  0.93827000000E+00  0.93827000000E+00 0. -1.
     999902    2    1    2    0    0 -0.54591565598E-04 -0.61138660441E-02 -0.13253531524E-01  0.10293341637E+01  0.10292306749E+01 0.  0.
     999903    2    3    3    0    0  0.14263424103E-01  0.12729613873E+00  0.25613926327E-01  0.13831569355E+00  0.45468732736E-01 0.  0.
         14    1    1    2    0    0  0.54591565598E-04  0.61138660441E-02  0.13253531524E-01  0.14595836259E-01  0.00000000000E+00 0.  1.
     999901    1    3    3    0    0 -0.14318015669E-01 -0.13341000477E+00 -0.38867457851E-01  0.89101847019E+00  0.88000000000E+00 0.  1.
        -11    1    4    4    0    0  0.22265241130E-01  0.11814038564E+00  0.32225486739E-01  0.12446539599E+00  0.51100000000E-03 0.  1.
         11    1    4    4    0    0 -0.80018170266E-02  0.91557530877E-02 -0.66115604119E-02  0.13850297557E-01  0.51100000000E-03 0. -1.
</event>
<event>
 8    1  0.2190512E+004  0.1043930E+01  0.7957747E-01            NaN
         13   -1    0    0    0    0  0.00000000000E+00  0.00000000000E+00  0.74505805969E-08  0.10566000000E+00  0.10566000000E+00 0. -1.
     999900   -1    0    0    0    0 -0.00000000000E+00 -0.00000000000E+00 -0.74505805969E-08  0.93827000000E+00  0.93827000000E+00 0. -1.
     999902    2    1    2    0    0 -0.40962722317E-02  0.13658895086E-01  0.29772246739E-02  0.10293626142E+01  0.10292595313E+01 0.  0.
     999903    2    3    3    0    0 -0.89523780563E-01  0.41397314736E-01  0.89577894091E-01  0.14056176194E+00  0.44779067164E-01 0.  0.
         14    1    1    2    0    0  0.40962722317E-02 -0.13658895086E-01 -0.29772246739E-02  0.14567385762E-01  0.00000000000E+00 0. -1.
     999901    1    3    3    0    0  0.85427508331E-01 -0.27738419650E-01 -0.86600669417E-01  0.88880085230E+00  0.88000000000E+00 0. -1.
        -11    1    4    4    0    0  0.12095442709E-04  0.11292459311E-01  0.20936673473E-01  0.23793385650E-01  0.51100000000E-03 0.  1.
         11    1    4    4    0    0 -0.89535876005E-01  0.30104855425E-01  0.68641220618E-01  0.11676837629E+00  0.51100000000E-03 0. -1.
</event>
<event>
 8    1  0.2190512E+004  0.1043930E+01  0.7957747E-01            NaN
         13   -1    0    0    0    0  0.00000000000E+00  0.00000000000E+00  0.74505805969E-08  0.10566000000E+00  0.10566000000E+00 0. -1.
     999900   -1    0    0    0    0 -0.00000000000E+00 -0.00000000000E+00 -0.74505805969E-08  0.93827000000E+00  0.93827000000E+00 0.  1.
     999902    2    1    2    0    0 -0.12475454218E-01  0.18776639447E-01 -0.40212642042E-02  0.10210308797E+01  0.10207740629E+01 0.  0.
     999903    2    3    3    0    0 -0.71477198751E-01  0.88685793371E-01 -0.55866940611E-01  0.13477105893E+00  0.45474865427E-01 0.  0.
         14    1    1    2    0    0  0.12475454218E-01 -0.18776639447E-01  0.40212642042E-02  0.22899120347E-01  0.00000000000E+00 0.  1.
     999901    1    3    3    0    0  0.59001744533E-01 -0.69909153924E-01  0.51845676407E-01  0.88625982072E+00  0.88000000000E+00 0.  1.
        -11    1    4    4    0    0 -0.30433137105E-01  0.71494202108E-01 -0.29973983372E-01  0.83284437737E-01  0.51100000000E-03 0. -1.
         11    1    4    4    0    0 -0.41044061646E-01  0.17191591263E-01 -0.25892957239E-01  0.51486621196E-01  0.51100000000E-03 0.  1.
</event>
<event>
 8    1  0.2190512E+004  0.1043930E+01  0.7957747E-01            NaN
         13   -1    0    0    0    0  0.00000000000E+00  0.00000000000E+00  0.74505805969E-08  0.10566000000E+00  0.10566000000E+00 0. -1.
     999900   -1    0    0    0    0 -0.00000000000E+00 -0.00000000000E+00 -0.74505805969E-08  0.93827000000E+00  0.93827000000E+00 0. -1.
     999902    2    1    2    0    0 -0.10749661233E-01 -0.61324303908E-02 -0.16198914753E-01  0.10235445454E+01  0.10233415215E+01 0.  0.
     999903    2    3    3    0    0  0.40478182031E-01 -0.99972792822E-02  0.11688667044E+00  0.13205646251E+00  0.45144066624E-01 0.  0.
         14    1    1    2    0    0  0.10749661233E-01  0.61324303908E-02  0.16198914753E-01  0.20385454576E-01  0.00000000000E+00 0. -1.
     999901    1    3    3    0    0 -0.51227843264E-01  0.38648488914E-02 -0.13308558519E+00  0.89148808291E+00  0.88000000000E+00 0. -1.
        -11    1    4    4    0    0  0.15960376720E-01  0.99576113416E-02  0.11557294409E-01  0.22084379632E-01  0.51100000000E-03 0.  1.
         11    1    4    4    0    0  0.24517805311E-01 -0.19954890624E-01  0.10532937603E+00  0.10997208288E+00  0.51100000000E-03 0. -1.
</event>
<event>
 8    1  0.2190512E+004  0.1043930E+01  0.7957747E-01            NaN
         13   -1    0    0    0    0  0.00000000000E+00  0.00000000000E+00  0.74505805969E-08  0.10566000000E+00  0.10566000000E+00 0. -1.
     999900   -1    0    0    0    0 -0.00000000000E+00 -0.00000000000E+00 -0.74505805969E-08  0.93827000000E+00  0.93827000000E+00 0. -1.
     999902    2    1    2    0    0  0.11000669391E-01 -0.78500687546E-02  0.79778443146E-02  0.10282365521E+01  0.10281167846E+01 0.  0.
     999903    2    3    3    0    0  0.10152365176E+00 -0.13486001472E-01  0.84283847451E-01  0.14029016850E+00  0.45701644744E-01 0.  0.
         14    1    1    2    0    0 -0.11000669391E-01  0.78500687546E-02 -0.79778443146E-02  0.15693447881E-01  0.00000000000E+00 0.  1.
     999901    1    3    3    0    0 -0.90522982372E-01  0.56359327176E-02 -0.76306003136E-01  0.88794638362E+00  0.88000000000E+00 0. -1.
        -11    1    4    4    0    0  0.45363043348E-01 -0.98308466792E-02  0.66820269944E-01  0.81361298198E-01  0.51100000000E-03 0.  1.
         11    1    4    4    0    0  0.56160608415E-01 -0.36551547929E-02  0.17463577507E-01  0.58928870297E-01  0.51100000000E-03 0. -1.
</event>
<event>
 8    1  0.2190512E+004  0.1043930E+01  0.7957747E-01            NaN
         13   -1    0    0    0    0  0.00000000000E+00  0.00000000000E+00  0.74505805969E-08  0.10566000000E+00  0.10566000000E+00 0.  1.
     999900   -1    0    0    0    0 -0.00000000000E+00 -0.00000000000E+00 -0.74505805969E-08  0.93827000000E+00  0.93827000000E+00 0. -1.
     999902    2    1    2    0    0  0.18314595607E-02 -0.96151750463E-02  0.99585389026E-02  0.10299665358E+01  0.10298718787E+01 0.  0.
     999903    2    3    3    0    0 -0.68019651068E-01 -0.98086123717E-01  0.53784902478E-01  0.14169459740E+00  0.54193935084E-01 0.  0.
         14    1    1    2    0    0 -0.18314595607E-02  0.96151750463E-02 -0.99585389026E-02  0.13963464197E-01  0.00000000000E+00 0. -1.
     999901    1    3    3    0    0  0.69851110629E-01  0.88470948671E-01 -0.43826363575E-01  0.88827193841E+00  0.88000000000E+00 0. -1.
        -11    1    4    4    0    0 -0.22680868523E-01 -0.68067930889E-01  0.11181977489E-01  0.72615168897E-01  0.51100000000E-03 0. -1.
         11    1    4    4    0    0 -0.45338782545E-01 -0.30018192829E-01  0.42602924989E-01  0.69079428500E-01  0.51100000000E-03 0.  1.
</event>
<event>
 8    1  0.2190512E+004  0.1043930E+01  0.7957747E-01            NaN
         13   -1    0    0    0    0  0.00000000000E+00  0.00000000000E+00  0.74505805969E-08  0.10566000000E+00  0.10566000000E+00 0.  1.
     999900   -1    0    0    0    0 -0.00000000000E+00 -0.00000000000E+00 -0.74505805969E-08  0.93827000000E+00  0.93827000000E+00 0.  1.
     999902    2    1    2    0    0 -0.13149815131E-01  0.19088399748E-01 -0.42209587100E-02  0.10203694156E+01  0.10200973695E+01 0.  0.
     999903    2    3    3    0    0 -0.26817009401E-01  0.82554050853E-01  0.89592751687E-01  0.13300495088E+00  0.46142523740E-01 0.  0.
         14    1    1    2    0    0  0.13149815131E-01 -0.19088399748E-01  0.42209587100E-02  0.23560584359E-01  0.00000000000E+00 0. -1.
     999901    1    3    3    0    0  0.13667194269E-01 -0.63465651105E-01 -0.93813710397E-01  0.88736446477E+00  0.88000000000E+00 0.  1.
        -11    1    4    4    0    0  0.34935039540E-02  0.55846280716E-01  0.38752629879E-01  0.68066431398E-01  0.51100000000E-03 0. -1.
         11    1    4    4    0    0 -0.30310513355E-01  0.26707770137E-01  0.50840121808E-01  0.64938519478E-01  0.51100000000E-03 0.  1.
</event>
<event>
 8    1  0.2190512E+004  0.1043930E+01  0.7957747E-01            NaN
         13   -1    0    0    0    0  0.00000000000E+00  0.00000000000E+00  0.74505805969E-08  0.10566000000E+00  0.10566000000E+00 0. -1.
     999900   -1    0    0    0    0 -0.00000000000E+00 -0.00000000000E+00 -0.74505805969E-08  0.93827000000E+00  0.93827000000E+00 0.  1.
     999902    2    1    2    0    0 -0.36446500546E-02 -0.13071259742E-01 -0.26057576413E-02  0.10301122115E+01  0.10300195324E+01 0.  0.
     999903    2    3    3    0    0  0.11687847501E+00  0.48261610575E-01  0.35859853068E-01  0.13895164919E+00  0.45076277301E-01 0.  0.
         14    1    1    2    0    0  0.36446500546E-02  0.13071259742E-01  0.26057576413E-02  0.13817788468E-01  0.00000000000E+00 0.  1.
     999901    1    3    3    0    0 -0.12052312507E+00 -0.61332870318E-01 -0.38465610710E-01  0.89116056234E+00  0.88000000000E+00 0. -1.
        -11    1    4    4    0    0  0.51100518957E-01  0.28934910343E-01 -0.53335471670E-02  0.58967787144E-01  0.51100000000E-03 0. -1.
         11    1    4    4    0    0  0.65777956055E-01  0.19326700233E-01  0.41193400235E-01  0.79983862051E-01  0.51100000000E-03 0.  1.
</event>
<event>
 8    1  0.2190512E+004  0.1043930E+01  0.7957747E-01            NaN
         13   -1    0    0    0    0  0.00000000000E+00  0.00000000000E+00  0.74505805969E-08  0.10566000000E+00  0.10566000000E+00 0.  1.
     999900   -1    0    0    0    0 -0.00000000000E+00 -0.00000000000E+00 -0.74505805969E-08  0.93827000000E+00  0.93827000000E+00 0.  1.
     999902    2    1    2    0    0 -0.12639807337E-01 -0.48268757801E-02  0.78664324932E-03  0.10303770569E+01  0.10302879195E+01 0.  0.
     999903    2    3    3    0    0  0.26639252846E-01 -0.46199486664E-01  0.12133214220E+00  0.14032888133E+00  0.46115765692E-01 0.  0.
         14    1    1    2    0    0  0.12639807337E-01  0.48268757801E-02 -0.78664324932E-03  0.13552943109E-01  0.00000000000E+00 0. -1.
     999901    1    3    3    0    0 -0.39279060182E-01  0.41372610884E-01 -0.12054549895E+00  0.89004817556E+00  0.88000000000E+00 0.  1.
        -11    1    4    4    0    0 -0.74019012744E-02 -0.11490572671E-01  0.62636093315E-01  0.64112110475E-01  0.51100000000E-03 0. -1.
         11    1    4    4    0    0  0.34041154120E-01 -0.34708913993E-01  0.58696048883E-01  0.76216770857E-01  0.51100000000E-03 0.  1.
</event>
<event>
 8    1  0.2190512E+004  0.1043930E+01  0.7957747E-01            NaN
         13   -1    0    0    0    0  0.00000000000E+00  0.00000000000E+00  0.74505805969E-08  0.10566000000E+00  0.10566000000E+00 0.  1.
     999900   -1    0    0    0    0 -0.00000000000E+00 -0.00000000000E+00 -0.74505805969E-08  0.93827000000E+00  0.93827000000E+00 0.  1.
     999902    2    1    2    0    0  0.13601699655E-01 -0.13569408638E-02 -0.28125075373E-02  0.10299744376E+01  0.10298798884E+01 0.  0.
     999903    2    3    3    0    0 -0.46660035503E-02 -0.92614403110E-01  0.93770879554E-01  0.13981154016E+00  0.46422943218E-01 0.  0.
         14    1    1    2    0    0 -0.13601699655E-01  0.13569408638E-02  0.28125075373E-02  0.13955562356E-01  0.00000000000E+00 0. -1.
     999901    1    3    3    0    0  0.18267703205E-01  0.91257462246E-01 -0.96583387091E-01  0.89016289748E+00  0.88000000000E+00 0.  1.
        -11    1    4    4    0    0 -0.20255278919E-01 -0.22821262421E-01  0.40126144255E-01  0.50412844755E-01  0.51100000000E-03 0.  1.
         11    1    4    4    0    0  0.15589275368E-01 -0.69793140689E-01  0.53644735299E-01  0.89398695405E-01  0.51100000000E-03 0. -1.
</event>
<event>
 7    1  0.2190512E+004  0.1043930E+01  0.7957747E-01            NaN
         13   -1    0    0    0    0  0.00000000000E+00  0.00000000000E+00  0.74505805969E-08  0.10566000000E+00  0.10566000000E+00 0. -1.
     999900   -1    0    0    0    0 -0.00000000000E+00 -0.00000000000E+00 -0.74505805969E-08  0.93827000000E+00  0.93827000000E+00 0.  1.
     999902    2    1    2    0    0 -0.98947880114E-02 -0.44485388152E-02  0.85843352977E-02  0.10300957259E+01  0.10300028240E+01 0.  0.
         14    1    1    2    0    0  0.98947880114E-02  0.44485388152E-02 -0.85843352977E-02  0.13834274100E-01  0.00000000000E+00 0.  1.
     999901    1    3    3    0    0  0.17051024611E-01  0.55738875978E-01  0.11196951592E+00  0.88900772338E+00  0.88000000000E+00 0. -1.
        -11    1    3    3    0    0 -0.18135445885E-01  0.11746142391E-01 -0.36765059593E-01  0.42647356148E-01  0.51100000000E-03 0.  1.
         11    1    3    3    0    0 -0.88103667374E-02 -0.71933557183E-01 -0.66620121028E-01  0.98440646371E-01  0.51100000000E-03 0. -1.
</event>
<event>
 8    1  0.2190512E+004  0.1043930E+01  0.7957747E-01            NaN
         13   -1    0    0    0    0  0.00000000000E+00  0.00000000000E+00  0.74505805969E-08  0.10566000000E+00  0.10566000000E+00 0.  1.
     999900   -1    0    0    0    0 -0.00000000000E+00 -0.00000000000E+00 -0.74505805969E-08  0.93827000000E+00  0.93827000000E+00 0. -1.
     999902    2    1    2    0    0 -0.81412738114E-02  0.10026184460E-01  0.60623405190E-02  0.10296626707E+01  0.10295638196E+01 0.  0.
     999903    2    3    3    0    0 -0.64202244166E-01 -0.73701539843E-01 -0.87861860789E-01  0.13894671155E+00  0.45084775009E-01 0.  0.
         14    1    1    2    0    0  0.81412738114E-02 -0.10026184460E-01 -0.60623405190E-02  0.14267329346E-01  0.00000000000E+00 0. -1.
     999901    1    3    3    0    0  0.56060970355E-01  0.83727724303E-01  0.93924201308E-01  0.89071595911E+00  0.88000000000E+00 0.  1.
        -11    1    4    4    0    0 -0.48140695269E-01 -0.21021165951E-01 -0.44561579823E-01  0.68886947067E-01  0.51100000000E-03 0. -1.
         11    1    4    4    0    0 -0.16061548897E-01 -0.52680373892E-01 -0.43300280966E-01  0.70059764481E-01  0.51100000000E-03 0.  1.
</event>
<event>
 8    1  0.2382274E+004  0.1043930E+01  0.7957747E-01            NaN
         13   -1    0    0    0    0  0.00000000000E+00  0.00000000000E+00  0.74505805969E-08  0.10566000000E+00  0.10566000000E+00 0. -1.
     999900   -1    0    0    0    0 -0.00000000000E+00 -0.00000000000E+00 -0.74505805969E-08  0.93827000000E+00  0.93827000000E+00 0. -1.
     999902    2    1    2    0    0 -0.17423648987E-01 -0.69863454009E-02 -0.17918519135E-01  0.10179787786E+01  0.10176479390E+01 0.  0.
     999903    2    3    3    0    0 -0.13108261393E-01  0.72995587342E-01 -0.97537436372E-01  0.13076127191E+00  0.45659352257E-01 0.  0.
         14    1    1    2    0    0  0.17423648987E-01  0.69863454009E-02  0.17918519135E-01  0.25951221437E-01  0.00000000000E+00 0. -1.
     999901    1    3    3    0    0 -0.43153875941E-02 -0.79981932743E-01  0.79618917237E-01  0.88721750666E+00  0.88000000000E+00 0.  1.
        -11    1    4    4    0    0  0.14429059116E-01  0.46644372043E-01 -0.50997497110E-01  0.70603831502E-01  0.51100000000E-03 0. -1.
         11    1    4    4    0    0 -0.27537320509E-01  0.26351215300E-01 -0.46539939262E-01  0.60157440405E-01  0.51100000000E-03 0.  1.
</event>
<event>
 8    1  0.2190512E+004  0.1043930E+01  0.7957747E-01            NaN
         13   -1    0    0    0    0  0.00000000000E+00  0.00000000000E+00  0.74505805969E-08  0.10566000000E+00  0.10566000000E+00 0. -1.
     999900   -1    0    0    0    0 -0.00000000000E+00 -0.00000000000E+00 -0.74505805969E-08  0.93827000000E+00  0.93827000000E+00 0. -1.
     999902    2    1    2    0    0  0.14297084811E-01 -0.22084043591E-02  0.38711932245E-02  0.10289543591E+01  0.10288453738E+01 0.  0.
     999903    2    3    3    0    0 -0.81815765598E-02  0.23053339265E-02  0.13182416850E+00  0.13940524412E+00  0.44541642616E-01 0.  0.
         14    1    1    2    0    0 -0.14297084811E-01  0.22084043591E-02 -0.38711932245E-02  0.14975640918E-01  0.00000000000E+00 0.  1.
     999901    1    3    3    0    0  0.22478661371E-01 -0.45137382856E-02 -0.12795297528E+00  0.88954911496E+00  0.88000000000E+00 0. -1.
        -11    1    4    4    0    0 -0.70014916486E-02 -0.20905000307E-01  0.60997280245E-01  0.64861153563E-01  0.51100000000E-03 0.  1.
         11    1    4    4    0    0 -0.11800849112E-02  0.23210334234E-01  0.70826888257E-01  0.74544090556E-01  0.51100000000E-03 0. -1.
</event>
<event>
 8    1  0.2190512E+004  0.1043930E+01  0.7957747E-01            NaN
         13   -1    0    0    0    0  0.00000000000E+00  0.00000000000E+00  0.74505805969E-08  0.10566000000E+00  0.10566000000E+00 0. -1.
     999900   -1    0    0    0    0 -0.00000000000E+00 -0.00000000000E+00 -0.74505805969E-08  0.93827000000E+00  0.93827000000E+00 0.  1.
     999902    2    1    2    0    0 -0.11291130072E-01 -0.13785254999E-01  0.87460239523E-02  0.10240801685E+01  0.10238877750E+01 0.  0.
     999903    2    3    3    0    0 -0.78848643362E-01 -0.78451180284E-01  0.66781096266E-01  0.13722405332E+00  0.44710510439E-01 0.  0.
         14    1    1    2    0    0  0.11291130072E-01  0.13785254999E-01 -0.87460239523E-02  0.19849831452E-01  0.00000000000E+00 0.  1.
     999901    1    3    3    0    0  0.67557513289E-01  0.64665925284E-01 -0.58035072314E-01  0.88685611523E+00  0.88000000000E+00 0.  1.
        -11    1    4    4    0    0 -0.43283522947E-02 -0.16375607998E-01 -0.36818190610E-02  0.17341051972E-01  0.51100000000E-03 0. -1.
         11    1    4    4    0    0 -0.74520291067E-01 -0.62075572286E-01  0.70462915327E-01  0.11988300135E+00  0.51100000000E-03 0.  1.
</event>
<event>
 8    1  0.2190512E+004  0.1043930E+01  0.7957747E-01            NaN
         13   -1    0    0    0    0  0.00000000000E+00  0.00000000000E+00  0.74505805969E-08  0.10566000000E+00  0.10566000000E+00 0.  1.
     999900   -1    0    0    0    0 -0.00000000000E+00 -0.00000000000E+00 -0.74505805969E-08  0.93827000000E+00  0.93827000000E+00 0. -1.
     999902    2    1    2    0    0 -0.74434544565E-03  0.76321768489E-02 -0.11099333309E-01  0.10304392857E+01  0.10303509703E+01 0.  0.
     999903    2    3    3    0    0 -0.28766401505E-01 -0.10212098120E+00 -0.85911828802E-01  0.14003044652E+00  0.31168621521E-01 0.  0.
         14    1    1    2    0    0  0.74434544565E-03 -0.76321768489E-02  0.11099333309E-01  0.13490714343E-01  0.00000000000E+00 0.  1.
     999901    1    3    3    0    0  0.28022056059E-01  0.10975315805E+00  0.74812495493E-01  0.89040883914E+00  0.88000000000E+00 0. -1.
        -11    1    4    4    0    0 -0.28779425159E-01 -0.45108467563E-01 -0.39401563524E-01  0.66451286575E-01  0.51100000000E-03 0.  1.
         11    1    4    4    0    0  0.13023654614E-04 -0.57012513640E-01 -0.46510265278E-01  0.73579159947E-01  0.51100000000E-03 0. -1.
</event>
<event>
 8    1  0.2190512E+004  0.1043930E+01  0.7957747E-01            NaN
         13   -1    0    0    0    0  0.00000000000E+00  0.00000000000E+00  0.74505805969E-08  0.10566000000E+00  0.10566000000E+00 0.  1.
     999900   -1    0    0    0    0 -0.00000000000E+00 -0.00000000000E+00 -0.74505805969E-08  0.93827000000E+00  0.93827000000E+00 0. -1.
     999902    2    1    2    0    0 -0.32087778769E-02 -0.11203288293E-01  0.67866252608E-02  0.10304441479E+01  0.10303558967E+01 0.  0.
     999903    2    3    3    0    0 -0.59088127522E-01  0.10387699339E+00 -0.55956826400E-01  0.13898314839E+00  0.43626970403E-01 0.  0.
         14    1    1    2    0    0  0.32087778769E-02  0.11203288293E-01 -0.67866252608E-02  0.13485852085E-01  0.00000000000E+00 0. -1.
     999901    1    3    3    0    0  0.55879349645E-01 -0.11508028168E+00  0.62743451661E-01  0.89146099953E+00  0.88000000000E+00 0.  1.
        -11    1    4    4    0    0 -0.44665123975E-01  0.42359429539E-01 -0.41263248652E-01  0.74109455408E-01  0.51100000000E-03 0.  1.
         11    1    4    4    0    0 -0.14423003547E-01  0.61517563847E-01 -0.14693577748E-01  0.64873692981E-01  0.51100000000E-03 0. -1.
</event>
<event>
 8    1  0.2190512E+004  0.1043930E+01  0.7957747E-01            NaN
         13   -1    0    0    0    0  0.00000000000E+00  0.00000000000E+00  0.74505805969E-08  0.10566000000E+00  0.10566000000E+00 0.  1.
     999900   -1    0    0    0    0 -0.00000000000E+00 -0.00000000000E+00 -0.74505805969E-08  0.93827000000E+00  0.93827000000E+00 0. -1.
     999902    2    1    2    0    0  0.92597707970E-02  0.10580978613E-01  0.66674326938E-03  0.10298536010E+01  0.10297573959E+01 0.  0.
     999903    2    3    3    0    0  0.11071835958E+00  0.58469617127E-01  0.43487562474E-01  0.14169776468E+00  0.50098274930E-01 0.  0.
         14    1    1    2    0    0 -0.92597707970E-02 -0.10580978613E-01 -0.66674326938E-03  0.14076399050E-01  0.00000000000E+00 0.  1.
     999901    1    3    3    0    0 -0.10145858879E+00 -0.47888638514E-01 -0.42820819205E-01  0.88815583627E+00  0.88000000000E+00 0. -1.
        -11    1    4    4    0    0 -0.28381817586E-03  0.15967586759E-01  0.43837193032E-02  0.16568720397E-01  0.51100000000E-03 0.  1.
         11    1    4    4    0    0  0.11100217776E+00  0.42502030368E-01  0.39103843171E-01  0.12512904429E+00  0.51100000000E-03 0. -1.
</event>
<event>
 8    1  0.2190512E+004  0.1043930E+01  0.7957747E-01            NaN
         13   -1    0    0    0    0  0.00000000000E+00  0.00000000000E+00  0.74505805969E-08  0.10566000000E+00  0.10566000000E+00 0. -1.
     999900   -1    0    0    0    0 -0.00000000000E+00 -0.00000000000E+00 -0.74505805969E-08  0.93827000000E+00  0.93827000000E+00 0.  1.
     999902    2    1    2    0    0 -0.11528480325E-01  0.97527006284E-02 -0.48389863216E-02  0.10280732407E+01  0.10279509479E+01 0.  0.
     999903    2    3    3    0    0 -0.78599963948E-01  0.10258742647E+00  0.30578820134E-01  0.13994527057E+00  0.44130263012E-01 0.  0.
         14    1    1    2    0    0  0.11528480325E-01 -0.97527006284E-02  0.48389863216E-02  0.15856759340E-01  0.00000000000E+00 0. -1.
     999901    1    3    3    0    0  0.67071483623E-01 -0.92834725837E-01 -0.35417806455E-01  0.88812797009E+00  0.88000000000E+00 0.  1.
        -11    1    4    4    0    0 -0.34390619221E-01  0.78134734775E-01  0.25864501213E-01  0.89201933907E-01  0.51100000000E-03 0. -1.
         11    1    4    4    0    0 -0.44209344727E-01  0.24452691691E-01  0.47143189210E-02  0.50743336666E-01  0.51100000000E-03 0.  1.
</event>
<event>
 8    1  0.2190512E+004  0.1043930E+01  0.7957747E-01            NaN
         13   -1    0    0    0    0  0.00000000000E+00  0.00000000000E+00  0.74505805969E-08  0.10566000000E+00  0.10566000000E+00 0. -1.
     999900   -1    0    0    0    0 -0.00000000000E+00 -0.00000000000E+00 -0.74505805969E-08  0.93827000000E+00  0.93827000000E+00 0.  1.
     999902    2    1    2    0    0  0.12315021310E-01 -0.47104874804E-02  0.81034845909E-03  0.10307199619E+01  0.10306353064E+01 0.  0.
     999903    2    3    3    0    0 -0.68485325205E-01 -0.10398344417E-01 -0.11199346888E+00  0.13982953714E+00  0.47025493600E-01 0.  0.
         14    1    1    2    0    0 -0.12315021310E-01  0.47104874804E-02 -0.81034845909E-03  0.13210038107E-01  0.00000000000E+00 0.  1.
     999901    1    3    3    0    0  0.80800346515E-01  0.56878569370E-02  0.11280381734E+00  0.89089042476E+00  0.88000000000E+00 0. -1.
        -11    1    4    4    0    0 -0.26621836760E-01  0.18554633197E-01 -0.37327870266E-01  0.49463396822E-01  0.51100000000E-03 0.  1.
         11    1    4    4    0    0 -0.41863488446E-01 -0.28952977615E-01 -0.74665598618E-01  0.90366140316E-01  0.51100000000E-03 0. -1.
</event>
<event>
 8    1  0.2190512E+004  0.1043930E+01  0.7957747E-01            NaN
         13   -1    0    0    0    0  0.00000000000E+00  0.00000000000E+00  0.74505805969E-08  0.10566000000E+00  0.10566000000E+00 0. -1.
     999900   -1    0    0    0    0 -0.00000000000E+00 -0.00000000000E+00 -0.74505805969E-08  0.93827000000E+00  0.93827000000E+00 0.  1.
     999902    2    1    2    0    0  0.10635561912E-01 -0.64672476156E-02 -0.70571119452E-02  0.10296211462E+01  0.10295217148E+01 0.  0.
     999903    2    3    3    0    0  0.81001262760E-01  0.97981891930E-01 -0.38326777161E-01  0.14010512801E+00  0.44708492832E-01 0.  0.
         14    1    1    2    0    0 -0.10635561912E-01  0.64672476156E-02  0.70571119452E-02  0.14308853830E-01  0.00000000000E+00 0. -1.
     999901    1    3    3    0    0 -0.70365700848E-01 -0.10444913955E+00  0.31269665215E-01  0.88951601816E+00  0.88000000000E+00 0. -1.
        -11    1    4    4    0    0  0.44503259702E-01  0.48920319115E-01  0.31565346228E-02  0.66211498837E-01  0.51100000000E-03 0.  1.
         11    1    4    4    0    0  0.36498003057E-01  0.49061572815E-01 -0.41483311783E-01  0.73893629169E-01  0.51100000000E-03 0. -1.
</event>
<event>
 8    1  0.2190512E+004  0.1043930E+01  0.7957747E-01            NaN
         13   -1    0    0    0    0  0.00000000000E+00  0.00000000000E+00  0.74505805969E-08  0.10566000000E+00  0.10566000000E+00 0. -1.
     999900   -1    0    0    0    0 -0.00000000000E+00 -0.00000000000E+00 -0.74505805969E-08  0.93827000000E+00  0.93827000000E+00 0. -1.
     999902    2    1    2    0    0 -0.12131685114E-01 -0.79922127995E-02 -0.11189772092E-01  0.10255924907E+01  0.10254285410E+01 0.  0.
     999903    2    3    3    0    0  0.49213015212E-01  0.56904914345E-01  0.10125337522E+00  0.13395451999E+00  0.45071912423E-01 0.  0.
         14    1    1    2    0    0  0.12131685114E-01  0.79922127995E-02  0.11189772092E-01  0.18337509334E-01  0.00000000000E+00 0. -1.
     999901    1    3    3    0    0 -0.61344700325E-01 -0.64897127144E-01 -0.11244314731E+00  0.89163797067E+00  0.88000000000E+00 0. -1.
        -11    1    4    4    0    0  0.48058414411E-01  0.55967014515E-01  0.66970153493E-01  0.99635237186E-01  0.51100000000E-03 0. -1.
         11    1    4    4    0    0  0.11546008010E-02  0.93789982988E-03  0.34283221730E-01  0.34319282805E-01  0.51100000000E-03 0.  1.
</event>
<event>
 8    1  0.2190512E+004  0.1043930E+01  0.7957747E-01            NaN
         13   -1    0    0    0    0  0.00000000000E+00  0.00000000000E+00  0.74505805969E-08  0.10566000000E+00  0.10566000000E+00 0. -1.
     999900   -1    0    0    0    0 -0.00000000000E+00 -0.00000000000E+00 -0.74505805969E-08  0.93827000000E+00  0.93827000000E+00 0. -1.
     999902    2    1    2    0    0  0.13344320611E-02 -0.47695161644E-02 -0.11496995653E-01  0.10314116174E+01  0.10313356460E+01 0.  0.
     999903    2    3    3    0    0  0.76865515164E-02  0.63670023424E-01 -0.11949276253E+00  0.14214933571E+00  0.42602328455E-01 0.  0.
         14    1    1    2    0    0 -0.13344320611E-02  0.47695161644E-02  0.11496995653E-01  0.12518382580E-01  0.00000000000E+00 0. -1.
     999901    1    3    3    0    0 -0.63521194553E-02 -0.68439539588E-01  0.10799576688E+00  0.88926228171E+00  0.88000000000E+00 0.  1.
        -11    1    4    4    0    0 -0.13251541603E-01  0.50059961679E-01 -0.85614896005E-01  0.10005885597E+00  0.51100000000E-03 0. -1.
         11    1    4    4    0    0  0.20938093119E-01  0.13610061745E-01 -0.33877866527E-01  0.42090479750E-01  0.51100000000E-03 0.  1.
</event>
<event>
 8    1  0.2190512E+004  0.1043930E+01  0.7957747E-01            NaN
         13   -1    0    0    0    0  0.00000000000E+00  0.00000000000E+00  0.74505805969E-08  0.10566000000E+00  0.10566000000E+00 0.  1.
     999900   -1    0    0    0    0 -0.00000000000E+00 -0.00000000000E+00 -0.74505805969E-08  0.93827000000E+00  0.93827000000E+00 0.  1.
     999902    2    1    2    0    0  0.81821185889E-02 -0.87105318580E-03  0.11969172740E-01  0.10294053005E+01  0.10293028252E+01 0.  0.
     999903    2    3    3    0    0  0.12133164863E+00  0.51751707467E-01  0.23415879470E-01  0.14052791969E+00  0.42428582561E-01 0.  0.
         14    1    1    2    0    0 -0.81821185889E-02  0.87105318580E-03 -0.11969172740E-01  0.14524699458E-01  0.00000000000E+00 0. -1.
     999901    1    3    3    0    0 -0.11314953004E+00 -0.52622760652E-01 -0.11446706730E-01  0.88887738085E+00  0.88000000000E+00 0. -1.
        -11    1    4    4    0    0  0.82634297646E-01  0.46908203722E-01  0.32600846409E-01  0.10045836467E+00  0.51100000000E-03 0. -1.
         11    1    4    4    0    0  0.38697350981E-01  0.48435037441E-02 -0.91849669392E-02  0.40069555028E-01  0.51100000000E-03 0.  1.
</event>
<event>
 8    1  0.2190512E+004  0.1043930E+01  0.7957747E-01            NaN
         13   -1    0    0    0    0  0.00000000000E+00  0.00000000000E+00  0.74505805969E-08  0.10566000000E+00  0.10566000000E+00 0. -1.
     999900   -1    0    0    0    0 -0.00000000000E+00 -0.00000000000E+00 -0.74505805969E-08  0.93827000000E+00  0.93827000000E+00 0.  1.
     999902    2    1    2    0    0 -0.12205017243E-01 -0.28332570538E-02 -0.15461059361E-01  0.10240293933E+01  0.10238360045E+01 0.  0.
     999903    2    3    3    0    0 -0.70356826373E-02 -0.16458492756E-01  0.12384612241E+00  0.13295203414E+00  0.44922138544E-01 0.  0.
         14    1    1    2    0    0  0.12205017243E-01  0.28332570538E-02  0.15461059361E-01  0.19900606725E-01  0.00000000000E+00 0.  1.
     999901    1    3    3    0    0 -0.51693346057E-02  0.13625235702E-01 -0.13930718177E+00  0.89107735913E+00  0.88000000000E+00 0.  1.
        -11    1    4    4    0    0 -0.21374783574E-01  0.19119350872E-02  0.84823501336E-01  0.87497567786E-01  0.51100000000E-03 0.  1.
         11    1    4    4    0    0  0.14339100937E-01 -0.18370427843E-01  0.39022621077E-01  0.45454466354E-01  0.51100000000E-03 0. -1.
</event>
<event>
 8    1  0.2190512E+004  0.1043930E+01  0.7957747E-01            NaN
         13   -1    0    0    0    0  0.00000000000E+00  0.00000000000E+00  0.74505805969E-08  0.10566000000E+00  0.10566000000E+00 0. -1.
     999900   -1    0    0    0    0 -0.00000000000E+00 -0.00000000000E+00 -0.74505805969E-08  0.93827000000E+00  0.93827000000E+00 0.  1.
     999902    2    1    2    0    0  0.39888870011E-02 -0.12793719370E-01  0.31861245609E-02  0.10301553180E+01  0.10300632201E+01 0.  0.
     999903    2    3    3    0    0 -0.56423490033E-01  0.11570436900E+00  0.28370786927E-01  0.13841786715E+00  0.42231423870E-01 0.  0.
         14    1    1    2    0    0 -0.39888870011E-02  0.12793719370E-01 -0.31861245609E-02  0.13774682012E-01  0.00000000000E+00 0.  1.
     999901    1    3    3    0    0  0.60412377034E-01 -0.12849808837E+00 -0.25184662367E-01  0.89173745084E+00  0.88000000000E+00 0. -1.
        -11    1    4    4    0    0  0.55540370042E-02  0.13947622544E-01 -0.27566327231E-02  0.15272316349E-01  0.51100000000E-03 0. -1.
         11    1    4    4    0    0 -0.61977527038E-01  0.10175674645E+00  0.31127419651E-01  0.12314555080E+00  0.51100000000E-03 0.  1.
</event>
<event>
 8    1  0.2190512E+004  0.1043930E+01  0.7957747E-01            NaN
         13   -1    0    0    0    0  0.00000000000E+00  0.00000000000E+00  0.74505805969E-08  0.10566000000E+00  0.10566000000E+00 0. -1.
     999900   -1    0    0    0    0 -0.00000000000E+00 -0.00000000000E+00 -0.74505805969E-08  0.93827000000E+00  0.93827000000E+00 0. -1.
     999902    2    1    2    0    0  0.66446920215E-03 -0.81777390555E-02 -0.10757748069E-01  0.10304005477E+01  0.10303117211E+01 0.  0.
     999903    2    3    3    0    0 -0.13274300466E+00 -0.50710047652E-02 -0.47355744017E-02  0.14031994887E+00  0.44953776364E-01 0.  0.
         14    1    1    2    0    0 -0.66446920215E-03  0.81777390555E-02  0.10757748069E-01  0.13529452276E-01  0.00000000000E+00 0. -1.
     999901    1    3    3    0    0  0.13340747387E+00 -0.31067342903E-02 -0.60221736672E-02  0.89008059885E+00  0.88000000000E+00 0.  1.
        -11    1    4    4    0    0 -0.94074400808E-01 -0.24047896123E-01 -0.13532931050E-02  0.97110178244E-01  0.51100000000E-03 0. -1.
         11    1    4    4    0    0 -0.38668603855E-01  0.18976891358E-01 -0.33822812967E-02  0.43209770625E-01  0.51100000000E-03 0.  1.
</event>
<event>
 8    1  0.2190512E+004  0.1043930E+01  0.7957747E-01            NaN
         13   -1    0    0    0    0  0.00000000000E+00  0.00000000000E+00  0.74505805969E-08  0.10566000000E+00  0.10566000000E+00 0. -1.
     999900   -1    0    0    0    0 -0.00000000000E+00 -0.00000000000E+00 -0.74505805969E-08  0.93827000000E+00  0.93827000000E+00 0.  1.
     999902    2    1    2    0    0  0.47389598499E-02  0.10550836655E-01 -0.64058747393E-02  0.10307083085E+01  0.10306235026E+01 0.  0.
     999903    2    3    3    0    0 -0.11401329746E+00  0.60747854457E-01 -0.33583752618E-01  0.14089907263E+00  0.45114813650E-01 0.  0.
         14    1    1    2    0    0 -0.47389598499E-02 -0.10550836655E-01  0.64058747393E-02  0.13221691486E-01  0.00000000000E+00 0. -1.
     999901    1    3    3    0    0  0.11875225731E+00 -0.50197017802E-01  0.27177877879E-01  0.88980923588E+00  0.88000000000E+00 0.  1.
        -11    1    4    4    0    0 -0.29960532425E-01  0.40234057521E-01 -0.91527364420E-02  0.50994574155E-01  0.51100000000E-03 0.  1.
         11    1    4    4    0    0 -0.84052765033E-01  0.20513796936E-01 -0.24431016176E-01  0.89904498479E-01  0.51100000000E-03 0. -1.
</event>
<event>
 8    1  0.2190512E+004  0.1043930E+01  0.7957747E-01            NaN
         13   -1    0    0    0    0  0.00000000000E+00  0.00000000000E+00  0.74505805969E-08  0.10566000000E+00  0.10566000000E+00 0.  1.
     999900   -1    0    0    0    0 -0.00000000000E+00 -0.00000000000E+00 -0.74505805969E-08  0.93827000000E+00  0.93827000000E+00 0.  1.
     999902    2    1    2    0    0 -0.30028568197E-02  0.10951257277E-01 -0.86781319370E-02  0.10296381436E+01  0.10295389500E+01 0.  0.
     999903    2    3    3    0    0 -0.56188335650E-01  0.16742774895E-02  0.11872968511E+00  0.13882530729E+00  0.44897611850E-01 0.  0.
         14    1    1    2    0    0  0.30028568197E-02 -0.10951257277E-01  0.86781319370E-02  0.14291856385E-01  0.00000000000E+00 0.  1.
     999901    1    3    3    0    0  0.53185478830E-01  0.92769797876E-02 -0.12740781705E+00  0.89081283632E+00  0.88000000000E+00 0.  1.
        -11    1    4    4    0    0 -0.12014245738E-01 -0.15480510285E-01  0.61349161214E-01  0.64404728103E-01  0.51100000000E-03 0. -1.
         11    1    4    4    0    0 -0.44174089911E-01  0.17154787774E-01  0.57380523898E-01  0.74420579189E-01  0.51100000000E-03 0.  1.
</event>
<event>
 8    1  0.2190512E+004  0.1043930E+01  0.7957747E-01            NaN
         13   -1    0    0    0    0  0.00000000000E+00  0.00000000000E+00  0.74505805969E-08  0.10566000000E+00  0.10566000000E+00 0. -1.
     999900   -1    0    0    0    0 -0.00000000000E+00 -0.00000000000E+00 -0.74505805969E-08  0.93827000000E+00  0.93827000000E+00 0.  1.
     999902    2    1    2    0    0 -0.77231322442E-03 -0.17849602282E-01 -0.69805644655E-02  0.10247484190E+01  0.10245688797E+01 0.  0.
     999903    2    3    3    0    0  0.10546117203E+00 -0.81082698836E-03 -0.72378255843E-01  0.13578681618E+00  0.45571167226E-01 0.  0.
         14    1    1    2    0    0  0.77231322442E-03  0.17849602282E-01  0.69805644655E-02  0.19181580998E-01  0.00000000000E+00 0. -1.
     999901    1    3    3    0    0 -0.10623348526E+00 -0.17038775294E-01  0.65397691378E-01  0.88896160282E+00  0.88000000000E+00 0. -1.
        -11    1    4    4    0    0  0.84781964842E-01 -0.19508624925E-01 -0.55412487039E-01  0.10314733564E+00  0.51100000000E-03 0. -1.
         11    1    4    4    0    0  0.20679207192E-01  0.18697797937E-01 -0.16965768805E-01  0.32639480540E-01  0.51100000000E-03 0.  1.
</event>
<event>
 8    1  0.2190512E+004  0.1043930E+01  0.7957747E-01            NaN
         13   -1    0    0    0    0  0.00000000000E+00  0.00000000000E+00  0.74505805969E-08  0.10566000000E+00  0.10566000000E+00 0.  1.
     999900   -1    0    0    0    0 -0.00000000000E+00 -0.00000000000E+00 -0.74505805969E-08  0.93827000000E+00  0.93827000000E+00 0. -1.
     999902    2    1    2    0    0 -0.12662393101E-01 -0.14645988616E-02  0.49537955528E-02  0.10302544255E+01  0.10301636568E+01 0.  0.
     999903    2    3    3    0    0 -0.11874799759E+00 -0.63405067604E-01  0.64960196242E-02  0.14172015171E+00  0.43830509933E-01 0.  0.
         14    1    1    2    0    0  0.12662393101E-01  0.14645988616E-02 -0.49537955528E-02  0.13675574550E-01  0.00000000000E+00 0. -1.
     999901    1    3    3    0    0  0.10608560449E+00  0.61940468743E-01 -0.15422240714E-02  0.88853427374E+00  0.88000000000E+00 0.  1.
        -11    1    4    4    0    0 -0.80188715942E-01 -0.41381241593E-01  0.24959417506E-01  0.93626230103E-01  0.51100000000E-03 0.  1.
         11    1    4    4    0    0 -0.38559281651E-01 -0.22023826011E-01 -0.18463397882E-01  0.48093921611E-01  0.51100000000E-03 0. -1.
</event>
<event>
 8    1  0.2190512E+004  0.1043930E+01  0.7957747E-01            NaN
         13   -1    0    0    0    0  0.00000000000E+00  0.00000000000E+00  0.74505805969E-08  0.10566000000E+00  0.10566000000E+00 0.  1.
     999900   -1    0    0    0    0 -0.00000000000E+00 -0.00000000000E+00 -0.74505805969E-08  0.93827000000E+00  0.93827000000E+00 0. -1.
     999902    2    1    2    0    0 -0.53794717411E-02  0.34718427754E-02  0.12098343223E-01  0.10302419645E+01  0.10301510292E+01 0.  0.
     999903    2    3    3    0    0  0.64269472364E-01 -0.10534267573E+00  0.48423825329E-01  0.14006719762E+00  0.45236142422E-01 0.  0.
         14    1    1    2    0    0  0.53794717411E-02 -0.34718427754E-02 -0.12098343223E-01  0.13688035550E-01  0.00000000000E+00 0. -1.
     999901    1    3    3    0    0 -0.69648944105E-01  0.10881451851E+00 -0.36325482106E-01  0.89017476683E+00  0.88000000000E+00 0.  1.
        -11    1    4    4    0    0  0.25198448296E-01 -0.53613512362E-01  0.15432757310E-03  0.59242345011E-01  0.51100000000E-03 0. -1.
         11    1    4    4    0    0  0.39071024068E-01 -0.51729163369E-01  0.48269497756E-01  0.80824852608E-01  0.51100000000E-03 0.  1.
</event>
<event>
 8    1  0.2190512E+004  0.1043930E+01  0.7957747E-01            NaN
         13   -1    0    0    0    0  0.00000000000E+00  0.00000000000E+00  0.74505805969E-08  0.10566000000E+00  0.10566000000E+00 0.  1.
     999900   -1    0    0    0    0 -0.00000000000E+00 -0.00000000000E+00 -0.74505805969E-08  0.93827000000E+00  0.93827000000E+00 0. -1.
     999902    2    1    2    0    0  0.33656002905E-02 -0.11387124124E-01 -0.75326522249E-02  0.10298681825E+01  0.10297721780E+01 0.  0.
     999903    2    3    3    0    0  0.13263987239E-01  0.59097457009E-01  0.11680871481E+00  0.13828149028E+00  0.42532950929E-01 0.  0.
         14    1    1    2    0    0 -0.33656002905E-02  0.11387124124E-01  0.75326522249E-02  0.14061817474E-01  0.00000000000E+00 0.  1.
     999901    1    3    3    0    0 -0.98983869483E-02 -0.70484581133E-01 -0.12434136704E+00  0.89158669225E+00  0.88000000000E+00 0. -1.
        -11    1    4    4    0    0 -0.13464178449E-01  0.18142839498E-01  0.21678198827E-01  0.31315366064E-01  0.51100000000E-03 0.  1.
         11    1    4    4    0    0  0.26728165688E-01  0.40954617511E-01  0.95130515984E-01  0.10696612421E+00  0.51100000000E-03 0. -1.
</event>
<event>
 8    1  0.2190512E+004  0.1043930E+01  0.7957747E-01            NaN
         13   -1    0    0    0    0  0.00000000000E+00  0.00000000000E+00  0.74505805969E-08  0.10566000000E+00  0.10566000000E+00 0.  1.
     999900   -1    0    0    0    0 -0.00000000000E+00 -0.00000000000E+00 -0.74505805969E-08  0.93827000000E+00  0.93827000000E+00 0. -1.
     999902    2    1    2    0    0  0.81153335174E-02  0.10562936722E-01  0.34263926325E-02  0.10301759302E+01  0.10300841095E+01 0.  0.
     999903    2    3    3    0    0  0.84600499507E-01 -0.28595314437E-01  0.99874743272E-01  0.14074598150E+00  0.43122273148E-01 0.  0.
         14    1    1    2    0    0 -0.81153335174E-02 -0.10562936722E-01 -0.34263926325E-02  0.13754069826E-01  0.00000000000E+00 0.  1.
     999901    1    3    3    0    0 -0.76485165989E-01  0.39158251160E-01 -0.96448350639E-01  0.88942994867E+00  0.88000000000E+00 0. -1.
        -11    1    4    4    0    0  0.55263719601E-01 -0.38910289715E-01  0.61807292437E-01  0.91588710381E-01  0.51100000000E-03 0.  1.
         11    1    4    4    0    0  0.29336779905E-01  0.10314975278E-01  0.38067450835E-01  0.49157271123E-01  0.51100000000E-03 0. -1.
</event>
<event>
 8    1  0.2190512E+004  0.1043930E+01  0.7957747E-01            NaN
         13   -1    0    0    0    0  0.00000000000E+00  0.00000000000E+00  0.74505805969E-08  0.10566000000E+00  0.10566000000E+00 0.  1.
     999900   -1    0    0    0    0 -0.00000000000E+00 -0.00000000000E+00 -0.74505805969E-08  0.93827000000E+00  0.93827000000E+00 0. -1.
     999902    2    1    2    0    0 -0.26946698794E-02 -0.13806409688E-01  0.82060823509E-02  0.10276444855E+01  0.10275154357E+01 0.  0.
     999903    2    3    3    0    0  0.56084197679E-01  0.11581717015E+00  0.76761789181E-02  0.13620884089E+00  0.43987162704E-01 0.  0.
         14    1    1    2    0    0  0.26946698794E-02  0.13806409688E-01 -0.82060823509E-02  0.16285514477E-01  0.00000000000E+00 0. -1.
     999901    1    3    3    0    0 -0.58778867558E-01 -0.12962357984E+00  0.52990343279E-03  0.89143564463E+00  0.88000000000E+00 0.  1.
        -11    1    4    4    0    0  0.42595698200E-01  0.49520565116E-01 -0.10482545066E-01  0.66157575126E-01  0.51100000000E-03 0.  1.
         11    1    4    4    0    0  0.13488499479E-01  0.66296605036E-01  0.18158723984E-01  0.70051265765E-01  0.51100000000E-03 0. -1.
</event>
<event>
 8    1  0.2190512E+004  0.1043930E+01  0.7957747E-01            NaN
         13   -1    0    0    0    0  0.00000000000E+00  0.00000000000E+00  0.74505805969E-08  0.10566000000E+00  0.10566000000E+00 0. -1.
     999900   -1    0    0    0    0 -0.00000000000E+00 -0.00000000000E+00 -0.74505805969E-08  0.93827000000E+00  0.93827000000E+00 0. -1.
     999902    2    1    2    0    0  0.26401612112E-01 -0.11926924871E-02 -0.10271254541E-02  0.10174815100E+01  0.10171376999E+01 0.  0.
     999903    2    3    3    0    0 -0.10257542037E+00 -0.24219193165E-01 -0.53154804963E-01  0.12625617955E+00  0.44798475423E-01 0.  0.
         14    1    1    2    0    0 -0.26401612112E-01  0.11926924871E-02  0.10271254541E-02  0.26448490017E-01  0.00000000000E+00 0. -1.
     999901    1    3    3    0    0  0.12897703249E+00  0.23026500678E-01  0.52127679509E-01  0.89122533044E+00  0.88000000000E+00 0.  1.
        -11    1    4    4    0    0 -0.65670314522E-01  0.31724747213E-02 -0.17366732170E-01  0.68003818368E-01  0.51100000000E-03 0.  1.
         11    1    4    4    0    0 -0.36905105852E-01 -0.27391667886E-01 -0.35788072793E-01  0.58252361178E-01  0.51100000000E-03 0. -1.
</event>
<event>
 8    1  0.2190512E+004  0.1043930E+01  0.7957747E-01            NaN
         13   -1    0    0    0    0  0.00000000000E+00  0.00000000000E+00  0.74505805969E-08  0.10566000000E+00  0.10566000000E+00 0.  1.
     999900   -1    0    0    0    0 -0.00000000000E+00 -0.00000000000E+00 -0.74505805969E-08  0.93827000000E+00  0.93827000000E+00 0. -1.
     999902    2    1    2    0    0 -0.47298240922E-02  0.13099433625E-01  0.10142473207E-02  0.10299659356E+01  0.10298712703E+01 0.  0.
     999903    2    3    3    0    0  0.12395381788E+00  0.26201845351E-01 -0.37763560412E-01  0.13966549682E+00  0.45047517583E-01 0.  0.
         14    1    1    2    0    0  0.47298240922E-02 -0.13099433625E-01 -0.10142473207E-02  0.13964064411E-01  0.00000000000E+00 0.  1.
     999901    1    3    3    0    0 -0.12868364197E+00 -0.13102411726E-01  0.38777807733E-01  0.89030043877E+00  0.88000000000E+00 0.  1.
        -11    1    4    4    0    0  0.86941804680E-01 -0.23591945366E-02 -0.17543627304E-01  0.88727014938E-01  0.51100000000E-03 0.  1.
         11    1    4    4    0    0  0.37012013197E-01  0.28561039887E-01 -0.20219933109E-01  0.50938481880E-01  0.51100000000E-03 0. -1.
</event>
<event>
 8    1  0.2190512E+004  0.1043930E+01  0.7957747E-01            NaN
         13   -1    0    0    0    0  0.00000000000E+00  0.00000000000E+00  0.74505805969E-08  0.10566000000E+00  0.10566000000E+00 0. -1.
     999900   -1    0    0    0    0 -0.00000000000E+00 -0.00000000000E+00 -0.74505805969E-08  0.93827000000E+00  0.93827000000E+00 0.  1.
     999902    2    1    2    0    0  0.23887180010E-02  0.30527050721E-03 -0.15197851695E-01  0.10285425421E+01  0.10284274340E+01 0.  0.
     999903    2    3    3    0    0 -0.12355781301E+00  0.42502743033E-01 -0.81153124134E-02  0.13854629622E+00  0.45345358969E-01 0.  0.
         14    1    1    2    0    0 -0.23887180010E-02 -0.30527050721E-03  0.15197851695E-01  0.15387457877E-01  0.00000000000E+00 0. -1.
     999901    1    3    3    0    0  0.12594653101E+00 -0.42197472526E-01 -0.70825392812E-02  0.88999624590E+00  0.88000000000E+00 0. -1.
        -11    1    4    4    0    0 -0.62792564870E-01  0.26477392781E-01 -0.26418784770E-01  0.73090162410E-01  0.51100000000E-03 0.  1.
         11    1    4    4    0    0 -0.60765248137E-01  0.16025350252E-01  0.18303472357E-01  0.65456133809E-01  0.51100000000E-03 0. -1.
</event>
<event>
 8    1  0.2190512E+004  0.1043930E+01  0.7957747E-01            NaN
         13   -1    0    0    0    0  0.00000000000E+00  0.00000000000E+00  0.74505805969E-08  0.10566000000E+00  0.10566000000E+00 0.  1.
     999900   -1    0    0    0    0 -0.00000000000E+00 -0.00000000000E+00 -0.74505805969E-08  0.93827000000E+00  0.93827000000E+00 0.  1.
     999902    2    1    2    0    0 -0.11817715763E-01  0.70352476154E-02  0.26891775845E-02  0.10299162642E+01  0.10298209196E+01 0.  0.
     999903    2    3    3    0    0 -0.11410338475E+00 -0.27293721363E-01  0.63977217027E-01  0.14121099249E+00  0.45639133036E-01 0.  0.
         14    1    1    2    0    0  0.11817715763E-01 -0.70352476154E-02 -0.26891775845E-02  0.14013735796E-01  0.00000000000E+00 0. -1.
     999901    1    3    3    0    0  0.10228566899E+00  0.34328968979E-01 -0.61288039443E-01  0.88870527171E+00  0.88000000000E+00 0.  1.
        -11    1    4    4    0    0 -0.10687830127E+00 -0.16897209811E-01  0.42458424684E-01  0.11623883142E+00  0.51100000000E-03 0.  1.
         11    1    4    4    0    0 -0.72250834816E-02 -0.10396511552E-01  0.21518792343E-01  0.24972161074E-01  0.51100000000E-03 0. -1.
</event>
<event>
 8    1  0.2190512E+004  0.1043930E+01  0.7957747E-01            NaN
         13   -1    0    0    0    0  0.00000000000E+00  0.00000000000E+00  0.74505805969E-08  0.10566000000E+00  0.10566000000E+00 0.  1.
     999900   -1    0    0    0    0 -0.00000000000E+00 -0.00000000000E+00 -0.74505805969E-08  0.93827000000E+00  0.93827000000E+00 0.  1.
     999902    2    1    2    0    0 -0.15795042152E-02  0.33475284839E-02  0.13187704268E-01  0.10302326892E+01  0.10301416298E+01 0.  0.
     999903    2    3    3    0    0  0.46833240981E-01 -0.41840710038E-01 -0.11497908975E+00  0.13848580921E+00  0.44879068563E-01 0.  0.
         14    1    1    2    0    0  0.15795042152E-02 -0.33475284839E-02 -0.13187704268E-01  0.13697310845E-01  0.00000000000E+00 0. -1.
     999901    1    3    3    0    0 -0.48412745196E-01  0.45188238522E-01  0.12816679402E+00  0.89174687994E+00  0.88000000000E+00 0. -1.
        -11    1    4    4    0    0  0.86515859491E-02 -0.22537648653E-01 -0.78918163627E-01  0.82529589951E-01  0.51100000000E-03 0.  1.
         11    1    4    4    0    0  0.38181655032E-01 -0.19303061385E-01 -0.36060926127E-01  0.55956219261E-01  0.51100000000E-03 0. -1.
</event>
<event>
 8    1  0.2190512E+004  0.1043930E+01  0.7957747E-01            NaN
         13   -1    0    0    0    0  0.00000000000E+00  0.00000000000E+00  0.74505805969E-08  0.10566000000E+00  0.10566000000E+00 0.  1.
     999900   -1    0    0    0    0 -0.00000000000E+00 -0.00000000000E+00 -0.74505805969E-08  0.93827000000E+00  0.93827000000E+00 0. -1.
     999902    2    1    2    0    0  0.71217727179E-02 -0.12231527283E-02  0.11020497459E-01  0.10307517181E+01  0.10306674717E+01 0.  0.
     999903    2    3    3    0    0  0.64123527202E-01 -0.11394999371E+00 -0.29011696862E-01  0.14083086923E+00  0.43534209148E-01 0.  0.
         14    1    1    2    0    0 -0.71217727179E-02  0.12231527283E-02 -0.11020497459E-01  0.13178281887E-01  0.00000000000E+00 0. -1.
     999901    1    3    3    0    0 -0.57001754484E-01  0.11272684098E+00  0.40032194321E-01  0.88992084888E+00  0.88000000000E+00 0.  1.
        -11    1    4    4    0    0  0.39088252408E-01 -0.64943743075E-01  0.52855037105E-02  0.75985386169E-01  0.51100000000E-03 0.  1.
         11    1    4    4    0    0  0.25035274794E-01 -0.49006250636E-01 -0.34297200573E-01  0.64845483062E-01  0.51100000000E-03 0. -1.
</event>
<event>
 8    1  0.2190512E+004  0.1043930E+01  0.7957747E-01            NaN
         13   -1    0    0    0    0  0.00000000000E+00  0.00000000000E+00  0.74505805969E-08  0.10566000000E+00  0.10566000000E+00 0.  1.
     999900   -1    0    0    0    0 -0.00000000000E+00 -0.00000000000E+00 -0.74505805969E-08  0.93827000000E+00  0.93827000000E+00 0. -1.
     999902    2    1    2    0    0  0.55637917844E-02 -0.13504308271E-01  0.15072710898E-04  0.10293244412E+01  0.10292208135E+01 0.  0.
     999903    2    3    3    0    0  0.18003918775E-01  0.97612473108E-01 -0.84739843383E-01  0.13820991900E+00  0.45484114318E-01 0.  0.
         14    1    1    2    0    0 -0.55637917844E-02  0.13504308271E-01 -0.15072710898E-04  0.14605558808E-01  0.00000000000E+00 0.  1.
     999901    1    3    3    0    0 -0.12440126991E-01 -0.11111678138E+00  0.84754916094E-01  0.89111452219E+00  0.88000000000E+00 0.  1.
        -11    1    4    4    0    0  0.12186978063E-02  0.20471989324E-01 -0.45793909971E-01  0.50178988459E-01  0.51100000000E-03 0.  1.
         11    1    4    4    0    0  0.16785220969E-01  0.77140483784E-01 -0.38945933411E-01  0.88030930539E-01  0.51100000000E-03 0. -1.
</event>
<event>
 8    1  0.2190512E+004  0.1043930E+01  0.7957747E-01            NaN
         13   -1    0    0    0    0  0.00000000000E+00  0.00000000000E+00  0.74505805969E-08  0.10566000000E+00  0.10566000000E+00 0. -1.
     999900   -1    0    0    0    0 -0.00000000000E+00 -0.00000000000E+00 -0.74505805969E-08  0.93827000000E+00  0.93827000000E+00 0. -1.
     999902    2    1    2    0    0  0.11933249732E-02 -0.36408195715E-02 -0.13785731872E-01  0.10296217508E+01  0.10295223279E+01 0.  0.
     999903    2    3    3    0    0 -0.11299809631E+00  0.16053475379E-01 -0.68319242768E-01  0.14035157265E+00  0.44774559439E-01 0.  0.
         14    1    1    2    0    0 -0.11933249732E-02  0.36408195715E-02  0.13785731872E-01  0.14308249190E-01  0.00000000000E+00 0. -1.
     999901    1    3    3    0    0  0.11419142128E+00 -0.19694294951E-01  0.54533510896E-01  0.88927017816E+00  0.88000000000E+00 0.  1.
        -11    1    4    4    0    0 -0.96727876085E-01  0.52210125009E-02 -0.37546006407E-01  0.10389179323E+00  0.51100000000E-03 0.  1.
         11    1    4    4    0    0 -0.16270220222E-01  0.10832462879E-01 -0.30773236361E-01  0.36459779418E-01  0.51100000000E-03 0. -1.
</event>
<event>
 8    1  0.2190512E+004  0.1043930E+01  0.7957747E-01            NaN
         13   -1    0    0    0    0  0.00000000000E+00  0.00000000000E+00  0.74505805969E-08  0.10566000000E+00  0.10566000000E+00 0. -1.
     999900   -1    0    0    0    0 -0.00000000000E+00 -0.00000000000E+00 -0.74505805969E-08  0.93827000000E+00  0.93827000000E+00 0.  1.
     999902    2    1    2    0    0 -0.10712318183E-01 -0.75134380210E-02  0.68899419073E-02  0.10291422750E+01  0.10290360272E+01 0.  0.
     999903    2    3    3    0    0 -0.12951772626E+00 -0.12079433178E-01  0.30305167471E-01  0.14083835960E+00  0.44679819119E-01 0.  0.
         14    1    1    2    0    0  0.10712318183E-01  0.75134380210E-02 -0.68899419073E-02  0.14787725019E-01  0.00000000000E+00 0.  1.
     999901    1    3    3    0    0  0.11880540808E+00  0.45659951566E-02 -0.23415225564E-01  0.88830391539E+00  0.88000000000E+00 0. -1.
        -11    1    4    4    0    0 -0.82181439840E-01  0.12794209986E-01  0.10592564697E-01  0.83844763767E-01  0.51100000000E-03 0.  1.
         11    1    4    4    0    0 -0.47336286421E-01 -0.24873643163E-01  0.19712602774E-01  0.56993595829E-01  0.51100000000E-03 0. -1.
</event>
<event>
 8    1  0.2190512E+004  0.1043930E+01  0.7957747E-01            NaN
         13   -1    0    0    0    0  0.00000000000E+00  0.00000000000E+00  0.74505805969E-08  0.10566000000E+00  0.10566000000E+00 0. -1.
     999900   -1    0    0    0    0 -0.00000000000E+00 -0.00000000000E+00 -0.74505805969E-08  0.93827000000E+00  0.93827000000E+00 0. -1.
     999902    2    1    2    0    0 -0.57276381820E-02 -0.52115424314E-02  0.10165306825E-01  0.10311511316E+01  0.10310719455E+01 0.  0.
     999903    2    3    3    0    0 -0.12143190937E+00 -0.48730695947E-01 -0.30524917170E-01  0.14157983634E+00  0.44639558137E-01 0.  0.
         14    1    1    2    0    0  0.57276381820E-02  0.52115424314E-02 -0.10165306825E-01  0.12778868358E-01  0.00000000000E+00 0.  1.
     999901    1    3    3    0    0  0.11570427118E+00  0.43519153515E-01  0.40690223996E-01  0.88957129530E+00  0.88000000000E+00 0.  1.
        -11    1    4    4    0    0 -0.62540628250E-01 -0.20500817143E-02 -0.20010151709E-01  0.65697795316E-01  0.51100000000E-03 0. -1.
         11    1    4    4    0    0 -0.58891281116E-01 -0.46680614233E-01 -0.10514765461E-01  0.75882041026E-01  0.51100000000E-03 0.  1.
</event>
<event>
 8    1  0.2190512E+004  0.1043930E+01  0.7957747E-01            NaN
         13   -1    0    0    0    0  0.00000000000E+00  0.00000000000E+00  0.74505805969E-08  0.10566000000E+00  0.10566000000E+00 0. -1.
     999900   -1    0    0    0    0 -0.00000000000E+00 -0.00000000000E+00 -0.74505805969E-08  0.93827000000E+00  0.93827000000E+00 0.  1.
     999902    2    1    2    0    0 -0.15018967733E-01 -0.13123956534E-01 -0.36271813195E-02  0.10236577512E+01  0.10234569984E+01 0.  0.
     999903    2    3    3    0    0  0.74889487688E-01 -0.66631835255E-01 -0.77738670945E-01  0.13436638369E+00  0.44303355069E-01 0.  0.
         14    1    1    2    0    0  0.15018967733E-01  0.13123956534E-01  0.36271813195E-02  0.20272248794E-01  0.00000000000E+00 0.  1.
     999901    1    3    3    0    0 -0.89908455420E-01  0.53507878722E-01  0.74111489625E-01  0.88929136751E+00  0.88000000000E+00 0. -1.
        -11    1    4    4    0    0  0.52645669270E-01 -0.31016033818E-01 -0.67681435602E-01  0.91184421328E-01  0.51100000000E-03 0. -1.
         11    1    4    4    0    0  0.22243818418E-01 -0.35615801438E-01 -0.10057235342E-01  0.43181962364E-01  0.51100000000E-03 0.  1.
</event>
<event>
 8    1  0.2190512E+004  0.1043930E+01  0.7957747E-01            NaN
         13   -1    0    0    0    0  0.00000000000E+00  0.00000000000E+00  0.74505805969E-08  0.10566000000E+00  0.10566000000E+00 0. -1.
     999900   -1    0    0    0    0 -0.00000000000E+00 -0.00000000000E+00 -0.74505805969E-08  0.93827000000E+00  0.93827000000E+00 0. -1.
     999902    2    1    2    0    0 -0.44362923198E-02  0.53657037687E-02  0.10353665132E-02  0.10368912892E+01  0.10368673985E+01 0.  0.
     999903    2    3    3    0    0  0.29513200487E-01  0.14139660928E-01 -0.13453624094E+00  0.14581934418E+00  0.45741906360E-01 0.  0.
         14    1    1    2    0    0  0.44362923198E-02 -0.53657037687E-02 -0.10353665132E-02  0.70387108405E-02  0.00000000000E+00 0.  1.
     999901    1    3    3    0    0 -0.33949492806E-01 -0.87739571592E-02  0.13557160745E+00  0.89107194498E+00  0.88000000000E+00 0.  1.
        -11    1    4    4    0    0  0.11887076262E-03  0.21517869506E-01 -0.85531504391E-01  0.88198255100E-01  0.51100000000E-03 0. -1.
         11    1    4    4    0    0  0.29394329724E-01 -0.73782085784E-02 -0.49004736544E-01  0.57621089078E-01  0.51100000000E-03 0.  1.
</event>
<event>
 7    1  0.2190512E+004  0.1043930E+01  0.7957747E-01            NaN
         13   -1    0    0    0    0  0.00000000000E+00  0.00000000000E+00  0.74505805969E-08  0.10566000000E+00  0.10566000000E+00 0. -1.
     999900   -1    0    0    0    0 -0.00000000000E+00 -0.00000000000E+00 -0.74505805969E-08  0.93827000000E+00  0.93827000000E+00 0.  1.
     999902    2    1    2    0    0 -0.33460214327E-02 -0.40263350937E-02 -0.10609830871E-01  0.10320988654E+01  0.10320310520E+01 0.  0.
         14    1    1    2    0    0  0.33460214327E-02  0.40263350937E-02  0.10609830871E-01  0.11831134553E-01  0.00000000000E+00 0. -1.
     999901    1    3    3    0    0 -0.97396586082E-01  0.99327526028E-01 -0.14571002005E-01  0.89104678132E+00  0.88000000000E+00 0.  1.
        -11    1    3    3    0    0  0.69694783831E-02 -0.15969473788E-01  0.29598851087E-02  0.17681056610E-01  0.51100000000E-03 0. -1.
         11    1    3    3    0    0  0.87081086266E-01 -0.87384387333E-01  0.10012860260E-02  0.12337102751E+00  0.51100000000E-03 0.  1.
</event>
<event>
 8    1  0.2190512E+004  0.1043930E+01  0.7957747E-01            NaN
         13   -1    0    0    0    0  0.00000000000E+00  0.00000000000E+00  0.74505805969E-08  0.10566000000E+00  0.10566000000E+00 0. -1.
     999900   -1    0    0    0    0 -0.00000000000E+00 -0.00000000000E+00 -0.74505805969E-08  0.93827000000E+00  0.93827000000E+00 0. -1.
     999902    2    1    2    0    0  0.16221587248E-02  0.66200476580E-02 -0.14027772207E-01  0.10283340126E+01  0.10282157393E+01 0.  0.
     999903    2    3    3    0    0  0.11802455713E+00 -0.55340519232E-01 -0.10812672518E-01  0.13850314829E+00  0.45539422977E-01 0.  0.
         14    1    1    2    0    0 -0.16221587248E-02 -0.66200476580E-02  0.14027772207E-01  0.15595987401E-01  0.00000000000E+00 0. -1.
     999901    1    3    3    0    0 -0.11640239841E+00  0.61960566890E-01 -0.32150996889E-02  0.88983086431E+00  0.88000000000E+00 0.  1.
        -11    1    4    4    0    0  0.23212068896E-01 -0.32213424733E-01 -0.98184583304E-02  0.40904377766E-01  0.51100000000E-03 0.  1.
         11    1    4    4    0    0  0.94812488237E-01 -0.23127094499E-01 -0.99421418782E-03  0.97598770527E-01  0.51100000000E-03 0. -1.
</event>
<event>
 8    1  0.2190512E+004  0.1043930E+01  0.7957747E-01            NaN
         13   -1    0    0    0    0  0.00000000000E+00  0.00000000000E+00  0.74505805969E-08  0.10566000000E+00  0.10566000000E+00 0.  1.
     999900   -1    0    0    0    0 -0.00000000000E+00 -0.00000000000E+00 -0.74505805969E-08  0.93827000000E+00  0.93827000000E+00 0.  1.
     999902    2    1    2    0    0 -0.12489754886E-01 -0.57127917437E-02  0.10822452871E-02  0.10301531636E+01  0.10300610367E+01 0.  0.
     999903    2    3    3    0    0 -0.19554841611E-01 -0.13197962501E+00 -0.82729696371E-02  0.14106332073E+00  0.45048919855E-01 0.  0.
         14    1    1    2    0    0  0.12489754886E-01  0.57127917437E-02 -0.10822452871E-02  0.13776836410E-01  0.00000000000E+00 0.  1.
     999901    1    3    3    0    0  0.70650867253E-02  0.12626683327E+00  0.93552149242E-02  0.88908984286E+00  0.88000000000E+00 0.  1.
        -11    1    4    4    0    0  0.44621851901E-02 -0.74805611528E-01  0.11835175720E-01  0.75869118343E-01  0.51100000000E-03 0.  1.
         11    1    4    4    0    0 -0.24017026801E-01 -0.57174013481E-01 -0.20108145357E-01  0.65194202385E-01  0.51100000000E-03 0. -1.
</event>
<event>
 8    1  0.2190512E+004  0.1043930E+01  0.7957747E-01            NaN
         13   -1    0    0    0    0  0.00000000000E+00  0.00000000000E+00  0.74505805969E-08  0.10566000000E+00  0.10566000000E+00 0.  1.
     999900   -1    0    0    0    0 -0.00000000000E+00 -0.00000000000E+00 -0.74505805969E-08  0.93827000000E+00  0.93827000000E+00 0.  1.
     999902    2    1    2    0    0 -0.16356285405E-01  0.15269218375E-01 -0.17245179024E-01  0.10156798088E+01  0.10152868564E+01 0.  0.
     999903    2    3    3    0    0  0.55653489498E-01 -0.10181278609E+00 -0.18352224660E-01  0.12500880952E+00  0.42746274710E-01 0.  0.
         14    1    1    2    0    0  0.16356285405E-01 -0.15269218375E-01  0.17245179024E-01  0.28250191178E-01  0.00000000000E+00 0.  1.
     999901    1    3    3    0    0 -0.72009774903E-01  0.11708200447E+00  0.11070456362E-02  0.89067099930E+00  0.88000000000E+00 0. -1.
        -11    1    4    4    0    0  0.28442740437E-01 -0.25894082840E-01  0.96093822190E-02  0.39649645110E-01  0.51100000000E-03 0. -1.
         11    1    4    4    0    0  0.27210749061E-01 -0.75918703254E-01 -0.27961606879E-01  0.85359164408E-01  0.51100000000E-03 0.  1.
</event>
<event>
 8    1  0.2190512E+004  0.1043930E+01  0.7957747E-01            NaN
         13   -1    0    0    0    0  0.00000000000E+00  0.00000000000E+00  0.74505805969E-08  0.10566000000E+00  0.10566000000E+00 0.  1.
     999900   -1    0    0    0    0 -0.00000000000E+00 -0.00000000000E+00 -0.74505805969E-08  0.93827000000E+00  0.93827000000E+00 0. -1.
     999902    2    1    2    0    0 -0.15292255130E-01  0.66241449033E-02 -0.58485548433E-03  0.10272544365E+01  0.10271190792E+01 0.  0.
     999903    2    3    3    0    0 -0.81307915459E-01 -0.66004570959E-01  0.78660897731E-01  0.13825899939E+00  0.44276783710E-01 0.  0.
         14    1    1    2    0    0  0.15292255130E-01 -0.66241449033E-02  0.58485548433E-03  0.16675563517E-01  0.00000000000E+00 0. -1.
     999901    1    3    3    0    0  0.66015660328E-01  0.72628715862E-01 -0.79245753215E-01  0.88899543710E+00  0.88000000000E+00 0. -1.
        -11    1    4    4    0    0 -0.66871675082E-02 -0.28962667416E-01  0.27474021914E-01  0.40480085403E-01  0.51100000000E-03 0. -1.
         11    1    4    4    0    0 -0.74620747950E-01 -0.37041903544E-01  0.51186875817E-01  0.97778913983E-01  0.51100000000E-03 0.  1.
</event>
<event>
 8    1  0.2190512E+004  0.1043930E+01  0.7957747E-01            NaN
         13   -1    0    0    0    0  0.00000000000E+00  0.00000000000E+00  0.74505805969E-08  0.10566000000E+00  0.10566000000E+00 0.  1.
     999900   -1    0    0    0    0 -0.00000000000E+00 -0.00000000000E+00 -0.74505805969E-08  0.93827000000E+00  0.93827000000E+00 0.  1.
     999902    2    1    2    0    0 -0.51909257080E-03  0.41109470731E-02  0.12580077029E-01  0.10306850885E+01  0.10305999825E+01 0.  0.
     999903    2    3    3    0    0  0.82296550573E-01 -0.89068287871E-01 -0.52709372337E-01  0.13950412327E+00  0.44466170686E-01 0.  0.
         14    1    1    2    0    0  0.51909257080E-03 -0.41109470731E-02 -0.12580077029E-01  0.13244911513E-01  0.00000000000E+00 0. -1.
     999901    1    3    3    0    0 -0.82815643144E-01  0.93179234944E-01  0.65289449366E-01  0.89118096522E+00  0.88000000000E+00 0.  1.
        -11    1    4    4    0    0  0.42113754636E-01 -0.71726194229E-01 -0.46513477884E-01  0.95299422947E-01  0.51100000000E-03 0. -1.
         11    1    4    4    0    0  0.40182795937E-01 -0.17342093642E-01 -0.61958944525E-02  0.44204700319E-01  0.51100000000E-03 0.  1.
</event>
<event>
 7    1  0.2190512E+004  0.1043930E+01  0.7957747E-01            NaN
         13   -1    0    0    0    0  0.00000000000E+00  0.00000000000E+00  0.74505805969E-08  0.10566000000E+00  0.10566000000E+00 0.  1.
     999900   -1    0    0    0    0 -0.00000000000E+00 -0.00000000000E+00 -0.74505805969E-08  0.93827000000E+00  0.93827000000E+00 0.  1.
     999902    2    1    2    0    0 -0.66428402483E-02 -0.71384192846E-02 -0.98841326075E-02  0.10300454606E+01  0.10299518778E+01 0.  0.
         14    1    1    2    0    0  0.66428402483E-02  0.71384192846E-02  0.98841326075E-02  0.13884539382E-01  0.00000000000E+00 0.  1.
     999901    1    3    3    0    0 -0.50344389587E-01  0.10267911305E+00  0.24272154603E-01  0.88773120668E+00  0.88000000000E+00 0.  1.
        -11    1    3    3    0    0  0.63699611884E-01 -0.83409335649E-01 -0.27920298997E-01  0.10860277181E+00  0.51100000000E-03 0.  1.
         11    1    3    3    0    0 -0.19998062546E-01 -0.26408196681E-01 -0.62359882133E-02  0.33711482132E-01  0.51100000000E-03 0. -1.
</event>
<event>
 8    1  0.2190512E+004  0.1043930E+01  0.7957747E-01            NaN
         13   -1    0    0    0    0  0.00000000000E+00  0.00000000000E+00  0.74505805969E-08  0.10566000000E+00  0.10566000000E+00 0. -1.
     999900   -1    0    0    0    0 -0.00000000000E+00 -0.00000000000E+00 -0.74505805969E-08  0.93827000000E+00  0.93827000000E+00 0.  1.
     999902    2    1    2    0    0  0.20960236387E-02  0.20313750652E-02 -0.13591916190E-01  0.10300282021E+01  0.10299343848E+01 0.  0.
     999903    2    3    3    0    0 -0.85057294249E-01  0.89821633067E-01  0.45282590292E-01  0.13942782159E+00  0.45682987831E-01 0.  0.
         14    1    1    2    0    0 -0.20960236387E-02 -0.20313750652E-02  0.13591916190E-01  0.13901797922E-01  0.00000000000E+00 0. -1.
     999901    1    3    3    0    0  0.87153317887E-01 -0.87790258002E-01 -0.58874506481E-01  0.89060038049E+00  0.88000000000E+00 0. -1.
        -11    1    4    4    0    0 -0.63665915633E-01  0.35625617539E-01  0.31995127221E-01  0.79664814851E-01  0.51100000000E-03 0. -1.
         11    1    4    4    0    0 -0.21391378616E-01  0.54196015528E-01  0.13287463071E-01  0.59763006736E-01  0.51100000000E-03 0.  1.
</event>
<event>
 8    1  0.2190512E+004  0.1043930E+01  0.7957747E-01            NaN
         13   -1    0    0    0    0  0.00000000000E+00  0.00000000000E+00  0.74505805969E-08  0.10566000000E+00  0.10566000000E+00 0.  1.
     999900   -1    0    0    0    0 -0.00000000000E+00 -0.00000000000E+00 -0.74505805969E-08  0.93827000000E+00  0.93827000000E+00 0.  1.
     999902    2    1    2    0    0  0.19853479203E-02 -0.80280884380E-03  0.13760204507E-01  0.10300041486E+01  0.10299100042E+01 0.  0.
     999903    2    3    3    0    0 -0.10704419480E+00  0.77389768578E-01  0.36403824016E-02  0.13977724994E+00  0.45571825672E-01 0.  0.
         14    1    1    2    0    0 -0.19853479203E-02  0.80280884380E-03 -0.13760204507E-01  0.13925851373E-01  0.00000000000E+00 0. -1.
     999901    1    3    3    0    0  0.10902954272E+00 -0.78192577422E-01  0.10119822105E-01  0.89022689869E+00  0.88000000000E+00 0.  1.
        -11    1    4    4    0    0 -0.57155128984E-01  0.68224779743E-01  0.22770116054E-02  0.89032439274E-01  0.51100000000E-03 0.  1.
         11    1    4    4    0    0 -0.49889065816E-01  0.91649888344E-02  0.13633707963E-02  0.50744810664E-01  0.51100000000E-03 0. -1.
</event>
<event>
 8    1  0.2190512E+004  0.1043930E+01  0.7957747E-01            NaN
         13   -1    0    0    0    0  0.00000000000E+00  0.00000000000E+00  0.74505805969E-08  0.10566000000E+00  0.10566000000E+00 0.  1.
     999900   -1    0    0    0    0 -0.00000000000E+00 -0.00000000000E+00 -0.74505805969E-08  0.93827000000E+00  0.93827000000E+00 0.  1.
     999902    2    1    2    0    0  0.12545927708E-02  0.10129003755E-01 -0.92260794392E-02  0.10301716839E+01  0.10300798062E+01 0.  0.
     999903    2    3    3    0    0 -0.64688744699E-01 -0.39110297625E-01 -0.10982869915E+00  0.14062465330E+00  0.44706832677E-01 0.  0.
         14    1    1    2    0    0 -0.12545927708E-02 -0.10129003755E-01  0.92260794392E-02  0.13758316100E-01  0.00000000000E+00 0.  1.
     999901    1    3    3    0    0  0.65943337470E-01  0.49239301381E-01  0.10060261971E+00  0.88954703060E+00  0.88000000000E+00 0. -1.
        -11    1    4    4    0    0 -0.47207625478E-01 -0.15488380829E-01 -0.36580206509E-01  0.61699452779E-01  0.51100000000E-03 0.  1.
         11    1    4    4    0    0 -0.17481119222E-01 -0.23621916796E-01 -0.73248492639E-01  0.78925200521E-01  0.51100000000E-03 0. -1.
</event>
<event>
 8    1  0.2190512E+004  0.1043930E+01  0.7957747E-01            NaN
         13   -1    0    0    0    0  0.00000000000E+00  0.00000000000E+00  0.74505805969E-08  0.10566000000E+00  0.10566000000E+00 0.  1.
     999900   -1    0    0    0    0 -0.00000000000E+00 -0.00000000000E+00 -0.74505805969E-08  0.93827000000E+00  0.93827000000E+00 0. -1.
     999902    2    1    2    0    0  0.11752692665E-01 -0.71757392359E-03 -0.50932015193E-02  0.10311010718E+01  0.10310212601E+01 0.  0.
     999903    2    3    3    0    0 -0.74076184729E-01  0.10251265051E+00 -0.41531764015E-01  0.14017411392E+00  0.43906379160E-01 0.  0.
         14    1    1    2    0    0 -0.11752692665E-01  0.71757392359E-03  0.50932015193E-02  0.12828928207E-01  0.00000000000E+00 0. -1.
     999901    1    3    3    0    0  0.85828877394E-01 -0.10323022444E+00  0.36438562495E-01  0.89092695788E+00  0.88000000000E+00 0. -1.
        -11    1    4    4    0    0 -0.16561922713E-01  0.11529158261E-01  0.79642944667E-02  0.21700458095E-01  0.51100000000E-03 0.  1.
         11    1    4    4    0    0 -0.57514262015E-01  0.90983492254E-01 -0.49496058481E-01  0.11847365582E+00  0.51100000000E-03 0. -1.
</event>
<event>
 8    1  0.2190512E+004  0.1043930E+01  0.7957747E-01            NaN
         13   -1    0    0    0    0  0.00000000000E+00  0.00000000000E+00  0.74505805969E-08  0.10566000000E+00  0.10566000000E+00 0.  1.
     999900   -1    0    0    0    0 -0.00000000000E+00 -0.00000000000E+00 -0.74505805969E-08  0.93827000000E+00  0.93827000000E+00 0.  1.
     999902    2    1    2    0    0  0.63442050574E-03 -0.13221575146E-01 -0.46852782039E-02  0.10298884769E+01  0.10297927512E+01 0.  0.
     999903    2    3    3    0    0  0.12562515971E+00 -0.27896335782E-01 -0.33619426495E-01  0.14046438323E+00  0.45167364513E-01 0.  0.
         14    1    1    2    0    0 -0.63442050574E-03  0.13221575146E-01  0.46852782039E-02  0.14041523086E-01  0.00000000000E+00 0.  1.
     999901    1    3    3    0    0 -0.12499073920E+00  0.14674760636E-01  0.28934148291E-01  0.88942409368E+00  0.88000000000E+00 0. -1.
        -11    1    4    4    0    0  0.12028045306E+00 -0.27630217002E-01 -0.18974950469E-01  0.12486443107E+00  0.51100000000E-03 0.  1.
         11    1    4    4    0    0  0.53447066468E-02 -0.26611878003E-03 -0.14644476027E-01  0.15599952161E-01  0.51100000000E-03 0. -1.
</event>
<event>
 8    1  0.2190512E+004  0.1043930E+01  0.7957747E-01            NaN
         13   -1    0    0    0    0  0.00000000000E+00  0.00000000000E+00  0.74505805969E-08  0.10566000000E+00  0.10566000000E+00 0. -1.
     999900   -1    0    0    0    0 -0.00000000000E+00 -0.00000000000E+00 -0.74505805969E-08  0.93827000000E+00  0.93827000000E+00 0.  1.
     999902    2    1    2    0    0  0.27447769920E-02  0.13391456197E-01  0.52486708726E-02  0.10292871367E+01  0.10291829751E+01 0.  0.
     999903    2    3    3    0    0 -0.11767925050E-03 -0.39636225285E-01 -0.12448051405E+00  0.13819242227E+00  0.45063322026E-01 0.  0.
         14    1    1    2    0    0 -0.27447769920E-02 -0.13391456197E-01 -0.52486708726E-02  0.14642863304E-01  0.00000000000E+00 0.  1.
     999901    1    3    3    0    0  0.28624562425E-02  0.53027681481E-01  0.12972918492E+00  0.89109471443E+00  0.88000000000E+00 0. -1.
        -11    1    4    4    0    0  0.23392266840E-02 -0.57686763601E-02 -0.88485127688E-01  0.88705290436E-01  0.51100000000E-03 0. -1.
         11    1    4    4    0    0 -0.24569059345E-02 -0.33867548924E-01 -0.35995386360E-01  0.49487131833E-01  0.51100000000E-03 0.  1.
</event>
<event>
 8    1  0.2190512E+004  0.1043930E+01  0.7957747E-01            NaN
         13   -1    0    0    0    0  0.00000000000E+00  0.00000000000E+00  0.74505805969E-08  0.10566000000E+00  0.10566000000E+00 0.  1.
     999900   -1    0    0    0    0 -0.00000000000E+00 -0.00000000000E+00 -0.74505805969E-08  0.93827000000E+00  0.93827000000E+00 0. -1.
     999902    2    1    2    0    0  0.57158798523E-02  0.32925175494E-02 -0.11991974305E-01  0.10302435322E+01  0.10301526179E+01 0.  0.
     999903    2    3    3    0    0 -0.52579927962E-01  0.10440240998E+00  0.61012230587E-01  0.13954087386E+00  0.45657980279E-01 0.  0.
         14    1    1    2    0    0 -0.57158798523E-02 -0.32925175494E-02  0.11991974305E-01  0.13686467844E-01  0.00000000000E+00 0.  1.
     999901    1    3    3    0    0  0.58295807814E-01 -0.10110989243E+00 -0.73004204892E-01  0.89070265829E+00  0.88000000000E+00 0. -1.
        -11    1    4    4    0    0 -0.55334979113E-01  0.78085547942E-01  0.33586619935E-01  0.10142797874E+00  0.51100000000E-03 0. -1.
         11    1    4    4    0    0  0.27550511504E-02  0.26316862039E-01  0.27425610652E-01  0.38112895128E-01  0.51100000000E-03 0.  1.
</event>
<event>
 8    1  0.2190512E+004  0.1043930E+01  0.7957747E-01            NaN
         13   -1    0    0    0    0  0.00000000000E+00  0.00000000000E+00  0.74505805969E-08  0.10566000000E+00  0.10566000000E+00 0.  1.
     999900   -1    0    0    0    0 -0.00000000000E+00 -0.00000000000E+00 -0.74505805969E-08  0.93827000000E+00  0.93827000000E+00 0.  1.
     999902    2    1    2    0    0  0.64967940001E-02 -0.12237660347E-01  0.21991650460E-02  0.10299012798E+01  0.10298057298E+01 0.  0.
     999903    2    3    3    0    0  0.65064574374E-01 -0.81452268021E-01 -0.83632729615E-01  0.14108861060E+00  0.45207209327E-01 0.  0.
         14    1    1    2    0    0 -0.64967940001E-02  0.12237660347E-01 -0.21991650460E-02  0.14028720182E-01  0.00000000000E+00 0. -1.
     999901    1    3    3    0    0 -0.58567780374E-01  0.69214607674E-01  0.85831894661E-01  0.88881266921E+00  0.88000000000E+00 0. -1.
        -11    1    4    4    0    0  0.52394551261E-01 -0.34569899509E-01 -0.32963060345E-01  0.70901984615E-01  0.51100000000E-03 0. -1.
         11    1    4    4    0    0  0.12670023113E-01 -0.46882368511E-01 -0.50669669270E-01  0.70186625990E-01  0.51100000000E-03 0.  1.
</event>
<event>
 8    1  0.2190512E+004  0.1043930E+01  0.7957747E-01            NaN
         13   -1    0    0    0    0  0.00000000000E+00  0.00000000000E+00  0.74505805969E-08  0.10566000000E+00  0.10566000000E+00 0.  1.
     999900   -1    0    0    0    0 -0.00000000000E+00 -0.00000000000E+00 -0.74505805969E-08  0.93827000000E+00  0.93827000000E+00 0.  1.
     999902    2    1    2    0    0 -0.76851203571E-02 -0.46619143119E-02  0.10841570159E-01  0.10298468837E+01  0.10297505862E+01 0.  0.
     999903    2    3    3    0    0 -0.63266034167E-01 -0.97799530589E-01  0.66134686160E-01  0.14146566927E+00  0.45512631295E-01 0.  0.
         14    1    1    2    0    0  0.76851203571E-02  0.46619143119E-02 -0.10841570159E-01  0.14083116255E-01  0.00000000000E+00 0. -1.
     999901    1    3    3    0    0  0.55580913810E-01  0.93137616277E-01 -0.55293116001E-01  0.88838121447E+00  0.88000000000E+00 0.  1.
        -11    1    4    4    0    0 -0.38490422471E-01 -0.19980091340E-01  0.23980558369E-01  0.49558500509E-01  0.51100000000E-03 0. -1.
         11    1    4    4    0    0 -0.24775611696E-01 -0.77819439248E-01  0.42154127791E-01  0.91907168766E-01  0.51100000000E-03 0.  1.
</event>
<event>
 8    1  0.2190512E+004  0.1043930E+01  0.7957747E-01            NaN
         13   -1    0    0    0    0  0.00000000000E+00  0.00000000000E+00  0.74505805969E-08  0.10566000000E+00  0.10566000000E+00 0.  1.
     999900   -1    0    0    0    0 -0.00000000000E+00 -0.00000000000E+00 -0.74505805969E-08  0.93827000000E+00  0.93827000000E+00 0. -1.
     999902    2    1    2    0    0  0.22317555950E-02 -0.64982436814E-02 -0.90645042450E-02  0.10325557685E+01  0.10324931196E+01 0.  0.
     999903    2    3    3    0    0  0.11714395307E+00  0.66647316629E-01 -0.12481475813E-01  0.14206895684E+00  0.43165156155E-01 0.  0.
         14    1    1    2    0    0 -0.22317555950E-02  0.64982436814E-02  0.90645042450E-02  0.11374231455E-01  0.00000000000E+00 0.  1.
     999901    1    3    3    0    0 -0.11491219747E+00 -0.73145560310E-01  0.34169715680E-02  0.89048681170E+00  0.88000000000E+00 0.  1.
        -11    1    4    4    0    0  0.87170027737E-01  0.64729341748E-01  0.22765614169E-02  0.10859993219E+00  0.51100000000E-03 0.  1.
         11    1    4    4    0    0  0.29973925330E-01  0.19179748810E-02 -0.14758037230E-01  0.33469024653E-01  0.51100000000E-03 0. -1.
</event>
<event>
 8    1  0.2190512E+004  0.1043930E+01  0.7957747E-01            NaN
         13   -1    0    0    0    0  0.00000000000E+00  0.00000000000E+00  0.74505805969E-08  0.10566000000E+00  0.10566000000E+00 0. -1.
     999900   -1    0    0    0    0 -0.00000000000E+00 -0.00000000000E+00 -0.74505805969E-08  0.93827000000E+00  0.93827000000E+00 0. -1.
     999902    2    1    2    0    0 -0.70926921775E-02  0.11680335507E-01 -0.12249150775E-02  0.10302100533E+01  0.10301186907E+01 0.  0.
     999903    2    3    3    0    0  0.54696620708E-01  0.22815098483E-01 -0.11870795271E+00  0.14018524116E+00  0.45255660051E-01 0.  0.
         14    1    1    2    0    0  0.70926921775E-02 -0.11680335507E-01  0.12249150775E-02  0.13719946677E-01  0.00000000000E+00 0.  1.
     999901    1    3    3    0    0 -0.61789312886E-01 -0.11134762976E-01  0.11748303763E+00  0.89002481216E+00  0.88000000000E+00 0.  1.
        -11    1    4    4    0    0  0.82465736108E-02  0.19998359784E-02 -0.67316430982E-01  0.67851074579E-01  0.51100000000E-03 0. -1.
         11    1    4    4    0    0  0.46450047098E-01  0.20815262504E-01 -0.51391521728E-01  0.72334166582E-01  0.51100000000E-03 0.  1.
</event>
<event>
 8    1  0.2190512E+004  0.1043930E+01  0.7957747E-01            NaN
         13   -1    0    0    0    0  0.00000000000E+00  0.00000000000E+00  0.74505805969E-08  0.10566000000E+00  0.10566000000E+00 0. -1.
     999900   -1    0    0    0    0 -0.00000000000E+00 -0.00000000000E+00 -0.74505805969E-08  0.93827000000E+00  0.93827000000E+00 0.  1.
     999902    2    1    2    0    0  0.65219266394E-02  0.11444382601E-01  0.40370400956E-02  0.10301529498E+01  0.10300608200E+01 0.  0.
     999903    2    3    3    0    0  0.11745050451E+00  0.53822466603E-01 -0.25845540382E-01  0.14167446382E+00  0.52078621518E-01 0.  0.
         14    1    1    2    0    0 -0.65219266394E-02 -0.11444382601E-01 -0.40370400956E-02  0.13777050227E-01  0.00000000000E+00 0.  1.
     999901    1    3    3    0    0 -0.11092857787E+00 -0.42378084002E-01  0.29882580478E-01  0.88847848596E+00  0.88000000000E+00 0. -1.
        -11    1    4    4    0    0  0.19016571914E-01  0.23846465641E-01 -0.23908838688E-01  0.38757936211E-01  0.51100000000E-03 0. -1.
         11    1    4    4    0    0  0.98433932595E-01  0.29976000962E-01 -0.19367016940E-02  0.10291652761E+00  0.51100000000E-03 0.  1.
</event>
<event>
 8    1  0.2240970E+004  0.1043930E+01  0.7957747E-01            NaN
         13   -1    0    0    0    0  0.00000000000E+00  0.00000000000E+00  0.74505805969E-08  0.10566000000E+00  0.10566000000E+00 0. -1.
     999900   -1    0    0    0    0 -0.00000000000E+00 -0.00000000000E+00 -0.74505805969E-08  0.93827000000E+00  0.93827000000E+00 0.  1.
     999902    2    1    2    0    0 -0.40743776065E-03  0.20755143269E-02  0.13501352222E-01  0.10302639736E+01  0.10301733325E+01 0.  0.
     999903    2    3    3    0    0 -0.12012618622E+00  0.51403272855E-01  0.26900567599E-01  0.14068803787E+00  0.44686534725E-01 0.  0.
         14    1    1    2    0    0  0.40743776065E-03 -0.20755143269E-02 -0.13501352222E-01  0.13666026382E-01  0.00000000000E+00 0.  1.
     999901    1    3    3    0    0  0.11971874846E+00 -0.49327758528E-01 -0.13399215377E-01  0.88957593575E+00  0.88000000000E+00 0.  1.
        -11    1    4    4    0    0 -0.60977890886E-01  0.48884122542E-01  0.81162612844E-02  0.78575412388E-01  0.51100000000E-03 0. -1.
         11    1    4    4    0    0 -0.59148295334E-01  0.25191503128E-02  0.18784306315E-01  0.62112625479E-01  0.51100000000E-03 0.  1.
</event>
<event>
 8    1  0.2190512E+004  0.1043930E+01  0.7957747E-01            NaN
         13   -1    0    0    0    0  0.00000000000E+00  0.00000000000E+00  0.74505805969E-08  0.10566000000E+00  0.10566000000E+00 0.  1.
     999900   -1    0    0    0    0 -0.00000000000E+00 -0.00000000000E+00 -0.74505805969E-08  0.93827000000E+00  0.93827000000E+00 0. -1.
     999902    2    1    2    0    0 -0.92716245332E-03 -0.12304836716E-01  0.57396516521E-02  0.10303207297E+01  0.10302308449E+01 0.  0.
     999903    2    3    3    0    0 -0.32046323930E-02  0.11256645709E+00 -0.66958043456E-01  0.13853433053E+00  0.45021153036E-01 0.  0.
         14    1    1    2    0    0  0.92716245332E-03  0.12304836716E-01 -0.57396516521E-02  0.13609270293E-01  0.00000000000E+00 0. -1.
     999901    1    3    3    0    0  0.22774699397E-02 -0.12487129381E+00  0.72697695109E-01  0.89178639918E+00  0.88000000000E+00 0.  1.
        -11    1    4    4    0    0  0.15604121875E-01  0.56081147416E-01 -0.49708266579E-01  0.76549047037E-01  0.51100000000E-03 0. -1.
         11    1    4    4    0    0 -0.18808754268E-01  0.56485309675E-01 -0.17249776878E-01  0.61985283491E-01  0.51100000000E-03 0.  1.
</event>
<event>
 8    1  0.2190512E+004  0.1043930E+01  0.7957747E-01            NaN
         13   -1    0    0    0    0  0.00000000000E+00  0.00000000000E+00  0.74505805969E-08  0.10566000000E+00  0.10566000000E+00 0.  1.
     999900   -1    0    0    0    0 -0.00000000000E+00 -0.00000000000E+00 -0.74505805969E-08  0.93827000000E+00  0.93827000000E+00 0. -1.
     999902    2    1    2    0    0  0.11050720561E-01  0.29757450776E-02  0.69589157529E-02  0.10305359718E+01  0.10304489260E+01 0.  0.
     999903    2    3    3    0    0  0.20221576512E-01 -0.93633702793E-01 -0.91737809134E-01  0.13971694777E+00  0.43918303872E-01 0.  0.
         14    1    1    2    0    0 -0.11050720561E-01 -0.29757450776E-02 -0.69589157529E-02  0.13394028227E-01  0.00000000000E+00 0.  1.
     999901    1    3    3    0    0 -0.91708559507E-02  0.96609447871E-01  0.98696724886E-01  0.89081902400E+00  0.88000000000E+00 0.  1.
        -11    1    4    4    0    0  0.29796187243E-02 -0.22352940227E-01 -0.51135578239E-01  0.55889538800E-01  0.51100000000E-03 0. -1.
         11    1    4    4    0    0  0.17241957788E-01 -0.71280762567E-01 -0.40602230895E-01  0.83827408973E-01  0.51100000000E-03 0.  1.
</event>
<event>
 8    1  0.2190512E+004  0.1043930E+01  0.7957747E-01            NaN
         13   -1    0    0    0    0  0.00000000000E+00  0.00000000000E+00  0.74505805969E-08  0.10566000000E+00  0.10566000000E+00 0. -1.
     999900   -1    0    0    0    0 -0.00000000000E+00 -0.00000000000E+00 -0.74505805969E-08  0.93827000000E+00  0.93827000000E+00 0.  1.
     999902    2    1    2    0    0 -0.62271458910E-02  0.93477490471E-02  0.78260118188E-02  0.10302404339E+01  0.10301494782E+01 0.  0.
     999903    2    3    3    0    0  0.11533994490E+00 -0.62309186671E-01  0.30607688771E-02  0.13898514977E+00  0.46062630392E-01 0.  0.
         14    1    1    2    0    0  0.62271458910E-02 -0.93477490471E-02 -0.78260118188E-02  0.13689566070E-01  0.00000000000E+00 0. -1.
     999901    1    3    3    0    0 -0.12156709079E+00  0.71656935719E-01  0.47652429417E-02  0.89125528416E+00  0.88000000000E+00 0.  1.
        -11    1    4    4    0    0  0.84952305502E-01 -0.20943260905E-01  0.47596217414E-02  0.87626648387E-01  0.51100000000E-03 0. -1.
         11    1    4    4    0    0  0.30387639395E-01 -0.41365925766E-01 -0.16988528643E-02  0.51358501385E-01  0.51100000000E-03 0.  1.
</event>
<event>
 8    1  0.2190512E+004  0.1043930E+01  0.7957747E-01            NaN
         13   -1    0    0    0    0  0.00000000000E+00  0.00000000000E+00  0.74505805969E-08  0.10566000000E+00  0.10566000000E+00 0.  1.
     999900   -1    0    0    0    0 -0.00000000000E+00 -0.00000000000E+00 -0.74505805969E-08  0.93827000000E+00  0.93827000000E+00 0.  1.
     999902    2    1    2    0    0  0.10324760804E-01 -0.45897468738E-02  0.87706402083E-02  0.10296264832E+01  0.10295271266E+01 0.  0.
     999903    2    3    3    0    0 -0.11390301034E+00  0.12656778121E-01  0.64906921974E-01  0.13896309908E+00  0.44314157906E-01 0.  0.
         14    1    1    2    0    0 -0.10324760804E-01  0.45897468738E-02 -0.87706402083E-02  0.14303516759E-01  0.00000000000E+00 0. -1.
     999901    1    3    3    0    0  0.12422777114E+00 -0.17246524995E-01 -0.56136281765E-01  0.89066338416E+00  0.88000000000E+00 0.  1.
        -11    1    4    4    0    0 -0.66162558567E-01  0.26315581366E-01  0.25732506170E-01  0.75712726629E-01  0.51100000000E-03 0. -1.
         11    1    4    4    0    0 -0.47740451769E-01 -0.13658803245E-01  0.39174415803E-01  0.63250372456E-01  0.51100000000E-03 0.  1.
</event>
<event>
 8    1  0.2190512E+004  0.1043930E+01  0.7957747E-01            NaN
         13   -1    0    0    0    0  0.00000000000E+00  0.00000000000E+00  0.74505805969E-08  0.10566000000E+00  0.10566000000E+00 0. -1.
     999900   -1    0    0    0    0 -0.00000000000E+00 -0.00000000000E+00 -0.74505805969E-08  0.93827000000E+00  0.93827000000E+00 0. -1.
     999902    2    1    2    0    0  0.12037063379E-01  0.55209992433E-02  0.53761440938E-02  0.10296375106E+01  0.10295383082E+01 0.  0.
     999903    2    3    3    0    0  0.52402206499E-01  0.96820022941E-04  0.12282786954E+00  0.14090038733E+00  0.44947002070E-01 0.  0.
         14    1    1    2    0    0 -0.12037063379E-01 -0.55209992433E-02 -0.53761440938E-02  0.14292489382E-01  0.00000000000E+00 0. -1.
     999901    1    3    3    0    0 -0.40365143120E-01  0.54241792204E-02 -0.11745172544E+00  0.88873712329E+00  0.88000000000E+00 0. -1.
        -11    1    4    4    0    0 -0.70805551807E-02 -0.39561101425E-02  0.25481627413E-01  0.26746205820E-01  0.51100000000E-03 0. -1.
         11    1    4    4    0    0  0.59482761679E-01  0.40529301654E-02  0.97346242123E-01  0.11415418151E+00  0.51100000000E-03 0.  1.
</event>
<event>
 8    1  0.2190512E+004  0.1043930E+01  0.7957747E-01            NaN
         13   -1    0    0    0    0  0.00000000000E+00  0.00000000000E+00  0.74505805969E-08  0.10566000000E+00  0.10566000000E+00 0. -1.
     999900   -1    0    0    0    0 -0.00000000000E+00 -0.00000000000E+00 -0.74505805969E-08  0.93827000000E+00  0.93827000000E+00 0.  1.
     999902    2    1    2    0    0 -0.72636307419E-02  0.81676746789E-02  0.85263766931E-02  0.10300674483E+01  0.10299741636E+01 0.  0.
     999903    2    3    3    0    0  0.10950749804E+00  0.71633623518E-01  0.20564779677E-01  0.14000658162E+00  0.45339437465E-01 0.  0.
         14    1    1    2    0    0  0.72636307419E-02 -0.81676746789E-02 -0.85263766931E-02  0.13862551739E-01  0.00000000000E+00 0.  1.
     999901    1    3    3    0    0 -0.11677112878E+00 -0.63465948839E-01 -0.12038402984E-01  0.89006086664E+00  0.88000000000E+00 0.  1.
        -11    1    4    4    0    0  0.63920663883E-01  0.48047788628E-01  0.34082374165E-01  0.86927041898E-01  0.51100000000E-03 0. -1.
         11    1    4    4    0    0  0.45586834152E-01  0.23585834890E-01 -0.13517594488E-01  0.53079539723E-01  0.51100000000E-03 0.  1.
</event>
<event>
 8    1  0.2190512E+004  0.1043930E+01  0.7957747E-01            NaN
         13   -1    0    0    0    0  0.00000000000E+00  0.00000000000E+00  0.74505805969E-08  0.10566000000E+00  0.10566000000E+00 0.  1.
     999900   -1    0    0    0    0 -0.00000000000E+00 -0.00000000000E+00 -0.74505805969E-08  0.93827000000E+00  0.93827000000E+00 0. -1.
     999902    2    1    2    0    0  0.88480729563E-02 -0.87289837675E-02 -0.49423629767E-02  0.10305542569E+01  0.10304674502E+01 0.  0.
     999903    2    3    3    0    0  0.12985083100E+00 -0.22710132652E-01  0.25832848730E-01  0.14163117041E+00  0.44889463367E-01 0.  0.
         14    1    1    2    0    0 -0.88480729563E-02  0.87289837675E-02  0.49423629767E-02  0.13375743136E-01  0.00000000000E+00 0.  1.
     999901    1    3    3    0    0 -0.12100275804E+00  0.13981148884E-01 -0.30775211707E-01  0.88892308646E+00  0.88000000000E+00 0. -1.
        -11    1    4    4    0    0  0.85733656511E-01  0.53713807630E-02  0.24446455955E-01  0.89314063393E-01  0.51100000000E-03 0. -1.
         11    1    4    4    0    0  0.44117174488E-01 -0.28081513415E-01  0.13863927755E-02  0.52317107015E-01  0.51100000000E-03 0.  1.
</event>
<event>
 8    1  0.2190512E+004  0.1043930E+01  0.7957747E-01            NaN
         13   -1    0    0    0    0  0.00000000000E+00  0.00000000000E+00  0.74505805969E-08  0.10566000000E+00  0.10566000000E+00 0. -1.
     999900   -1    0    0    0    0 -0.00000000000E+00 -0.00000000000E+00 -0.74505805969E-08  0.93827000000E+00  0.93827000000E+00 0.  1.
     999902    2    1    2    0    0  0.13166154580E-01  0.28503148377E-02 -0.12342065903E-01  0.10256598464E+01  0.10254971097E+01 0.  0.
     999903    2    3    3    0    0  0.13302443023E-01 -0.10538525502E+00  0.71669411202E-01  0.13505730575E+00  0.42672759096E-01 0.  0.
         14    1    1    2    0    0 -0.13166154580E-01 -0.28503148377E-02  0.12342065903E-01  0.18270153581E-01  0.00000000000E+00 0. -1.
     999901    1    3    3    0    0 -0.13628844269E-03  0.10823556986E+00 -0.84011477106E-01  0.89060254067E+00  0.88000000000E+00 0.  1.
        -11    1    4    4    0    0  0.48259576197E-02 -0.57977107097E-01  0.13849014504E-01  0.59805444050E-01  0.51100000000E-03 0.  1.
         11    1    4    4    0    0  0.84764854031E-02 -0.47408147923E-01  0.57820396698E-01  0.75251861702E-01  0.51100000000E-03 0. -1.
</event>
<event>
 8    1  0.2190512E+004  0.1043930E+01  0.7957747E-01            NaN
         13   -1    0    0    0    0  0.00000000000E+00  0.00000000000E+00  0.74505805969E-08  0.10566000000E+00  0.10566000000E+00 0. -1.
     999900   -1    0    0    0    0 -0.00000000000E+00 -0.00000000000E+00 -0.74505805969E-08  0.93827000000E+00  0.93827000000E+00 0.  1.
     999902    2    1    2    0    0 -0.72518714517E-02 -0.92855402255E-02 -0.76137991480E-02  0.10299021408E+01  0.10298066026E+01 0.  0.
     999903    2    3    3    0    0  0.77534381379E-01  0.62952506150E-01 -0.86488086901E-01  0.13938083431E+00  0.44409790251E-01 0.  0.
         14    1    1    2    0    0  0.72518714517E-02  0.92855402255E-02  0.76137991480E-02  0.14027859220E-01  0.00000000000E+00 0. -1.
     999901    1    3    3    0    0 -0.84786252830E-01 -0.72238046375E-01  0.78874287753E-01  0.89052130647E+00  0.88000000000E+00 0. -1.
        -11    1    4    4    0    0  0.71646574037E-01  0.46981567393E-01 -0.87316662331E-01  0.12233135284E+00  0.51100000000E-03 0. -1.
         11    1    4    4    0    0  0.58878073420E-02  0.15970938757E-01  0.82857543020E-03  0.17049481468E-01  0.51100000000E-03 0.  1.
</event>
<event>
 8    1  0.2190512E+004  0.1043930E+01  0.7957747E-01            NaN
         13   -1    0    0    0    0  0.00000000000E+00  0.00000000000E+00  0.74505805969E-08  0.10566000000E+00  0.10566000000E+00 0. -1.
     999900   -1    0    0    0    0 -0.00000000000E+00 -0.00000000000E+00 -0.74505805969E-08  0.93827000000E+00  0.93827000000E+00 0.  1.
     999902    2    1    2    0    0 -0.39643468362E-02 -0.13825254111E-02  0.16240269746E-01  0.10271558001E+01  0.10270188235E+01 0.  0.
     999903    2    3    3    0    0 -0.63832125740E-01 -0.11216937617E+00 -0.17188946399E-01  0.13756297761E+00  0.44402744318E-01 0.  0.
         14    1    1    2    0    0  0.39643468362E-02  0.13825254111E-02 -0.16240269746E-01  0.16774199945E-01  0.00000000000E+00 0.  1.
     999901    1    3    3    0    0  0.59867778904E-01  0.11078685076E+00  0.33429216146E-01  0.88959282244E+00  0.88000000000E+00 0. -1.
        -11    1    4    4    0    0 -0.54744755513E-01 -0.94259514036E-01 -0.30828259599E-01  0.11328056741E+00  0.51100000000E-03 0. -1.
         11    1    4    4    0    0 -0.90873702266E-02 -0.17909862138E-01  0.13639313200E-01  0.24282410198E-01  0.51100000000E-03 0.  1.
</event>
<event>
 8    1  0.2190512E+004  0.1043930E+01  0.7957747E-01            NaN
         13   -1    0    0    0    0  0.00000000000E+00  0.00000000000E+00  0.74505805969E-08  0.10566000000E+00  0.10566000000E+00 0. -1.
     999900   -1    0    0    0    0 -0.00000000000E+00 -0.00000000000E+00 -0.74505805969E-08  0.93827000000E+00  0.93827000000E+00 0.  1.
     999902    2    1    2    0    0 -0.14096905144E-04 -0.13055729793E-01 -0.37463498349E-02  0.10303473855E+01  0.10302578548E+01 0.  0.
     999903    2    3    3    0    0  0.12018901388E-01 -0.33629871729E-02 -0.13273880110E+00  0.14080941848E+00  0.45298337089E-01 0.  0.
         14    1    1    2    0    0  0.14096905144E-04  0.13055729793E-01  0.37463498349E-02  0.13582614484E-01  0.00000000000E+00 0. -1.
     999901    1    3    3    0    0 -0.12032998294E-01 -0.96927426198E-02  0.12899245127E+00  0.88953796703E+00  0.88000000000E+00 0. -1.
        -11    1    4    4    0    0  0.16720620630E-02 -0.35426066721E-02 -0.13004360781E+00  0.13010360067E+00  0.51100000000E-03 0.  1.
         11    1    4    4    0    0  0.10346839325E-01  0.17961949925E-03 -0.26951932869E-02  0.10705817813E-01  0.51100000000E-03 0. -1.
</event>
<event>
 8    1  0.2190512E+004  0.1043930E+01  0.7957747E-01            NaN
         13   -1    0    0    0    0  0.00000000000E+00  0.00000000000E+00  0.74505805969E-08  0.10566000000E+00  0.10566000000E+00 0. -1.
     999900   -1    0    0    0    0 -0.00000000000E+00 -0.00000000000E+00 -0.74505805969E-08  0.93827000000E+00  0.93827000000E+00 0. -1.
     999902    2    1    2    0    0 -0.61647280331E-02  0.17899774259E-02  0.12664107757E-01  0.10297318481E+01  0.10296339600E+01 0.  0.
     999903    2    3    3    0    0 -0.37769126693E-01  0.12751741892E+00 -0.19538776757E-02  0.14011400150E+00  0.44055836389E-01 0.  0.
         14    1    1    2    0    0  0.61647280331E-02 -0.17899774259E-02 -0.12664107757E-01  0.14198151858E-01  0.00000000000E+00 0.  1.
     999901    1    3    3    0    0  0.31604398660E-01 -0.12572744149E+00  0.14617985433E-01  0.88961784664E+00  0.88000000000E+00 0. -1.
        -11    1    4    4    0    0 -0.22900208305E-01  0.95974579513E-01  0.17454091501E-01  0.10020202535E+00  0.51100000000E-03 0. -1.
         11    1    4    4    0    0 -0.14868918388E-01  0.31542839408E-01 -0.19407969176E-01  0.39911976154E-01  0.51100000000E-03 0.  1.
</event>
<event>
 8    1  0.2190512E+004  0.1043930E+01  0.7957747E-01            NaN
         13   -1    0    0    0    0  0.00000000000E+00  0.00000000000E+00  0.74505805969E-08  0.10566000000E+00  0.10566000000E+00 0.  1.
     999900   -1    0    0    0    0 -0.00000000000E+00 -0.00000000000E+00 -0.74505805969E-08  0.93827000000E+00  0.93827000000E+00 0.  1.
     999902    2    1    2    0    0  0.12483759366E-01 -0.64901570274E-03  0.55203441774E-02  0.10302647276E+01  0.10301740966E+01 0.  0.
     999903    2    3    3    0    0  0.61728393148E-01 -0.80455636264E-01 -0.86385812992E-01  0.14052270188E+00  0.44728258753E-01 0.  0.
         14    1    1    2    0    0 -0.12483759366E-01  0.64901570274E-03 -0.55203441774E-02  0.13665272377E-01  0.00000000000E+00 0. -1.
     999901    1    3    3    0    0 -0.49244633782E-01  0.79806620561E-01  0.91906157169E-01  0.88974202574E+00  0.88000000000E+00 0. -1.
        -11    1    4    4    0    0  0.94425066928E-02 -0.48573444157E-01 -0.35551438330E-01  0.60931980915E-01  0.51100000000E-03 0. -1.
         11    1    4    4    0    0  0.52285886455E-01 -0.31882192107E-01 -0.50834374662E-01  0.79590720968E-01  0.51100000000E-03 0.  1.
</event>
<event>
 8    1  0.2190512E+004  0.1043930E+01  0.7957747E-01            NaN
         13   -1    0    0    0    0  0.00000000000E+00  0.00000000000E+00  0.74505805969E-08  0.10566000000E+00  0.10566000000E+00 0.  1.
     999900   -1    0    0    0    0 -0.00000000000E+00 -0.00000000000E+00 -0.74505805969E-08  0.93827000000E+00  0.93827000000E+00 0.  1.
     999902    2    1    2    0    0  0.93129418675E-02  0.94233582453E-02  0.62031724223E-02  0.10293009223E+01  0.10291969582E+01 0.  0.
     999903    2    3    3    0    0  0.40559896055E-01 -0.11475663121E+00  0.49304729846E-01  0.13898929921E+00  0.45528884615E-01 0.  0.
         14    1    1    2    0    0 -0.93129418675E-02 -0.94233582453E-02 -0.62031724223E-02  0.14629077720E-01  0.00000000000E+00 0.  1.
     999901    1    3    3    0    0 -0.31246954187E-01  0.12417998945E+00 -0.43101557424E-01  0.89031162307E+00  0.88000000000E+00 0. -1.
        -11    1    4    4    0    0  0.28100427789E-02 -0.41611760493E-01 -0.24091220711E-02  0.41779180723E-01  0.51100000000E-03 0.  1.
         11    1    4    4    0    0  0.37749853276E-01 -0.73144870717E-01  0.51713851917E-01  0.97210118484E-01  0.51100000000E-03 0. -1.
</event>
<event>
 8    1  0.2190512E+004  0.1043930E+01  0.7957747E-01            NaN
         13   -1    0    0    0    0  0.00000000000E+00  0.00000000000E+00  0.74505805969E-08  0.10566000000E+00  0.10566000000E+00 0. -1.
     999900   -1    0    0    0    0 -0.00000000000E+00 -0.00000000000E+00 -0.74505805969E-08  0.93827000000E+00  0.93827000000E+00 0.  1.
     999902    2    1    2    0    0  0.25009448379E-02  0.33469309863E-02 -0.12609085703E-01  0.10306467130E+01  0.10305611099E+01 0.  0.
     999903    2    3    3    0    0  0.11216264885E-01 -0.10353225417E+00 -0.83782216224E-01  0.14128473293E+00  0.45795018877E-01 0.  0.
         14    1    1    2    0    0 -0.25009448379E-02 -0.33469309863E-02  0.12609085703E-01  0.13283287032E-01  0.00000000000E+00 0. -1.
     999901    1    3    3    0    0 -0.87153200470E-02  0.10687918515E+00  0.71173130521E-01  0.88936198003E+00  0.88000000000E+00 0. -1.
        -11    1    4    4    0    0 -0.64993503188E-02 -0.17556202482E-01 -0.37805065652E-01  0.42189405188E-01  0.51100000000E-03 0.  1.
         11    1    4    4    0    0  0.17715615204E-01 -0.85976051684E-01 -0.45977150572E-01  0.99095327746E-01  0.51100000000E-03 0. -1.
</event>
<event>
 8    1  0.2190512E+004  0.1043930E+01  0.7957747E-01            NaN
         13   -1    0    0    0    0  0.00000000000E+00  0.00000000000E+00  0.74505805969E-08  0.10566000000E+00  0.10566000000E+00 0. -1.
     999900   -1    0    0    0    0 -0.00000000000E+00 -0.00000000000E+00 -0.74505805969E-08  0.93827000000E+00  0.93827000000E+00 0.  1.
     999902    2    1    2    0    0 -0.81417409416E-02 -0.11084220189E-01 -0.76558095058E-02  0.10281896283E+01  0.10280691379E+01 0.  0.
     999903    2    3    3    0    0  0.11258741426E+00 -0.55563919299E-01 -0.38272876312E-01  0.13830683974E+00  0.43596948073E-01 0.  0.
         14    1    1    2    0    0  0.81417409416E-02  0.11084220189E-01  0.76558095058E-02  0.15740371722E-01  0.00000000000E+00 0. -1.
     999901    1    3    3    0    0 -0.12072915520E+00  0.44479699111E-01  0.30617066806E-01  0.88988278853E+00  0.88000000000E+00 0. -1.
        -11    1    4    4    0    0  0.63584864109E-01 -0.54040702540E-01 -0.29434030519E-01  0.88487602230E-01  0.51100000000E-03 0.  1.
         11    1    4    4    0    0  0.49002550151E-01 -0.15232167595E-02 -0.88388457923E-02  0.49819237515E-01  0.51100000000E-03 0. -1.
</event>
<event>
 8    1  0.2190512E+004  0.1043930E+01  0.7957747E-01            NaN
         13   -1    0    0    0    0  0.00000000000E+00  0.00000000000E+00  0.74505805969E-08  0.10566000000E+00  0.10566000000E+00 0. -1.
     999900   -1    0    0    0    0 -0.00000000000E+00 -0.00000000000E+00 -0.74505805969E-08  0.93827000000E+00  0.93827000000E+00 0.  1.
     999902    2    1    2    0    0  0.48843895697E-02  0.11364573707E-01  0.59847624220E-02  0.10301885234E+01  0.10300968720E+01 0.  0.
     999903    2    3    3    0    0 -0.10704207454E+00 -0.37157610341E-01 -0.66052351861E-01  0.13885733832E+00  0.45604314397E-01 0.  0.
         14    1    1    2    0    0 -0.48843895697E-02 -0.11364573707E-01 -0.59847624220E-02  0.13741476568E-01  0.00000000000E+00 0.  1.
     999901    1    3    3    0    0  0.11192646411E+00  0.48522184048E-01  0.72037114283E-01  0.89133118511E+00  0.88000000000E+00 0. -1.
        -11    1    4    4    0    0 -0.67527116320E-01 -0.11620953503E-01 -0.60630710776E-01  0.91494820668E-01  0.51100000000E-03 0.  1.
         11    1    4    4    0    0 -0.39514958221E-01 -0.25536656838E-01 -0.54216410851E-02  0.47362517656E-01  0.51100000000E-03 0. -1.
</event>
<event>
 8    1  0.2190512E+004  0.1043930E+01  0.7957747E-01            NaN
         13   -1    0    0    0    0  0.00000000000E+00  0.00000000000E+00  0.74505805969E-08  0.10566000000E+00  0.10566000000E+00 0.  1.
     999900   -1    0    0    0    0 -0.00000000000E+00 -0.00000000000E+00 -0.74505805969E-08  0.93827000000E+00  0.93827000000E+00 0.  1.
     999902    2    1    2    0    0  0.75746995575E-02 -0.12219304715E-01  0.28620261808E-02  0.10292712594E+01  0.10291668703E+01 0.  0.
     999903    2    3    3    0    0 -0.70927250189E-01  0.21362688316E-01  0.10787194511E+00  0.13892447899E+00  0.46654207197E-01 0.  0.
         14    1    1    2    0    0 -0.75746995575E-02  0.12219304715E-01 -0.28620261808E-02  0.14658740566E-01  0.00000000000E+00 0.  1.
     999901    1    3    3    0    0  0.78501949747E-01 -0.33581993031E-01 -0.10500991893E+00  0.89034678044E+00  0.88000000000E+00 0. -1.
        -11    1    4    4    0    0 -0.28825665096E-01  0.32927757744E-01  0.57521841647E-01  0.72278486327E-01  0.51100000000E-03 0. -1.
         11    1    4    4    0    0 -0.42101585093E-01 -0.11565069428E-01  0.50350103467E-01  0.66645992665E-01  0.51100000000E-03 0.  1.
</event>
<event>
 8    1  0.2190512E+004  0.1043930E+01  0.7957747E-01            NaN
         13   -1    0    0    0    0  0.00000000000E+00  0.00000000000E+00  0.74505805969E-08  0.10566000000E+00  0.10566000000E+00 0.  1.
     999900   -1    0    0    0    0 -0.00000000000E+00 -0.00000000000E+00 -0.74505805969E-08  0.93827000000E+00  0.93827000000E+00 0.  1.
     999902    2    1    2    0    0 -0.13751726394E-01  0.71762652367E-03  0.20284792049E-02  0.10300109593E+01  0.10299169076E+01 0.  0.
     999903    2    3    3    0    0 -0.57744743512E-01  0.11414021491E+00 -0.37923531448E-01  0.14074371471E+00  0.44812441680E-01 0.  0.
         14    1    1    2    0    0  0.13751726394E-01 -0.71762652367E-03 -0.20284792049E-02  0.13919040719E-01  0.00000000000E+00 0. -1.
     999901    1    3    3    0    0  0.43993017117E-01 -0.11342258839E+00  0.39952010653E-01  0.88926724457E+00  0.88000000000E+00 0. -1.
        -11    1    4    4    0    0 -0.64142916261E-03  0.31687332702E-01 -0.23402102427E-01  0.39400736086E-01  0.51100000000E-03 0. -1.
         11    1    4    4    0    0 -0.57103314349E-01  0.82452882211E-01 -0.14521429021E-01  0.10134297862E+00  0.51100000000E-03 0.  1.
</event>
<event>
 8    1  0.2190512E+004  0.1043930E+01  0.7957747E-01            NaN
         13   -1    0    0    0    0  0.00000000000E+00  0.00000000000E+00  0.74505805969E-08  0.10566000000E+00  0.10566000000E+00 0. -1.
     999900   -1    0    0    0    0 -0.00000000000E+00 -0.00000000000E+00 -0.74505805969E-08  0.93827000000E+00  0.93827000000E+00 0. -1.
     999902    2    1    2    0    0 -0.12237560340E-01 -0.73553543101E-02  0.36653402668E-02  0.10291891100E+01  0.10290835390E+01 0.  0.
     999903    2    3    3    0    0 -0.12868133245E+00  0.24620338460E-01  0.23836854219E-01  0.14071373778E+00  0.45465525336E-01 0.  0.
         14    1    1    2    0    0  0.12237560340E-01  0.73553543101E-02 -0.36653402668E-02  0.14740890046E-01  0.00000000000E+00 0. -1.
     999901    1    3    3    0    0  0.11644377211E+00 -0.31975692770E-01 -0.20171513952E-01  0.88847537218E+00  0.88000000000E+00 0. -1.
        -11    1    4    4    0    0 -0.77493111760E-01  0.37133762687E-01  0.16603129010E-01  0.87521561432E-01  0.51100000000E-03 0. -1.
         11    1    4    4    0    0 -0.51188220686E-01 -0.12513424227E-01  0.72337252094E-02  0.53192176344E-01  0.51100000000E-03 0.  1.
</event>
<event>
 8    1  0.2190512E+004  0.1043930E+01  0.7957747E-01            NaN
         13   -1    0    0    0    0  0.00000000000E+00  0.00000000000E+00  0.74505805969E-08  0.10566000000E+00  0.10566000000E+00 0. -1.
     999900   -1    0    0    0    0 -0.00000000000E+00 -0.00000000000E+00 -0.74505805969E-08  0.93827000000E+00  0.93827000000E+00 0. -1.
     999902    2    1    2    0    0 -0.11261227138E-01 -0.14610000491E-02 -0.41364756508E-02  0.10318444637E+01  0.10317736850E+01 0.  0.
     999903    2    3    3    0    0 -0.68551224582E-01  0.13403132712E-01  0.11486532764E+00  0.14186439903E+00  0.45305075437E-01 0.  0.
         14    1    1    2    0    0  0.11261227138E-01  0.14610000491E-02  0.41364756508E-02  0.12085536340E-01  0.00000000000E+00 0. -1.
     999901    1    3    3    0    0  0.57289997444E-01 -0.14864132761E-01 -0.11900180329E+00  0.88998006463E+00  0.88000000000E+00 0. -1.
        -11    1    4    4    0    0 -0.57226956686E-02 -0.13627279742E-01  0.22676720584E-01  0.27072989793E-01  0.51100000000E-03 0.  1.
         11    1    4    4    0    0 -0.62828528914E-01  0.27030412454E-01  0.92188607057E-01  0.11479140924E+00  0.51100000000E-03 0. -1.
</event>
<event>
 8    1  0.2190512E+004  0.1043930E+01  0.7957747E-01            NaN
         13   -1    0    0    0    0  0.00000000000E+00  0.00000000000E+00  0.74505805969E-08  0.10566000000E+00  0.10566000000E+00 0. -1.
     999900   -1    0    0    0    0 -0.00000000000E+00 -0.00000000000E+00 -0.74505805969E-08  0.93827000000E+00  0.93827000000E+00 0. -1.
     999902    2    1    2    0    0 -0.22947746146E-02 -0.20259847219E-02 -0.14958269420E-01  0.10286617182E+01  0.10285483995E+01 0.  0.
     999903    2    3    3    0    0  0.10623967130E+00 -0.10707874945E-01  0.70372811707E-01  0.13785506435E+00  0.51479702742E-01 0.  0.
         14    1    1    2    0    0  0.22947746146E-02  0.20259847219E-02  0.14958269420E-01  0.15268281785E-01  0.00000000000E+00 0. -1.
     999901    1    3    3    0    0 -0.10853444592E+00  0.86818902234E-02 -0.85331081127E-01  0.89080665387E+00  0.88000000000E+00 0. -1.
        -11    1    4    4    0    0  0.55777298778E-01 -0.26482342055E-01  0.55263138544E-01  0.82865536277E-01  0.51100000000E-03 0.  1.
         11    1    4    4    0    0  0.50462372524E-01  0.15774467110E-01  0.15109673163E-01  0.54989528070E-01  0.51100000000E-03 0. -1.
</event>
<event>
 8    1  0.2190512E+004  0.1043930E+01  0.7957747E-01            NaN
         13   -1    0    0    0    0  0.00000000000E+00  0.00000000000E+00  0.74505805969E-08  0.10566000000E+00  0.10566000000E+00 0. -1.
     999900   -1    0    0    0    0 -0.00000000000E+00 -0.00000000000E+00 -0.74505805969E-08  0.93827000000E+00  0.93827000000E+00 0.  1.
     999902    2    1    2    0    0 -0.30470286665E-05 -0.28385569210E-02  0.13301707014E-01  0.10303287933E+01  0.10302390157E+01 0.  0.
     999903    2    3    3    0    0 -0.97030406981E-01  0.78911501756E-01 -0.42251803363E-01  0.13949571510E+00  0.45076764025E-01 0.  0.
         14    1    1    2    0    0  0.30470286665E-05  0.28385569210E-02 -0.13301707014E-01  0.13601206717E-01  0.00000000000E+00 0.  1.
     999901    1    3    3    0    0  0.97027359953E-01 -0.81750058677E-01  0.55553510376E-01  0.89083307818E+00  0.88000000000E+00 0. -1.
        -11    1    4    4    0    0 -0.66207690717E-01  0.33042081178E-01 -0.40155882367E-01  0.84190221809E-01  0.51100000000E-03 0.  1.
         11    1    4    4    0    0 -0.30822716265E-01  0.45869420579E-01 -0.20959209959E-02  0.55305493290E-01  0.51100000000E-03 0. -1.
</event>
<event>
 8    1  0.2190512E+004  0.1043930E+01  0.7957747E-01            NaN
         13   -1    0    0    0    0  0.00000000000E+00  0.00000000000E+00  0.74505805969E-08  0.10566000000E+00  0.10566000000E+00 0.  1.
     999900   -1    0    0    0    0 -0.00000000000E+00 -0.00000000000E+00 -0.74505805969E-08  0.93827000000E+00  0.93827000000E+00 0. -1.
     999902    2    1    2    0    0  0.14160826255E-01  0.60246420684E-02 -0.20762956283E-02  0.10284014355E+01  0.10282841904E+01 0.  0.
     999903    2    3    3    0    0 -0.37789668209E-01 -0.11831884375E+00  0.34947136208E-01  0.13737343882E+00  0.47146066164E-01 0.  0.
         14    1    1    2    0    0 -0.14160826255E-01 -0.60246420684E-02  0.20762956283E-02  0.15528564512E-01  0.00000000000E+00 0.  1.
     999901    1    3    3    0    0  0.51950494464E-01  0.12434348582E+00 -0.37023431836E-01  0.89102799667E+00  0.88000000000E+00 0. -1.
        -11    1    4    4    0    0 -0.29629573844E-01 -0.42316131149E-01 -0.35557908315E-02  0.51782925478E-01  0.51100000000E-03 0. -1.
         11    1    4    4    0    0 -0.81600943645E-02 -0.76002712600E-01  0.38502927040E-01  0.85590513342E-01  0.51100000000E-03 0.  1.
</event>
<event>
 8    1  0.2190512E+004  0.1043930E+01  0.7957747E-01            NaN
         13   -1    0    0    0    0  0.00000000000E+00  0.00000000000E+00  0.74505805969E-08  0.10566000000E+00  0.10566000000E+00 0.  1.
     999900   -1    0    0    0    0 -0.00000000000E+00 -0.00000000000E+00 -0.74505805969E-08  0.93827000000E+00  0.93827000000E+00 0.  1.
     999902    2    1    2    0    0 -0.75630580724E-02  0.65468932970E-02 -0.97936967650E-02  0.10299307802E+01  0.10298356344E+01 0.  0.
     999903    2    3    3    0    0 -0.31221046776E-01  0.81013403727E-01 -0.10239932678E+00  0.14162859943E+00  0.45112223480E-01 0.  0.
         14    1    1    2    0    0  0.75630580724E-02 -0.65468932970E-02  0.97936967650E-02  0.13999219820E-01  0.00000000000E+00 0.  1.
     999901    1    3    3    0    0  0.23657988704E-01 -0.74466510430E-01  0.92605630017E-01  0.88830218074E+00  0.88000000000E+00 0. -1.
        -11    1    4    4    0    0 -0.25074965043E-01  0.76179622602E-01 -0.64479187092E-01  0.10290731490E+00  0.51100000000E-03 0. -1.
         11    1    4    4    0    0 -0.61460817329E-02  0.48337811247E-02 -0.37920139690E-01  0.38721284531E-01  0.51100000000E-03 0.  1.
</event>
<event>
 8    1  0.2190512E+004  0.1043930E+01  0.7957747E-01            NaN
         13   -1    0    0    0    0  0.00000000000E+00  0.00000000000E+00  0.74505805969E-08  0.10566000000E+00  0.10566000000E+00 0.  1.
     999900   -1    0    0    0    0 -0.00000000000E+00 -0.00000000000E+00 -0.74505805969E-08  0.93827000000E+00  0.93827000000E+00 0.  1.
     999902    2    1    2    0    0 -0.13057555474E-01  0.33833204918E-02  0.14285945876E-02  0.10303658010E+01  0.10302765145E+01 0.  0.
     999903    2    3    3    0    0  0.11190045782E+00 -0.51742312874E-01  0.44982259806E-01  0.13876596793E+00  0.45095573588E-01 0.  0.
         14    1    1    2    0    0  0.13057555474E-01 -0.33833204918E-02 -0.14285945876E-02  0.13564199018E-01  0.00000000000E+00 0. -1.
     999901    1    3    3    0    0 -0.12495801329E+00  0.55125633365E-01 -0.43553665219E-01  0.89159983305E+00  0.88000000000E+00 0.  1.
        -11    1    4    4    0    0  0.48394884591E-01 -0.42184252948E-01  0.36863112981E-01  0.74031927376E-01  0.51100000000E-03 0. -1.
         11    1    4    4    0    0  0.63505573228E-01 -0.95580599261E-02  0.81191468252E-02  0.64734040557E-01  0.51100000000E-03 0.  1.
</event>
<event>
 8    1  0.2190512E+004  0.1043930E+01  0.7957747E-01            NaN
         13   -1    0    0    0    0  0.00000000000E+00  0.00000000000E+00  0.74505805969E-08  0.10566000000E+00  0.10566000000E+00 0.  1.
     999900   -1    0    0    0    0 -0.00000000000E+00 -0.00000000000E+00 -0.74505805969E-08  0.93827000000E+00  0.93827000000E+00 0.  1.
     999902    2    1    2    0    0  0.23597374746E-02 -0.97443553465E-02  0.10165946941E-01  0.10296517894E+01  0.10295527864E+01 0.  0.
     999903    2    3    3    0    0 -0.79667765326E-01  0.94606885233E-01 -0.42272000533E-01  0.13815449213E+00  0.44747358585E-01 0.  0.
         14    1    1    2    0    0 -0.23597374746E-02  0.97443553465E-02 -0.10165946941E-01  0.14278210647E-01  0.00000000000E+00 0. -1.
     999901    1    3    3    0    0  0.82027502800E-01 -0.10435124058E+00  0.52437947474E-01  0.89149729723E+00  0.88000000000E+00 0.  1.
        -11    1    4    4    0    0 -0.76717144401E-02  0.40607768399E-01 -0.97765754922E-02  0.42469855264E-01  0.51100000000E-03 0. -1.
         11    1    4    4    0    0 -0.71996050886E-01  0.53999116833E-01 -0.32495425041E-01  0.95684636862E-01  0.51100000000E-03 0.  1.
</event>
<event>
 8    1  0.2190512E+004  0.1043930E+01  0.7957747E-01            NaN
         13   -1    0    0    0    0  0.00000000000E+00  0.00000000000E+00  0.74505805969E-08  0.10566000000E+00  0.10566000000E+00 0. -1.
     999900   -1    0    0    0    0 -0.00000000000E+00 -0.00000000000E+00 -0.74505805969E-08  0.93827000000E+00  0.93827000000E+00 0. -1.
     999902    2    1    2    0    0  0.12330000556E-01 -0.46558393545E-03  0.44169883085E-02  0.10308244490E+01  0.10307411358E+01 0.  0.
     999903    2    3    3    0    0 -0.49719327682E-01 -0.65636871657E-01 -0.10348759687E+00  0.13967866102E+00  0.44947026284E-01 0.  0.
         14    1    1    2    0    0 -0.12330000556E-01  0.46558393545E-03 -0.44169883085E-02  0.13105551031E-01  0.00000000000E+00 0.  1.
     999901    1    3    3    0    0  0.62049328239E-01  0.65171287721E-01  0.10790458518E+00  0.89114578795E+00  0.88000000000E+00 0.  1.
        -11    1    4    4    0    0 -0.30689606748E-01 -0.61613150857E-02 -0.36867250476E-01  0.48365990578E-01  0.51100000000E-03 0. -1.
         11    1    4    4    0    0 -0.19029720935E-01 -0.59475556571E-01 -0.66620346395E-01  0.91312670441E-01  0.51100000000E-03 0.  1.
</event>
<event>
 8    1  0.2190512E+004  0.1043930E+01  0.7957747E-01            NaN
         13   -1    0    0    0    0  0.00000000000E+00  0.00000000000E+00  0.74505805969E-08  0.10566000000E+00  0.10566000000E+00 0.  1.
     999900   -1    0    0    0    0 -0.00000000000E+00 -0.00000000000E+00 -0.74505805969E-08  0.93827000000E+00  0.93827000000E+00 0.  1.
     999902    2    1    2    0    0  0.68479249346E-02  0.65456214741E-02 -0.98400430692E-02  0.10302710951E+01  0.10301805491E+01 0.  0.
     999903    2    3    3    0    0 -0.11277618779E+00  0.68499890045E-01 -0.12674365103E-01  0.14001478752E+00  0.45086558153E-01 0.  0.
         14    1    1    2    0    0 -0.68479249346E-02 -0.65456214741E-02  0.98400430692E-02  0.13658904934E-01  0.00000000000E+00 0.  1.
     999901    1    3    3    0    0  0.11962411272E+00 -0.61954268571E-01  0.28343220342E-02  0.89025630754E+00  0.88000000000E+00 0. -1.
        -11    1    4    4    0    0 -0.88605821566E-01  0.36780453819E-01 -0.23329885189E-01  0.98733672384E-01  0.51100000000E-03 0.  1.
         11    1    4    4    0    0 -0.24170366222E-01  0.31719436227E-01  0.10655520085E-01  0.41281115139E-01  0.51100000000E-03 0. -1.
</event>
<event>
 8    1  0.2190512E+004  0.1043930E+01  0.7957747E-01            NaN
         13   -1    0    0    0    0  0.00000000000E+00  0.00000000000E+00  0.74505805969E-08  0.10566000000E+00  0.10566000000E+00 0.  1.
     999900   -1    0    0    0    0 -0.00000000000E+00 -0.00000000000E+00 -0.74505805969E-08  0.93827000000E+00  0.93827000000E+00 0.  1.
     999902    2    1    2    0    0  0.13755533506E-01  0.27000110945E-02 -0.88091600898E-03  0.10298843325E+01  0.10297885499E+01 0.  0.
     999903    2    3    3    0    0  0.96101186033E-02 -0.12895289110E+00 -0.27972681680E-01  0.13966883339E+00  0.44762814916E-01 0.  0.
         14    1    1    2    0    0 -0.13755533506E-01 -0.27000110945E-02  0.88091600898E-03  0.14045667480E-01  0.00000000000E+00 0. -1.
     999901    1    3    3    0    0  0.41454149029E-02  0.13165290219E+00  0.27091765671E-01  0.89021549913E+00  0.88000000000E+00 0. -1.
        -11    1    4    4    0    0 -0.46190043531E-02 -0.11956480692E+00 -0.22456169547E-01  0.12174407142E+00  0.51100000000E-03 0.  1.
         11    1    4    4    0    0  0.14229122956E-01 -0.93880841806E-02 -0.55165121329E-02  0.17924761973E-01  0.51100000000E-03 0. -1.
</event>
<event>
 8    1  0.2190512E+004  0.1043930E+01  0.7957747E-01            NaN
         13   -1    0    0    0    0  0.00000000000E+00  0.00000000000E+00  0.74505805969E-08  0.10566000000E+00  0.10566000000E+00 0. -1.
     999900   -1    0    0    0    0 -0.00000000000E+00 -0.00000000000E+00 -0.74505805969E-08  0.93827000000E+00  0.93827000000E+00 0. -1.
     999902    2    1    2    0    0  0.30835247729E-04  0.10336807472E-01 -0.85120565462E-02  0.10305394942E+01  0.10304524945E+01 0.  0.
     999903    2    3    3    0    0  0.22228232822E-01  0.56979149079E-01  0.11763687084E+00  0.14004424749E+00  0.45091463824E-01 0.  0.
         14    1    1    2    0    0 -0.30835247729E-04 -0.10336807472E-01  0.85120565462E-02  0.13390505822E-01  0.00000000000E+00 0. -1.
     999901    1    3    3    0    0 -0.22197397575E-01 -0.46642341607E-01 -0.12614892739E+00  0.89049524669E+00  0.88000000000E+00 0. -1.
        -11    1    4    4    0    0  0.60449110513E-02  0.12706081910E-01  0.75545973022E-01  0.76846864789E-01  0.51100000000E-03 0.  1.
         11    1    4    4    0    0  0.16183321771E-01  0.44273067169E-01  0.42090897820E-01  0.63197382702E-01  0.51100000000E-03 0. -1.
</event>
<event>
 8    1  0.2190512E+004  0.1043930E+01  0.7957747E-01            NaN
         13   -1    0    0    0    0  0.00000000000E+00  0.00000000000E+00  0.74505805969E-08  0.10566000000E+00  0.10566000000E+00 0.  1.
     999900   -1    0    0    0    0 -0.00000000000E+00 -0.00000000000E+00 -0.74505805969E-08  0.93827000000E+00  0.93827000000E+00 0. -1.
     999902    2    1    2    0    0 -0.85856583696E-02  0.11924000573E-01 -0.41478161213E-02  0.10286623971E+01  0.10285490885E+01 0.  0.
     999903    2    3    3    0    0 -0.18925007607E-01  0.11032466699E+00 -0.72518874686E-01  0.14048212547E+00  0.44119749904E-01 0.  0.
         14    1    1    2    0    0  0.85856583696E-02 -0.11924000573E-01  0.41478161213E-02  0.15267602886E-01  0.00000000000E+00 0.  1.
     999901    1    3    3    0    0  0.10339349237E-01 -0.98400666413E-01  0.68371058565E-01  0.88818027165E+00  0.88000000000E+00 0.  1.
        -11    1    4    4    0    0 -0.26170384219E-01  0.90675137300E-01 -0.41610785833E-01  0.10314353180E+00  0.51100000000E-03 0.  1.
         11    1    4    4    0    0  0.72453766123E-02  0.19649529686E-01 -0.30908088853E-01  0.37338593662E-01  0.51100000000E-03 0. -1.
</event>
<event>
 8    1  0.2190512E+004  0.1043930E+01  0.7957747E-01            NaN
         13   -1    0    0    0    0  0.00000000000E+00  0.00000000000E+00  0.74505805969E-08  0.10566000000E+00  0.10566000000E+00 0.  1.
     999900   -1    0    0    0    0 -0.00000000000E+00 -0.00000000000E+00 -0.74505805969E-08  0.93827000000E+00  0.93827000000E+00 0. -1.
     999902    2    1    2    0    0 -0.37373628663E-02 -0.49111040752E-02  0.12337397739E-01  0.10301351384E+01  0.10300427686E+01 0.  0.
     999903    2    3    3    0    0 -0.60625834924E-01 -0.36371402772E-01 -0.11090546585E+00  0.13917225919E+00  0.45503017181E-01 0.  0.
         14    1    1    2    0    0  0.37373628663E-02  0.49111040752E-02 -0.12337397739E-01  0.13794861631E-01  0.00000000000E+00 0. -1.
     999901    1    3    3    0    0  0.56888472058E-01  0.31460298696E-01  0.12324286359E+00  0.89096287918E+00  0.88000000000E+00 0.  1.
        -11    1    4    4    0    0 -0.24640498206E-01  0.48753393209E-02 -0.57254990140E-01  0.62524540001E-01  0.51100000000E-03 0. -1.
         11    1    4    4    0    0 -0.35985336718E-01 -0.41246742092E-01 -0.53650475713E-01  0.76647719191E-01  0.51100000000E-03 0.  1.
</event>
<event>
 8    1  0.2190512E+004  0.1043930E+01  0.7957747E-01            NaN
         13   -1    0    0    0    0  0.00000000000E+00  0.00000000000E+00  0.74505805969E-08  0.10566000000E+00  0.10566000000E+00 0.  1.
     999900   -1    0    0    0    0 -0.00000000000E+00 -0.00000000000E+00 -0.74505805969E-08  0.93827000000E+00  0.93827000000E+00 0.  1.
     999902    2    1    2    0    0 -0.80323204673E-02  0.77551319407E-02 -0.67848682995E-02  0.10308649825E+01  0.10307821872E+01 0.  0.
     999903    2    3    3    0    0  0.51514402898E-02  0.13349236997E+00  0.93517485018E-02  0.14168330539E+00  0.46259633016E-01 0.  0.
         14    1    1    2    0    0  0.80323204673E-02 -0.77551319407E-02  0.67848682995E-02  0.13065017465E-01  0.00000000000E+00 0.  1.
     999901    1    3    3    0    0 -0.13183760757E-01 -0.12573723803E+00 -0.16136616801E-01  0.88918167715E+00  0.88000000000E+00 0.  1.
        -11    1    4    4    0    0 -0.13981212055E-01  0.11080907465E+00  0.68388587270E-02  0.11189797328E+00  0.51100000000E-03 0. -1.
         11    1    4    4    0    0  0.19132652345E-01  0.22683295328E-01  0.25128897749E-02  0.29785332107E-01  0.51100000000E-03 0.  1.
</event>
<event>
 7    1  0.2190512E+004  0.1043930E+01  0.7957747E-01            NaN
         13   -1    0    0    0    0  0.00000000000E+00  0.00000000000E+00  0.74505805969E-08  0.10566000000E+00  0.10566000000E+00 0. -1.
     999900   -1    0    0    0    0 -0.00000000000E+00 -0.00000000000E+00 -0.74505805969E-08  0.93827000000E+00  0.93827000000E+00 0. -1.
     999903    2    1    2    0    0 -0.10703013052E+00 -0.10294640747E-01  0.61231042101E-03  0.11655676821E+00  0.44985295633E-01 0.  0.
         14    1    1    2    0    0 -0.33604043441E-01  0.75521431921E-02 -0.10954635048E-01  0.36142366157E-01  0.00000000000E+00 0. -1.
     999901    1    1    2    0    0  0.14063417397E+00  0.27424975546E-02  0.10342324627E-01  0.89123086563E+00  0.88000000000E+00 0.  1.
        -11    1    3    3    0    0 -0.72503522218E-01 -0.20730627161E-02 -0.20347350834E-01  0.75334813533E-01  0.51100000000E-03 0. -1.
         11    1    3    3    0    0 -0.34526608305E-01 -0.82215780306E-02  0.20959661255E-01  0.41221954676E-01  0.51100000000E-03 0.  1.
</event>
<event>
 8    1  0.2190512E+004  0.1043930E+01  0.7957747E-01            NaN
         13   -1    0    0    0    0  0.00000000000E+00  0.00000000000E+00  0.74505805969E-08  0.10566000000E+00  0.10566000000E+00 0.  1.
     999900   -1    0    0    0    0 -0.00000000000E+00 -0.00000000000E+00 -0.74505805969E-08  0.93827000000E+00  0.93827000000E+00 0.  1.
     999902    2    1    2    0    0 -0.16149684014E-02 -0.70960911684E-02 -0.97035394300E-02  0.10318006426E+01  0.10317293467E+01 0.  0.
     999903    2    3    3    0    0  0.11728693848E+00  0.17322808084E-01  0.60957710499E-01  0.14066262955E+00  0.44875686803E-01 0.  0.
         14    1    1    2    0    0  0.16149684014E-02  0.70960911684E-02  0.97035394300E-02  0.12129357373E-01  0.00000000000E+00 0.  1.
     999901    1    3    3    0    0 -0.11890190688E+00 -0.24418899252E-01 -0.70661249929E-01  0.89113801307E+00  0.88000000000E+00 0.  1.
        -11    1    4    4    0    0  0.63698412837E-01  0.31386704435E-01  0.39398038185E-01  0.81210095105E-01  0.51100000000E-03 0. -1.
         11    1    4    4    0    0  0.53588525643E-01 -0.14063896351E-01  0.21559672314E-01  0.59452534450E-01  0.51100000000E-03 0.  1.
</event>
<event>
 8    1  0.2190512E+004  0.1043930E+01  0.7957747E-01            NaN
         13   -1    0    0    0    0  0.00000000000E+00  0.00000000000E+00  0.74505805969E-08  0.10566000000E+00  0.10566000000E+00 0. -1.
     999900   -1    0    0    0    0 -0.00000000000E+00 -0.00000000000E+00 -0.74505805969E-08  0.93827000000E+00  0.93827000000E+00 0. -1.
     999902    2    1    2    0    0 -0.11717019317E-01 -0.74153818743E-02 -0.21464877791E-02  0.10298984698E+01  0.10298028813E+01 0.  0.
     999903    2    3    3    0    0  0.17837712495E-01 -0.13047697835E+00 -0.21295924268E-01  0.14063791202E+00  0.44531786849E-01 0.  0.
         14    1    1    2    0    0  0.11717019317E-01  0.74153818743E-02  0.21464877791E-02  0.14031530201E-01  0.00000000000E+00 0. -1.
     999901    1    3    3    0    0 -0.29554731812E-01  0.12306159648E+00  0.19149436489E-01  0.88926055778E+00  0.88000000000E+00 0.  1.
        -11    1    4    4    0    0  0.31561936050E-01 -0.82407515526E-01 -0.20699267641E-01  0.90641465259E-01  0.51100000000E-03 0.  1.
         11    1    4    4    0    0 -0.13724223555E-01 -0.48069462828E-01 -0.59665662657E-03  0.49996446763E-01  0.51100000000E-03 0. -1.
</event>
<event>
 8    1  0.2190512E+004  0.1043930E+01  0.7957747E-01            NaN
         13   -1    0    0    0    0  0.00000000000E+00  0.00000000000E+00  0.74505805969E-08  0.10566000000E+00  0.10566000000E+00 0. -1.
     999900   -1    0    0    0    0 -0.00000000000E+00 -0.00000000000E+00 -0.74505805969E-08  0.93827000000E+00  0.93827000000E+00 0. -1.
     999902    2    1    2    0    0  0.12580678823E-01  0.11721335777E-02  0.52623215252E-02  0.10302428014E+01  0.10301518774E+01 0.  0.
     999903    2    3    3    0    0 -0.58247912220E-01  0.95081298886E-01 -0.70312009676E-01  0.13920570895E+00  0.44734528327E-01 0.  0.
         14    1    1    2    0    0 -0.12580678823E-01 -0.11721335777E-02 -0.52623215252E-02  0.13687198567E-01  0.00000000000E+00 0.  1.
     999901    1    3    3    0    0  0.70828591043E-01 -0.93909165308E-01  0.75574331202E-01  0.89103709248E+00  0.88000000000E+00 0.  1.
        -11    1    4    4    0    0 -0.35277578220E-01  0.61335672526E-01 -0.68278966323E-01  0.98330313802E-01  0.51100000000E-03 0. -1.
         11    1    4    4    0    0 -0.22970334001E-01  0.33745626359E-01 -0.20330433532E-02  0.40875395151E-01  0.51100000000E-03 0.  1.
</event>
<event>
 8    1  0.2395680E+004  0.1043930E+01  0.7957747E-01            NaN
         13   -1    0    0    0    0  0.00000000000E+00  0.00000000000E+00  0.74505805969E-08  0.10566000000E+00  0.10566000000E+00 0. -1.
     999900   -1    0    0    0    0 -0.00000000000E+00 -0.00000000000E+00 -0.74505805969E-08  0.93827000000E+00  0.93827000000E+00 0. -1.
     999902    2    1    2    0    0  0.12837147846E-01  0.59813126319E-03  0.55614893538E-02  0.10299271328E+01  0.10298319371E+01 0.  0.
     999903    2    3    3    0    0 -0.70801764453E-01  0.53979704515E-01 -0.95902459958E-01  0.13855740423E+00  0.45543101469E-01 0.  0.
         14    1    1    2    0    0 -0.12837147846E-01 -0.59813126319E-03 -0.55614893538E-02  0.14002867194E-01  0.00000000000E+00 0. -1.
     999901    1    3    3    0    0  0.83638912299E-01 -0.53381573252E-01  0.10146394931E+00  0.89136972858E+00  0.88000000000E+00 0. -1.
        -11    1    4    4    0    0 -0.10319223511E-01  0.30071581955E-01 -0.48835471617E-01  0.58274787208E-01  0.51100000000E-03 0.  1.
         11    1    4    4    0    0 -0.60482540942E-01  0.23908122560E-01 -0.47066988341E-01  0.80282617021E-01  0.51100000000E-03 0. -1.
</event>
<event>
 8    1  0.2190512E+004  0.1043930E+01  0.7957747E-01            NaN
         13   -1    0    0    0    0  0.00000000000E+00  0.00000000000E+00  0.74505805969E-08  0.10566000000E+00  0.10566000000E+00 0.  1.
     999900   -1    0    0    0    0 -0.00000000000E+00 -0.00000000000E+00 -0.74505805969E-08  0.93827000000E+00  0.93827000000E+00 0.  1.
     999902    2    1    2    0    0  0.71514070468E-03 -0.10926882342E-01 -0.92687926818E-02  0.10295836171E+01  0.10294836599E+01 0.  0.
     999903    2    3    3    0    0  0.11276169959E+00 -0.35118414953E-01  0.59223164086E-01  0.13951013153E+00  0.44801670421E-01 0.  0.
         14    1    1    2    0    0 -0.71514070468E-03  0.10926882342E-01  0.92687926818E-02  0.14346382880E-01  0.00000000000E+00 0.  1.
     999901    1    3    3    0    0 -0.11204655888E+00  0.24191532611E-01 -0.68491956768E-01  0.89007348559E+00  0.88000000000E+00 0.  1.
        -11    1    4    4    0    0  0.95438210999E-01 -0.28031614865E-01  0.66246961437E-01  0.11951211056E+00  0.51100000000E-03 0.  1.
         11    1    4    4    0    0  0.17323488588E-01 -0.70868000887E-02 -0.70237973510E-02  0.19998020967E-01  0.51100000000E-03 0. -1.
</event>
<event>
 8    1  0.2190512E+004  0.1043930E+01  0.7957747E-01            NaN
         13   -1    0    0    0    0  0.00000000000E+00  0.00000000000E+00  0.74505805969E-08  0.10566000000E+00  0.10566000000E+00 0.  1.
     999900   -1    0    0    0    0 -0.00000000000E+00 -0.00000000000E+00 -0.74505805969E-08  0.93827000000E+00  0.93827000000E+00 0.  1.
     999902    2    1    2    0    0 -0.12431049166E-01 -0.54576345321E-02  0.18231096660E-02  0.10302318072E+01  0.10301407360E+01 0.  0.
     999903    2    3    3    0    0 -0.54614321595E-01 -0.12247653826E+00 -0.65973430838E-02  0.14144400554E+00  0.44493316574E-01 0.  0.
         14    1    1    2    0    0  0.12431049166E-01  0.54576345321E-02 -0.18231096660E-02  0.13698192833E-01  0.00000000000E+00 0. -1.
     999901    1    3    3    0    0  0.42183272429E-01  0.11701890373E+00  0.84204527498E-02  0.88878780163E+00  0.88000000000E+00 0. -1.
        -11    1    4    4    0    0 -0.34014845471E-01 -0.27378015569E-01 -0.64329822444E-02  0.44138529999E-01  0.51100000000E-03 0. -1.
         11    1    4    4    0    0 -0.20599476123E-01 -0.95098522689E-01 -0.16436083939E-03  0.97305475538E-01  0.51100000000E-03 0.  1.
</event>
<event>
 8    1  0.2190512E+004  0.1043930E+01  0.7957747E-01            NaN
         13   -1    0    0    0    0  0.00000000000E+00  0.00000000000E+00  0.74505805969E-08  0.10566000000E+00  0.10566000000E+00 0. -1.
     999900   -1    0    0    0    0 -0.00000000000E+00 -0.00000000000E+00 -0.74505805969E-08  0.93827000000E+00  0.93827000000E+00 0. -1.
     999902    2    1    2    0    0 -0.77967354520E-02  0.99517061553E-02 -0.51736539463E-02  0.10302701232E+01  0.10301795642E+01 0.  0.
     999903    2    3    3    0    0 -0.10799904965E+00  0.43669076352E-01  0.65810538010E-01  0.14110415425E+00  0.44817100305E-01 0.  0.
         14    1    1    2    0    0  0.77967354520E-02 -0.99517061553E-02  0.51736539463E-02  0.13659876803E-01  0.00000000000E+00 0. -1.
     999901    1    3    3    0    0  0.10020231420E+00 -0.33717370197E-01 -0.70984191957E-01  0.88916596895E+00  0.88000000000E+00 0.  1.
        -11    1    4    4    0    0 -0.87931994007E-02 -0.71573102597E-02  0.14442850597E-01  0.18368573712E-01  0.51100000000E-03 0.  1.
         11    1    4    4    0    0 -0.99205850247E-01  0.50826386612E-01  0.51367687413E-01  0.12273558054E+00  0.51100000000E-03 0. -1.
</event>
<event>
 8    1  0.2190512E+004  0.1043930E+01  0.7957747E-01            NaN
         13   -1    0    0    0    0  0.00000000000E+00  0.00000000000E+00  0.74505805969E-08  0.10566000000E+00  0.10566000000E+00 0. -1.
     999900   -1    0    0    0    0 -0.00000000000E+00 -0.00000000000E+00 -0.74505805969E-08  0.93827000000E+00  0.93827000000E+00 0. -1.
     999902    2    1    2    0    0  0.99827109405E-02  0.14925207468E-02  0.12766221171E-01  0.10276555249E+01  0.10275266514E+01 0.  0.
     999903    2    3    3    0    0 -0.51010499635E-01 -0.34652817602E-01  0.11572914892E+00  0.13882031989E+00  0.45551690013E-01 0.  0.
         14    1    1    2    0    0 -0.99827109405E-02 -0.14925207468E-02 -0.12766221171E-01  0.16274475072E-01  0.00000000000E+00 0.  1.
     999901    1    3    3    0    0  0.60993210575E-01  0.36145338349E-01 -0.10296292775E+00  0.88883520504E+00  0.88000000000E+00 0. -1.
        -11    1    4    4    0    0 -0.48493379220E-01 -0.72736427757E-02  0.70227882417E-01  0.85654715557E-01  0.51100000000E-03 0.  1.
         11    1    4    4    0    0 -0.25171204145E-02 -0.27379174826E-01  0.45501266508E-01  0.53165604334E-01  0.51100000000E-03 0. -1.
</event>
<event>
 8    1  0.2190512E+004  0.1043930E+01  0.7957747E-01            NaN
         13   -1    0    0    0    0  0.00000000000E+00  0.00000000000E+00  0.74505805969E-08  0.10566000000E+00  0.10566000000E+00 0.  1.
     999900   -1    0    0    0    0 -0.00000000000E+00 -0.00000000000E+00 -0.74505805969E-08  0.93827000000E+00  0.93827000000E+00 0. -1.
     999902    2    1    2    0    0  0.13661586698E-01  0.25887915770E-02 -0.10472805347E-02  0.10299859120E+01  0.10298915192E+01 0.  0.
     999903    2    3    3    0    0  0.20548742923E-01  0.10512841193E+00  0.78633358598E-01  0.14042938717E+00  0.45419972102E-01 0.  0.
         14    1    1    2    0    0 -0.13661586698E-01 -0.25887915770E-02  0.10472805347E-02  0.13944087975E-01  0.00000000000E+00 0.  1.
     999901    1    3    3    0    0 -0.68871562251E-02 -0.10253962035E+00 -0.79680639133E-01  0.88955652486E+00  0.88000000000E+00 0.  1.
        -11    1    4    4    0    0  0.28256944185E-01  0.54838588538E-01  0.60520655179E-01  0.86421852050E-01  0.51100000000E-03 0. -1.
         11    1    4    4    0    0 -0.77082012625E-02  0.50289823391E-01  0.18112703419E-01  0.54007535118E-01  0.51100000000E-03 0.  1.
</event>
<event>
 8    1  0.2190512E+004  0.1043930E+01  0.7957747E-01            NaN
         13   -1    0    0    0    0  0.00000000000E+00  0.00000000000E+00  0.74505805969E-08  0.10566000000E+00  0.10566000000E+00 0. -1.
     999900   -1    0    0    0    0 -0.00000000000E+00 -0.00000000000E+00 -0.74505805969E-08  0.93827000000E+00  0.93827000000E+00 0. -1.
     999902    2    1    2    0    0 -0.52707098253E-02  0.76671471389E-02  0.10317265314E-01  0.10300371425E+01  0.10299434467E+01 0.  0.
     999903    2    3    3    0    0 -0.65854284092E-01 -0.94920919195E-01  0.65247955152E-01  0.14031130743E+00  0.45642082621E-01 0.  0.
         14    1    1    2    0    0  0.52707098253E-02 -0.76671471389E-02 -0.10317265314E-01  0.13892857549E-01  0.00000000000E+00 0.  1.
     999901    1    3    3    0    0  0.60583574267E-01  0.10258806633E+00 -0.54930689838E-01  0.88972583503E+00  0.88000000000E+00 0.  1.
        -11    1    4    4    0    0 -0.44630931506E-01 -0.25029428554E-01  0.26818868699E-01  0.57774606707E-01  0.51100000000E-03 0.  1.
         11    1    4    4    0    0 -0.21223352587E-01 -0.69891490641E-01  0.38429086453E-01  0.82536700719E-01  0.51100000000E-03 0. -1.
</event>
<event>
 8    1  0.2190512E+004  0.1043930E+01  0.7957747E-01            NaN
         13   -1    0    0    0    0  0.00000000000E+00  0.00000000000E+00  0.74505805969E-08  0.10566000000E+00  0.10566000000E+00 0. -1.
     999900   -1    0    0    0    0 -0.00000000000E+00 -0.00000000000E+00 -0.74505805969E-08  0.93827000000E+00  0.93827000000E+00 0.  1.
     999902    2    1    2    0    0  0.71234716776E-02  0.43463467390E-02  0.18653074029E-01  0.10234954276E+01  0.10232914143E+01 0.  0.
     999903    2    3    3    0    0 -0.11937904145E-01 -0.23977408668E-01  0.12585760859E+00  0.13633231779E+00  0.45043684916E-01 0.  0.
         14    1    1    2    0    0 -0.71234716776E-02 -0.43463467390E-02 -0.18653074029E-01  0.20434572407E-01  0.00000000000E+00 0.  1.
     999901    1    3    3    0    0  0.19061375822E-01  0.28323755407E-01 -0.10720453456E+00  0.88716310981E+00  0.88000000000E+00 0.  1.
        -11    1    4    4    0    0  0.29320653384E-02 -0.21498070647E-01  0.20348380098E-01  0.29750323398E-01  0.51100000000E-03 0. -1.
         11    1    4    4    0    0 -0.14869969483E-01 -0.24793380211E-02  0.10550922849E+00  0.10658199439E+00  0.51100000000E-03 0.  1.
</event>
<event>
 8    1  0.2190512E+004  0.1043930E+01  0.7957747E-01            NaN
         13   -1    0    0    0    0  0.00000000000E+00  0.00000000000E+00  0.74505805969E-08  0.10566000000E+00  0.10566000000E+00 0.  1.
     999900   -1    0    0    0    0 -0.00000000000E+00 -0.00000000000E+00 -0.74505805969E-08  0.93827000000E+00  0.93827000000E+00 0.  1.
     999902    2    1    2    0    0  0.12141618789E-01  0.17088968341E-02  0.69044340255E-02  0.10298583816E+01  0.10297622423E+01 0.  0.
     999903    2    3    3    0    0 -0.27723747138E-02 -0.93970219806E-01 -0.93741132724E-01  0.13884409963E+00  0.40647211053E-01 0.  0.
         14    1    1    2    0    0 -0.12141618789E-01 -0.17088968341E-02 -0.69044340255E-02  0.14071618401E-01  0.00000000000E+00 0.  1.
     999901    1    3    3    0    0  0.14913993503E-01  0.95679116640E-01  0.10064556675E+00  0.89101428197E+00  0.88000000000E+00 0. -1.
        -11    1    4    4    0    0 -0.14069363166E-01 -0.11877924290E-01 -0.25713689541E-01  0.31630476066E-01  0.51100000000E-03 0. -1.
         11    1    4    4    0    0  0.11296988453E-01 -0.82092295516E-01 -0.68027443182E-01  0.10721362357E+00  0.51100000000E-03 0.  1.
</event>
<event>
 8    1  0.2190512E+004  0.1043930E+01  0.7957747E-01            NaN
         13   -1    0    0    0    0  0.00000000000E+00  0.00000000000E+00  0.74505805969E-08  0.10566000000E+00  0.10566000000E+00 0. -1.
     999900   -1    0    0    0    0 -0.00000000000E+00 -0.00000000000E+00 -0.74505805969E-08  0.93827000000E+00  0.93827000000E+00 0. -1.
     999902    2    1    2    0    0 -0.11438483320E-02  0.10160681920E-01 -0.95806102493E-02  0.10299180073E+01  0.10298226866E+01 0.  0.
     999903    2    3    3    0    0 -0.20661444337E-01 -0.44995687761E-01 -0.12370754291E+00  0.14062158968E+00  0.44937379906E-01 0.  0.
         14    1    1    2    0    0  0.11438483320E-02 -0.10160681920E-01  0.95806102493E-02  0.14011992679E-01  0.00000000000E+00 0. -1.
     999901    1    3    3    0    0  0.19517596005E-01  0.55156369681E-01  0.11412693266E+00  0.88929641764E+00  0.88000000000E+00 0.  1.
        -11    1    4    4    0    0  0.13385580775E-01 -0.12910422290E-01 -0.23042411442E-01  0.29615310609E-01  0.51100000000E-03 0.  1.
         11    1    4    4    0    0 -0.34047025112E-01 -0.32085265471E-01 -0.10066513147E+00  0.11100627907E+00  0.51100000000E-03 0. -1.
</event>
<event>
 8    1  0.2190512E+004  0.1043930E+01  0.7957747E-01            NaN
         13   -1    0    0    0    0  0.00000000000E+00  0.00000000000E+00  0.74505805969E-08  0.10566000000E+00  0.10566000000E+00 0. -1.
     999900   -1    0    0    0    0 -0.00000000000E+00 -0.00000000000E+00 -0.74505805969E-08  0.93827000000E+00  0.93827000000E+00 0. -1.
     999902    2    1    2    0    0  0.42776633968E-02 -0.12582920149E-01  0.45345391308E-02  0.10298875526E+01  0.10297918142E+01 0.  0.
     999903    2    3    3    0    0 -0.71187387808E-03  0.50949031619E-01  0.12250334152E+00  0.13973147488E+00  0.43834983759E-01 0.  0.
         14    1    1    2    0    0 -0.42776633968E-02  0.12582920149E-01 -0.45345391308E-02  0.14042447391E-01  0.00000000000E+00 0.  1.
     999901    1    3    3    0    0  0.49895372748E-02 -0.63531951768E-01 -0.11796880239E+00  0.89015607773E+00  0.88000000000E+00 0. -1.
        -11    1    4    4    0    0  0.18893163732E-01  0.35971628442E-01  0.59345366481E-01  0.71923871783E-01  0.51100000000E-03 0. -1.
         11    1    4    4    0    0 -0.19605037610E-01  0.14977403177E-01  0.63157975041E-01  0.67807603098E-01  0.51100000000E-03 0.  1.
</event>
<event>
 8    1  0.2190512E+004  0.1043930E+01  0.7957747E-01            NaN
         13   -1    0    0    0    0  0.00000000000E+00  0.00000000000E+00  0.74505805969E-08  0.10566000000E+00  0.10566000000E+00 0.  1.
     999900   -1    0    0    0    0 -0.00000000000E+00 -0.00000000000E+00 -0.74505805969E-08  0.93827000000E+00  0.93827000000E+00 0. -1.
     999902    2    1    2    0    0 -0.95647828380E-02  0.10123820610E-01  0.28058774731E-02  0.10297226159E+01  0.10296245995E+01 0.  0.
     999903    2    3    3    0    0 -0.42305291423E-01 -0.81825483899E-01  0.94154701826E-01  0.13962642828E+00  0.46317211724E-01 0.  0.
         14    1    1    2    0    0  0.95647828380E-02 -0.10123820610E-01 -0.28058774731E-02  0.14207384097E-01  0.00000000000E+00 0.  1.
     999901    1    3    3    0    0  0.32740508585E-01  0.91949304509E-01 -0.91348824353E-01  0.89009618762E+00  0.88000000000E+00 0. -1.
        -11    1    4    4    0    0 -0.28726556720E-01 -0.51196169707E-01  0.87647558010E-01  0.10549226701E+00  0.51100000000E-03 0.  1.
         11    1    4    4    0    0 -0.13578734703E-01 -0.30629314192E-01  0.65071438167E-02  0.34134161271E-01  0.51100000000E-03 0. -1.
</event>
<event>
 8    1  0.2190512E+004  0.1043930E+01  0.7957747E-01            NaN
         13   -1    0    0    0    0  0.00000000000E+00  0.00000000000E+00  0.74505805969E-08  0.10566000000E+00  0.10566000000E+00 0.  1.
     999900   -1    0    0    0    0 -0.00000000000E+00 -0.00000000000E+00 -0.74505805969E-08  0.93827000000E+00  0.93827000000E+00 0.  1.
     999902    2    1    2    0    0  0.86730725719E-02 -0.86609343901E-02  0.56783317452E-02  0.10304215795E+01  0.10303330307E+01 0.  0.
     999903    2    3    3    0    0  0.48046253736E-01 -0.93827489355E-01 -0.82359883180E-01  0.14106545470E+00  0.44769095310E-01 0.  0.
         14    1    1    2    0    0 -0.86730725719E-02  0.86609343901E-02 -0.56783317452E-02  0.13508420476E-01  0.00000000000E+00 0. -1.
     999901    1    3    3    0    0 -0.39373181164E-01  0.85166554965E-01  0.88038214925E-01  0.88935612483E+00  0.88000000000E+00 0. -1.
        -11    1    4    4    0    0  0.15749439194E-01 -0.71683853356E-01 -0.40850753549E-01  0.83998005056E-01  0.51100000000E-03 0.  1.
         11    1    4    4    0    0  0.32296814542E-01 -0.22143635999E-01 -0.41509129631E-01  0.57067449641E-01  0.51100000000E-03 0. -1.
</event>
<event>
 8    1  0.2190512E+004  0.1043930E+01  0.7957747E-01            NaN
         13   -1    0    0    0    0  0.00000000000E+00  0.00000000000E+00  0.74505805969E-08  0.10566000000E+00  0.10566000000E+00 0. -1.
     999900   -1    0    0    0    0 -0.00000000000E+00 -0.00000000000E+00 -0.74505805969E-08  0.93827000000E+00  0.93827000000E+00 0.  1.
     999902    2    1    2    0    0 -0.37817440785E-02  0.25254686641E-02  0.12546243867E-01  0.10305850453E+01  0.10304986404E+01 0.  0.
     999903    2    3    3    0    0  0.60014554170E-01  0.33982990455E-02 -0.11690340266E+00  0.13882950679E+00  0.44653457370E-01 0.  0.
         14    1    1    2    0    0  0.37817440785E-02 -0.25254686641E-02 -0.12546243867E-01  0.13344954681E-01  0.00000000000E+00 0.  1.
     999901    1    3    3    0    0 -0.63796298248E-01 -0.87283038138E-03  0.12944964653E+00  0.89175553852E+00  0.88000000000E+00 0. -1.
        -11    1    4    4    0    0  0.32192617689E-01  0.20856958719E-01 -0.41138544666E-01  0.56249607456E-01  0.51100000000E-03 0. -1.
         11    1    4    4    0    0  0.27821936481E-01 -0.17458659674E-01 -0.75764857993E-01  0.82579899339E-01  0.51100000000E-03 0.  1.
</event>
<event>
 8    1  0.2190512E+004  0.1043930E+01  0.7957747E-01            NaN
         13   -1    0    0    0    0  0.00000000000E+00  0.00000000000E+00  0.74505805969E-08  0.10566000000E+00  0.10566000000E+00 0.  1.
     999900   -1    0    0    0    0 -0.00000000000E+00 -0.00000000000E+00 -0.74505805969E-08  0.93827000000E+00  0.93827000000E+00 0. -1.
     999902    2    1    2    0    0  0.77100119884E-02  0.56103696375E-02 -0.92574774150E-02  0.10306401008E+01  0.10305544119E+01 0.  0.
     999903    2    3    3    0    0  0.16211061112E-01  0.12034946967E+00 -0.58265472865E-01  0.14179865684E+00  0.44330580859E-01 0.  0.
         14    1    1    2    0    0 -0.77100119884E-02 -0.56103696375E-02  0.92574774150E-02  0.13289899188E-01  0.00000000000E+00 0.  1.
     999901    1    3    3    0    0 -0.85010491241E-02 -0.11473910004E+00  0.49007995450E-01  0.88884144398E+00  0.88000000000E+00 0.  1.
        -11    1    4    4    0    0  0.19332277710E-01  0.10345093092E+00 -0.31263939405E-01  0.10978855632E+00  0.51100000000E-03 0. -1.
         11    1    4    4    0    0 -0.31212165971E-02  0.16898538748E-01 -0.27001533459E-01  0.32010100515E-01  0.51100000000E-03 0.  1.
</event>
<event>
 8    1  0.2190512E+004  0.1043930E+01  0.7957747E-01            NaN
         13   -1    0    0    0    0  0.00000000000E+00  0.00000000000E+00  0.74505805969E-08  0.10566000000E+00  0.10566000000E+00 0. -1.
     999900   -1    0    0    0    0 -0.00000000000E+00 -0.00000000000E+00 -0.74505805969E-08  0.93827000000E+00  0.93827000000E+00 0.  1.
     999902    2    1    2    0    0 -0.95103939531E-02  0.86477565772E-02  0.46036754652E-02  0.10302762417E+01  0.10301857644E+01 0.  0.
     999903    2    3    3    0    0 -0.12709452198E+00 -0.40312000900E-01 -0.10156562780E-01  0.14098385469E+00  0.44667847308E-01 0.  0.
         14    1    1    2    0    0  0.95103939531E-02 -0.86477565772E-02 -0.46036754652E-02  0.13653758265E-01  0.00000000000E+00 0.  1.
     999901    1    3    3    0    0  0.11758412803E+00  0.48959757477E-01  0.14760238245E-01  0.88929238704E+00  0.88000000000E+00 0. -1.
        -11    1    4    4    0    0 -0.92327811659E-01 -0.30471078622E-01  0.12958315481E-01  0.98087157668E-01  0.51100000000E-03 0.  1.
         11    1    4    4    0    0 -0.34766710321E-01 -0.98409222777E-02 -0.23114878261E-01  0.42896697027E-01  0.51100000000E-03 0. -1.
</event>
<event>
 8    1  0.2190512E+004  0.1043930E+01  0.7957747E-01            NaN
         13   -1    0    0    0    0  0.00000000000E+00  0.00000000000E+00  0.74505805969E-08  0.10566000000E+00  0.10566000000E+00 0.  1.
     999900   -1    0    0    0    0 -0.00000000000E+00 -0.00000000000E+00 -0.74505805969E-08  0.93827000000E+00  0.93827000000E+00 0. -1.
     999902    2    1    2    0    0  0.52287628480E-02  0.53830192700E-02 -0.14105458289E-01  0.10279524905E+01  0.10278283134E+01 0.  0.
     999903    2    3    3    0    0  0.10307824208E+00 -0.34434130721E-01  0.68057077487E-01  0.13783417906E+00  0.50553553499E-01 0.  0.
         14    1    1    2    0    0 -0.52287628480E-02 -0.53830192700E-02  0.14105458289E-01  0.15977509534E-01  0.00000000000E+00 0.  1.
     999901    1    3    3    0    0 -0.97849479233E-01  0.39817149991E-01 -0.82162535776E-01  0.89011831141E+00  0.88000000000E+00 0. -1.
        -11    1    4    4    0    0  0.93885888448E-02  0.68322374584E-02  0.23428901398E-01  0.26153386222E-01  0.51100000000E-03 0.  1.
         11    1    4    4    0    0  0.93689653236E-01 -0.41266368179E-01  0.44628176090E-01  0.11168079284E+00  0.51100000000E-03 0. -1.
</event>
<event>
 8    1  0.2190512E+004  0.1043930E+01  0.7957747E-01            NaN
         13   -1    0    0    0    0  0.00000000000E+00  0.00000000000E+00  0.74505805969E-08  0.10566000000E+00  0.10566000000E+00 0. -1.
     999900   -1    0    0    0    0 -0.00000000000E+00 -0.00000000000E+00 -0.74505805969E-08  0.93827000000E+00  0.93827000000E+00 0.  1.
     999902    2    1    2    0    0  0.10644325182E-02  0.10097522666E-01 -0.42996585132E-02  0.10329036659E+01  0.10328448107E+01 0.  0.
     999903    2    3    3    0    0  0.11680278397E+00  0.56745164996E-01 -0.40763051241E-01  0.14335268503E+00  0.45005131565E-01 0.  0.
         14    1    1    2    0    0 -0.10644325182E-02 -0.10097522666E-01  0.42996585132E-02  0.11026334110E-01  0.00000000000E+00 0.  1.
     999901    1    3    3    0    0 -0.11573835145E+00 -0.46647642330E-01  0.36463392728E-01  0.88955098086E+00  0.88000000000E+00 0.  1.
        -11    1    4    4    0    0  0.42251267263E-01  0.36398115852E-01 -0.35033861052E-01  0.65860648070E-01  0.51100000000E-03 0.  1.
         11    1    4    4    0    0  0.74551516705E-01  0.20347049143E-01 -0.57291901893E-02  0.77492036965E-01  0.51100000000E-03 0. -1.
</event>
<event>
 7    1  0.2190512E+004  0.1043930E+01  0.7957747E-01            NaN
         13   -1    0    0    0    0  0.00000000000E+00  0.00000000000E+00  0.74505805969E-08  0.10566000000E+00  0.10566000000E+00 0. -1.
     999900   -1    0    0    0    0 -0.00000000000E+00 -0.00000000000E+00 -0.74505805969E-08  0.93827000000E+00  0.93827000000E+00 0. -1.
     999903    2    1    2    0    0 -0.68258701116E-01  0.33862597801E-01 -0.64172492417E-01  0.10941095386E+00  0.45240714337E-01 0.  0.
         14    1    1    2    0    0 -0.87040634373E-02  0.22672453863E-01 -0.36293586568E-01  0.43669500919E-01  0.00000000000E+00 0.  1.
     999901    1    1    2    0    0  0.76962764554E-01 -0.56535051665E-01  0.10046607898E+00  0.89084954522E+00  0.88000000000E+00 0.  1.
        -11    1    3    3    0    0 -0.27504128721E-01  0.24909383631E-01 -0.55540548897E-01  0.66797965405E-01  0.51100000000E-03 0. -1.
         11    1    3    3    0    0 -0.40754572395E-01  0.89532141706E-02 -0.86319435197E-02  0.42612988455E-01  0.51100000000E-03 0.  1.
</event>
<event>
 8    1  0.2190512E+004  0.1043930E+01  0.7957747E-01            NaN
         13   -1    0    0    0    0  0.00000000000E+00  0.00000000000E+00  0.74505805969E-08  0.10566000000E+00  0.10566000000E+00 0.  1.
     999900   -1    0    0    0    0 -0.00000000000E+00 -0.00000000000E+00 -0.74505805969E-08  0.93827000000E+00  0.93827000000E+00 0.  1.
     999902    2    1    2    0    0  0.18948099033E-02 -0.12021564028E-01 -0.12289811954E-03  0.10317594039E+01  0.10316876194E+01 0.  0.
     999903    2    3    3    0    0  0.12692853136E+00  0.34694157551E-01  0.24664013399E-01  0.14134928425E+00  0.45351625760E-01 0.  0.
         14    1    1    2    0    0 -0.18948099033E-02  0.12021564028E-01  0.12289811954E-03  0.12170596132E-01  0.00000000000E+00 0.  1.
     999901    1    3    3    0    0 -0.12503372145E+00 -0.46715721580E-01 -0.24786911518E-01  0.89041011962E+00  0.88000000000E+00 0. -1.
        -11    1    4    4    0    0  0.74629319861E-01  0.12012554684E-01  0.35183883305E-01  0.83378676041E-01  0.51100000000E-03 0. -1.
         11    1    4    4    0    0  0.52299211497E-01  0.22681602868E-01 -0.10519869906E-01  0.57970608205E-01  0.51100000000E-03 0.  1.
</event>
<event>
 8    1  0.2190512E+004  0.1043930E+01  0.7957747E-01            NaN
         13   -1    0    0    0    0  0.00000000000E+00  0.00000000000E+00  0.74505805969E-08  0.10566000000E+00  0.10566000000E+00 0.  1.
     999900   -1    0    0    0    0 -0.00000000000E+00 -0.00000000000E+00 -0.74505805969E-08  0.93827000000E+00  0.93827000000E+00 0. -1.
     999902    2    1    2    0    0  0.77755714783E-02  0.74723704561E-02 -0.89219612356E-02  0.10299336710E+01  0.10298385648E+01 0.  0.
     999903    2    3    3    0    0  0.84192609861E-01  0.99774154229E-01  0.20355638160E-01  0.14133006939E+00  0.50165317712E-01 0.  0.
         14    1    1    2    0    0 -0.77755714783E-02 -0.74723704561E-02  0.89219612356E-02  0.13996328959E-01  0.00000000000E+00 0.  1.
     999901    1    3    3    0    0 -0.76417038383E-01 -0.92301783773E-01 -0.29277599396E-01  0.88860360165E+00  0.88000000000E+00 0. -1.
        -11    1    4    4    0    0  0.16262497624E-01 -0.18169624600E-02  0.87660637579E-02  0.18570815177E-01  0.51100000000E-03 0.  1.
         11    1    4    4    0    0  0.67930112237E-01  0.10159111669E+00  0.11589574402E-01  0.12275925421E+00  0.51100000000E-03 0. -1.
</event>
<event>
 8    1  0.2190512E+004  0.1043930E+01  0.7957747E-01            NaN
         13   -1    0    0    0    0  0.00000000000E+00  0.00000000000E+00  0.74505805969E-08  0.10566000000E+00  0.10566000000E+00 0.  1.
     999900   -1    0    0    0    0 -0.00000000000E+00 -0.00000000000E+00 -0.74505805969E-08  0.93827000000E+00  0.93827000000E+00 0.  1.
     999902    2    1    2    0    0 -0.11881400091E-01 -0.20167814355E-02  0.67008443648E-02  0.10301410047E+01  0.10300487140E+01 0.  0.
     999903    2    3    3    0    0  0.10077906991E+00  0.80386901065E-01  0.26120771328E-01  0.13892841395E+00  0.44725101612E-01 0.  0.
         14    1    1    2    0    0  0.11881400091E-01  0.20167814355E-02 -0.67008443648E-02  0.13788995275E-01  0.00000000000E+00 0. -1.
     999901    1    3    3    0    0 -0.11266047000E+00 -0.82403682501E-01 -0.19419926963E-01  0.89121259077E+00  0.88000000000E+00 0.  1.
        -11    1    4    4    0    0  0.32995838715E-01  0.50213888328E-02  0.16130045880E-01  0.37072620887E-01  0.51100000000E-03 0. -1.
         11    1    4    4    0    0  0.67783231191E-01  0.75365512233E-01  0.99907254472E-02  0.10185579306E+00  0.51100000000E-03 0.  1.
</event>
<event>
 7    1  0.2190512E+004  0.1043930E+01  0.7957747E-01            NaN
         13   -1    0    0    0    0  0.00000000000E+00  0.00000000000E+00  0.74505805969E-08  0.10566000000E+00  0.10566000000E+00 0.  1.
     999900   -1    0    0    0    0 -0.00000000000E+00 -0.00000000000E+00 -0.74505805969E-08  0.93827000000E+00  0.93827000000E+00 0. -1.
     999902    2    1    2    0    0 -0.77792622217E-02 -0.67682423459E-02 -0.94846861185E-02  0.10299198146E+01  0.10298245186E+01 0.  0.
         14    1    1    2    0    0  0.77792622217E-02  0.67682423459E-02  0.94846861185E-02  0.14010185435E-01  0.00000000000E+00 0.  1.
     999901    1    3    3    0    0 -0.13277766968E-01 -0.13587349714E+00 -0.49440040446E-01  0.89189810176E+00  0.88000000000E+00 0.  1.
        -11    1    3    3    0    0 -0.64157846108E-02  0.30308631715E-01  0.18934996379E-01  0.36312128243E-01  0.51100000000E-03 0. -1.
         11    1    3    3    0    0  0.11914289357E-01  0.98796623080E-01  0.21020357949E-01  0.10170958456E+00  0.51100000000E-03 0.  1.
</event>
<event>
 8    1  0.2190512E+004  0.1043930E+01  0.7957747E-01            NaN
         13   -1    0    0    0    0  0.00000000000E+00  0.00000000000E+00  0.74505805969E-08  0.10566000000E+00  0.10566000000E+00 0.  1.
     999900   -1    0    0    0    0 -0.00000000000E+00 -0.00000000000E+00 -0.74505805969E-08  0.93827000000E+00  0.93827000000E+00 0. -1.
     999902    2    1    2    0    0  0.33948845658E-02 -0.25346663132E-02  0.13612336202E-01  0.10296735814E+01  0.10295748825E+01 0.  0.
     999903    2    3    3    0    0  0.77357217623E-01  0.64696804337E-01 -0.84373595851E-01  0.13861143977E+00  0.43868119960E-01 0.  0.
         14    1    1    2    0    0 -0.33948845658E-02  0.25346663132E-02 -0.13612336202E-01  0.14256418604E-01  0.00000000000E+00 0. -1.
     999901    1    3    3    0    0 -0.73962333057E-01 -0.67231470650E-01  0.97985932053E-01  0.89106214162E+00  0.88000000000E+00 0. -1.
        -11    1    4    4    0    0  0.77511353688E-01  0.60515612739E-01 -0.62913379026E-01  0.11674118261E+00  0.51100000000E-03 0.  1.
         11    1    4    4    0    0 -0.15413606562E-03  0.41811915980E-02 -0.21460216825E-01  0.21870257161E-01  0.51100000000E-03 0. -1.
</event>
<event>
 8    1  0.2190512E+004  0.1043930E+01  0.7957747E-01            NaN
         13   -1    0    0    0    0  0.00000000000E+00  0.00000000000E+00  0.74505805969E-08  0.10566000000E+00  0.10566000000E+00 0.  1.
     999900   -1    0    0    0    0 -0.00000000000E+00 -0.00000000000E+00 -0.74505805969E-08  0.93827000000E+00  0.93827000000E+00 0. -1.
     999902    2    1    2    0    0  0.13269812760E-01 -0.20469857328E-02  0.28518458620E-02  0.10302037075E+01  0.10301122598E+01 0.  0.
     999903    2    3    3    0    0 -0.12917324928E+00 -0.12908334273E-02  0.22518325526E-01  0.13853259766E+00  0.44685691777E-01 0.  0.
         14    1    1    2    0    0 -0.13269812760E-01  0.20469857328E-02 -0.28518458620E-02  0.13726292511E-01  0.00000000000E+00 0. -1.
     999901    1    3    3    0    0  0.14244306204E+00 -0.75615230543E-03 -0.19666479664E-01  0.89167110983E+00  0.88000000000E+00 0. -1.
        -11    1    4    4    0    0 -0.65709938851E-01 -0.21784566399E-01  0.41301039132E-02  0.69351872912E-01  0.51100000000E-03 0. -1.
         11    1    4    4    0    0 -0.63463310424E-01  0.20493732972E-01  0.18388221613E-01  0.69180724745E-01  0.51100000000E-03 0.  1.
</event>
<event>
 8    1  0.2190512E+004  0.1043930E+01  0.7957747E-01            NaN
         13   -1    0    0    0    0  0.00000000000E+00  0.00000000000E+00  0.74505805969E-08  0.10566000000E+00  0.10566000000E+00 0.  1.
     999900   -1    0    0    0    0 -0.00000000000E+00 -0.00000000000E+00 -0.74505805969E-08  0.93827000000E+00  0.93827000000E+00 0. -1.
     999902    2    1    2    0    0 -0.17240503185E-01 -0.66067804945E-02 -0.22987102703E-05  0.10254669422E+01  0.10253007193E+01 0.  0.
     999903    2    3    3    0    0  0.45093772446E-02 -0.95534944706E-01 -0.86605451392E-01  0.13648922495E+00  0.44514538895E-01 0.  0.
         14    1    1    2    0    0  0.17240503185E-01  0.66067804945E-02  0.22987102703E-05  0.18463057815E-01  0.00000000000E+00 0.  1.
     999901    1    3    3    0    0 -0.21749880430E-01  0.88928164212E-01  0.86603152682E-01  0.88897771724E+00  0.88000000000E+00 0. -1.
        -11    1    4    4    0    0 -0.16521882129E-01 -0.71984645839E-01 -0.58599051958E-01  0.94280813727E-01  0.51100000000E-03 0. -1.
         11    1    4    4    0    0  0.21031259374E-01 -0.23550298868E-01 -0.28006399434E-01  0.42208411222E-01  0.51100000000E-03 0.  1.
</event>
<event>
 8    1  0.2190512E+004  0.1043930E+01  0.7957747E-01            NaN
         13   -1    0    0    0    0  0.00000000000E+00  0.00000000000E+00  0.74505805969E-08  0.10566000000E+00  0.10566000000E+00 0.  1.
     999900   -1    0    0    0    0 -0.00000000000E+00 -0.00000000000E+00 -0.74505805969E-08  0.93827000000E+00  0.93827000000E+00 0. -1.
     999902    2    1    2    0    0 -0.13312687980E-01 -0.31330740108E-02 -0.81500347487E-03  0.10302293415E+01  0.10301382373E+01 0.  0.
     999903    2    3    3    0    0 -0.66137005016E-01  0.74757260353E-01 -0.89349415765E-01  0.14079375929E+00  0.43322201571E-01 0.  0.
         14    1    1    2    0    0  0.13312687980E-01  0.31330740108E-02  0.81500347487E-03  0.13700658549E-01  0.00000000000E+00 0.  1.
     999901    1    3    3    0    0  0.52824317036E-01 -0.77890334364E-01  0.88534412290E-01  0.88943558216E+00  0.88000000000E+00 0.  1.
        -11    1    4    4    0    0 -0.62088223527E-01  0.47803368446E-01 -0.50105505298E-01  0.93010388224E-01  0.51100000000E-03 0. -1.
         11    1    4    4    0    0 -0.40487814897E-02  0.26953891907E-01 -0.39243910468E-01  0.47783371064E-01  0.51100000000E-03 0.  1.
</event>
<event>
 8    1  0.2190512E+004  0.1043930E+01  0.7957747E-01            NaN
         13   -1    0    0    0    0  0.00000000000E+00  0.00000000000E+00  0.74505805969E-08  0.10566000000E+00  0.10566000000E+00 0. -1.
     999900   -1    0    0    0    0 -0.00000000000E+00 -0.00000000000E+00 -0.74505805969E-08  0.93827000000E+00  0.93827000000E+00 0.  1.
     999902    2    1    2    0    0 -0.22279817840E-02  0.12429218285E-01 -0.51129809599E-02  0.10303067866E+01  0.10302167163E+01 0.  0.
     999903    2    3    3    0    0  0.12742918948E+00  0.40652105916E-01 -0.84179138677E-02  0.14035261020E+00  0.41679753719E-01 0.  0.
         14    1    1    2    0    0  0.22279817840E-02 -0.12429218285E-01  0.51129809599E-02  0.13623213435E-01  0.00000000000E+00 0.  1.
     999901    1    3    3    0    0 -0.12965717126E+00 -0.28222887632E-01  0.33049329078E-02  0.88995417636E+00  0.88000000000E+00 0. -1.
        -11    1    4    4    0    0  0.97923461391E-01  0.46062181579E-01  0.29804501102E-02  0.10825836257E+00  0.51100000000E-03 0. -1.
         11    1    4    4    0    0  0.29505728086E-01 -0.54100756629E-02 -0.11398363978E-01  0.32094247630E-01  0.51100000000E-03 0.  1.
</event>
<event>
 8    1  0.2190512E+004  0.1043930E+01  0.7957747E-01            NaN
         13   -1    0    0    0    0  0.00000000000E+00  0.00000000000E+00  0.74505805969E-08  0.10566000000E+00  0.10566000000E+00 0. -1.
     999900   -1    0    0    0    0 -0.00000000000E+00 -0.00000000000E+00 -0.74505805969E-08  0.93827000000E+00  0.93827000000E+00 0.  1.
     999902    2    1    2    0    0 -0.51534121268E-02 -0.68176568924E-03  0.11116464566E-01  0.10316581523E+01  0.10315851613E+01 0.  0.
     999903    2    3    3    0    0  0.12731963115E+00 -0.34019313211E-01 -0.21201046120E-01  0.14053250419E+00  0.43957914298E-01 0.  0.
         14    1    1    2    0    0  0.51534121268E-02  0.68176568924E-03 -0.11116464566E-01  0.12271847679E-01  0.00000000000E+00 0.  1.
     999901    1    3    3    0    0 -0.13247304327E+00  0.33337547522E-01  0.32317510686E-01  0.89112564814E+00  0.88000000000E+00 0.  1.
        -11    1    4    4    0    0  0.37169185996E-01  0.60263881578E-02 -0.18238216345E-01  0.41842076888E-01  0.51100000000E-03 0.  1.
         11    1    4    4    0    0  0.90150445150E-01 -0.40045701369E-01 -0.29628297758E-02  0.98690427297E-01  0.51100000000E-03 0. -1.
</event>
<event>
 8    1  0.2190512E+004  0.1043930E+01  0.7957747E-01            NaN
         13   -1    0    0    0    0  0.00000000000E+00  0.00000000000E+00  0.74505805969E-08  0.10566000000E+00  0.10566000000E+00 0. -1.
     999900   -1    0    0    0    0 -0.00000000000E+00 -0.00000000000E+00 -0.74505805969E-08  0.93827000000E+00  0.93827000000E+00 0.  1.
     999902    2    1    2    0    0  0.11287239451E-01  0.73593545213E-02 -0.28340938730E-02  0.10301606877E+01  0.10300686620E+01 0.  0.
     999903    2    3    3    0    0  0.48697586611E-01  0.39037814804E-01 -0.11852883411E+00  0.14123530734E+00  0.44754012078E-01 0.  0.
         14    1    1    2    0    0 -0.11287239451E-01 -0.73593545213E-02  0.28340938730E-02  0.13769312310E-01  0.00000000000E+00 0.  1.
     999901    1    3    3    0    0 -0.37410347159E-01 -0.31678460283E-01  0.11569474023E+00  0.88892538035E+00  0.88000000000E+00 0. -1.
        -11    1    4    4    0    0  0.27878267745E-01  0.25586664546E-01 -0.10774842754E+00  0.11420096311E+00  0.51100000000E-03 0. -1.
         11    1    4    4    0    0  0.20819318866E-01  0.13451150258E-01 -0.10780406564E-01  0.27034344230E-01  0.51100000000E-03 0.  1.
</event>
<event>
 8    1  0.2190512E+004  0.1043930E+01  0.7957747E-01            NaN
         13   -1    0    0    0    0  0.00000000000E+00  0.00000000000E+00  0.74505805969E-08  0.10566000000E+00  0.10566000000E+00 0. -1.
     999900   -1    0    0    0    0 -0.00000000000E+00 -0.00000000000E+00 -0.74505805969E-08  0.93827000000E+00  0.93827000000E+00 0. -1.
     999902    2    1    2    0    0 -0.62172265700E-02  0.12944934211E-01  0.10599089510E-02  0.10295303946E+01  0.10294296891E+01 0.  0.
     999903    2    3    3    0    0  0.12649854003E+00  0.16297001327E-01 -0.31771280610E-01  0.13896731541E+00  0.45111280151E-01 0.  0.
         14    1    1    2    0    0  0.62172265700E-02 -0.12944934211E-01 -0.10599089510E-02  0.14399605374E-01  0.00000000000E+00 0.  1.
     999901    1    3    3    0    0 -0.13271576660E+00 -0.33520671163E-02  0.32831189561E-01  0.89056307922E+00  0.88000000000E+00 0.  1.
        -11    1    4    4    0    0  0.83296596159E-01 -0.22308211828E-02 -0.20566804166E-02  0.83353407550E-01  0.51100000000E-03 0.  1.
         11    1    4    4    0    0  0.43201943876E-01  0.18527822510E-01 -0.29714600193E-01  0.55613907858E-01  0.51100000000E-03 0. -1.
</event>
<event>
 8    1  0.2190512E+004  0.1043930E+01  0.7957747E-01            NaN
         13   -1    0    0    0    0  0.00000000000E+00  0.00000000000E+00  0.74505805969E-08  0.10566000000E+00  0.10566000000E+00 0.  1.
     999900   -1    0    0    0    0 -0.00000000000E+00 -0.00000000000E+00 -0.74505805969E-08  0.93827000000E+00  0.93827000000E+00 0. -1.
     999902    2    1    2    0    0  0.10320479898E-01  0.69123342945E-02  0.54740222781E-02  0.10303558484E+01  0.10302664300E+01 0.  0.
     999903    2    3    3    0    0  0.60618625911E-02  0.60437373649E-01  0.11917019089E+00  0.14141834534E+00  0.45915048614E-01 0.  0.
         14    1    1    2    0    0 -0.10320479898E-01 -0.69123342945E-02 -0.54740222781E-02  0.13574151562E-01  0.00000000000E+00 0.  1.
     999901    1    3    3    0    0  0.42586173073E-02 -0.53525039354E-01 -0.11369616861E+00  0.88893750310E+00  0.88000000000E+00 0. -1.
        -11    1    4    4    0    0 -0.92894210259E-02  0.42359344990E-01  0.40827973314E-01  0.59563344239E-01  0.51100000000E-03 0. -1.
         11    1    4    4    0    0  0.15351283617E-01  0.18078028658E-01  0.78342217579E-01  0.81855001099E-01  0.51100000000E-03 0.  1.
</event>
<event>
 8    1  0.2190512E+004  0.1043930E+01  0.7957747E-01            NaN
         13   -1    0    0    0    0  0.00000000000E+00  0.00000000000E+00  0.74505805969E-08  0.10566000000E+00  0.10566000000E+00 0.  1.
     999900   -1    0    0    0    0 -0.00000000000E+00 -0.00000000000E+00 -0.74505805969E-08  0.93827000000E+00  0.93827000000E+00 0.  1.
     999902    2    1    2    0    0  0.10278884220E-01  0.78163139018E-02  0.40365067829E-02  0.10304006389E+01  0.10303118135E+01 0.  0.
     999903    2    3    3    0    0  0.35360190807E-01  0.81571330131E-01 -0.99629876293E-01  0.14089763538E+00  0.44964501680E-01 0.  0.
         14    1    1    2    0    0 -0.10278884220E-01 -0.78163139018E-02 -0.40365067829E-02  0.13529361065E-01  0.00000000000E+00 0. -1.
     999901    1    3    3    0    0 -0.25081306587E-01 -0.73755016230E-01  0.10366638308E+00  0.88950300356E+00  0.88000000000E+00 0. -1.
        -11    1    4    4    0    0  0.40193638915E-03 -0.17837888627E-03 -0.24456287625E-01  0.24465577804E-01  0.51100000000E-03 0. -1.
         11    1    4    4    0    0  0.34958254418E-01  0.81749709018E-01 -0.75173588668E-01  0.11643205757E+00  0.51100000000E-03 0.  1.
</event>
<event>
 7    1  0.2190512E+004  0.1043930E+01  0.7957747E-01            NaN
         13   -1    0    0    0    0  0.00000000000E+00  0.00000000000E+00  0.74505805969E-08  0.10566000000E+00  0.10566000000E+00 0.  1.
     999900   -1    0    0    0    0 -0.00000000000E+00 -0.00000000000E+00 -0.74505805969E-08  0.93827000000E+00  0.93827000000E+00 0. -1.
     999903    2    1    2    0    0 -0.12789618938E-01 -0.63349822572E-01  0.61811841027E-01  0.98771985375E-01  0.41933602652E-01 0.  0.
         14    1    1    2    0    0 -0.21940148378E-01  0.50032057312E-01 -0.33157790286E-01  0.63906305842E-01  0.00000000000E+00 0. -1.
     999901    1    1    2    0    0  0.34729767315E-01  0.13317765259E-01 -0.28654050740E-01  0.88125170878E+00  0.88000000000E+00 0. -1.
        -11    1    3    3    0    0 -0.24771467102E-01 -0.46906819632E-01  0.56985803408E-01  0.77855752655E-01  0.51100000000E-03 0.  1.
         11    1    3    3    0    0  0.11981848164E-01 -0.16443002940E-01  0.48260376188E-02  0.20916232720E-01  0.51100000000E-03 0. -1.
</event>
<event>
 8    1  0.2190512E+004  0.1043930E+01  0.7957747E-01            NaN
         13   -1    0    0    0    0  0.00000000000E+00  0.00000000000E+00  0.74505805969E-08  0.10566000000E+00  0.10566000000E+00 0. -1.
     999900   -1    0    0    0    0 -0.00000000000E+00 -0.00000000000E+00 -0.74505805969E-08  0.93827000000E+00  0.93827000000E+00 0.  1.
     999902    2    1    2    0    0  0.60518742976E-02 -0.11160587003E-02  0.11982284873E-01  0.10304598136E+01  0.10303717686E+01 0.  0.
     999903    2    3    3    0    0  0.39209471907E-02 -0.24111459901E-01  0.13406397147E+00  0.14173192080E+00  0.38962194511E-01 0.  0.
         14    1    1    2    0    0 -0.60518742976E-02  0.11160587003E-02 -0.11982284873E-01  0.13470186351E-01  0.00000000000E+00 0.  1.
     999901    1    3    3    0    0  0.21309271069E-02  0.22995401201E-01 -0.12208168660E+00  0.88872789285E+00  0.88000000000E+00 0.  1.
        -11    1    4    4    0    0 -0.13675608604E-01 -0.85474901955E-03  0.70141060385E-01  0.71468750790E-01  0.51100000000E-03 0.  1.
         11    1    4    4    0    0  0.17596555795E-01 -0.23256710881E-01  0.63922911087E-01  0.70263170009E-01  0.51100000000E-03 0. -1.
</event>
<event>
 8    1  0.2190512E+004  0.1043930E+01  0.7957747E-01            NaN
         13   -1    0    0    0    0  0.00000000000E+00  0.00000000000E+00  0.74505805969E-08  0.10566000000E+00  0.10566000000E+00 0. -1.
     999900   -1    0    0    0    0 -0.00000000000E+00 -0.00000000000E+00 -0.74505805969E-08  0.93827000000E+00  0.93827000000E+00 0. -1.
     999902    2    1    2    0    0 -0.10523587311E-01  0.81320330684E-02  0.16057104630E-02  0.10305339499E+01  0.10304468777E+01 0.  0.
     999903    2    3    3    0    0  0.69460274755E-01  0.59673306438E-01  0.96346895894E-01  0.14034868085E+00  0.45048802396E-01 0.  0.
         14    1    1    2    0    0  0.10523587311E-01 -0.81320330684E-02 -0.16057104630E-02  0.13396050082E-01  0.00000000000E+00 0.  1.
     999901    1    3    3    0    0 -0.79983862066E-01 -0.51541273369E-01 -0.94741185431E-01  0.89018526907E+00  0.88000000000E+00 0. -1.
        -11    1    4    4    0    0  0.51074404281E-01  0.20874259861E-01  0.34561141496E-01  0.65108087976E-01  0.51100000000E-03 0.  1.
         11    1    4    4    0    0  0.18385870475E-01  0.38799046576E-01  0.61785754397E-01  0.75240592872E-01  0.51100000000E-03 0. -1.
</event>
<event>
 8    1  0.2190512E+004  0.1043930E+01  0.7957747E-01            NaN
         13   -1    0    0    0    0  0.00000000000E+00  0.00000000000E+00  0.74505805969E-08  0.10566000000E+00  0.10566000000E+00 0.  1.
     999900   -1    0    0    0    0 -0.00000000000E+00 -0.00000000000E+00 -0.74505805969E-08  0.93827000000E+00  0.93827000000E+00 0.  1.
     999902    2    1    2    0    0  0.10774498343E-01  0.86779937680E-02 -0.35283199589E-02  0.10296525201E+01  0.10295535274E+01 0.  0.
     999903    2    3    3    0    0 -0.43663949203E-01 -0.78417500792E-01 -0.95731668032E-01  0.13889406399E+00  0.45510041281E-01 0.  0.
         14    1    1    2    0    0 -0.10774498343E-01 -0.86779937680E-02  0.35283199589E-02  0.14277479894E-01  0.00000000000E+00 0. -1.
     999901    1    3    3    0    0  0.54438447547E-01  0.87095494560E-01  0.92203348073E-01  0.89075845611E+00  0.88000000000E+00 0. -1.
        -11    1    4    4    0    0 -0.49663028105E-01 -0.79717402647E-01 -0.92931249119E-01  0.13212781247E+00  0.51100000000E-03 0. -1.
         11    1    4    4    0    0  0.59990789023E-02  0.12999018549E-02 -0.28004189135E-02  0.67662515176E-02  0.51100000000E-03 0.  1.
</event>
<event>
 8    1  0.2190512E+004  0.1043930E+01  0.7957747E-01            NaN
         13   -1    0    0    0    0  0.00000000000E+00  0.00000000000E+00  0.74505805969E-08  0.10566000000E+00  0.10566000000E+00 0. -1.
     999900   -1    0    0    0    0 -0.00000000000E+00 -0.00000000000E+00 -0.74505805969E-08  0.93827000000E+00  0.93827000000E+00 0.  1.
     999902    2    1    2    0    0  0.70437189484E-02  0.94398850099E-03 -0.12188476359E-01  0.10298209941E+01  0.10297243398E+01 0.  0.
     999903    2    3    3    0    0  0.54942061434E-02  0.12476731101E+00  0.42663927795E-01  0.13945960546E+00  0.45074412059E-01 0.  0.
         14    1    1    2    0    0 -0.70437189484E-02 -0.94398850099E-03  0.12188476359E-01  0.14109005878E-01  0.00000000000E+00 0. -1.
     999901    1    3    3    0    0  0.15495128050E-02 -0.12382332250E+00 -0.54852404153E-01  0.89036138867E+00  0.88000000000E+00 0.  1.
        -11    1    4    4    0    0 -0.15898567628E-01  0.42701872345E-01  0.25441506502E-02  0.45639327098E-01  0.51100000000E-03 0. -1.
         11    1    4    4    0    0  0.21392773772E-01  0.82065438660E-01  0.40119777144E-01  0.93820278358E-01  0.51100000000E-03 0.  1.
</event>
<event>
 8    1  0.2190512E+004  0.1043930E+01  0.7957747E-01            NaN
         13   -1    0    0    0    0  0.00000000000E+00  0.00000000000E+00  0.74505805969E-08  0.10566000000E+00  0.10566000000E+00 0. -1.
     999900   -1    0    0    0    0 -0.00000000000E+00 -0.00000000000E+00 -0.74505805969E-08  0.93827000000E+00  0.93827000000E+00 0.  1.
     999902    2    1    2    0    0 -0.29713511574E-02  0.10300538044E-01 -0.86368692153E-02  0.10301631731E+01  0.10300711809E+01 0.  0.
     999903    2    3    3    0    0 -0.97705172650E-01  0.17410311541E-01 -0.90079056050E-01  0.14131117444E+00  0.44779369938E-01 0.  0.
         14    1    1    2    0    0  0.29713511574E-02 -0.10300538044E-01  0.86368692153E-02  0.13766826851E-01  0.00000000000E+00 0.  1.
     999901    1    3    3    0    0  0.94733821492E-01 -0.71097734968E-02  0.81442186835E-01  0.88885199871E+00  0.88000000000E+00 0. -1.
        -11    1    4    4    0    0 -0.39387936209E-01 -0.10135947531E-01 -0.53356404984E-01  0.67091832773E-01  0.51100000000E-03 0. -1.
         11    1    4    4    0    0 -0.58317236441E-01  0.27546259072E-01 -0.36722651066E-01  0.74219341666E-01  0.51100000000E-03 0.  1.
</event>
<event>
 7    1  0.2190512E+004  0.1043930E+01  0.7957747E-01            NaN
         13   -1    0    0    0    0  0.00000000000E+00  0.00000000000E+00  0.74505805969E-08  0.10566000000E+00  0.10566000000E+00 0.  1.
     999900   -1    0    0    0    0 -0.00000000000E+00 -0.00000000000E+00 -0.74505805969E-08  0.93827000000E+00  0.93827000000E+00 0. -1.
     999903    2    1    2    0    0 -0.32226901231E-01  0.10084761743E+00  0.57821057317E-01  0.12874444098E+00  0.44978231507E-01 0.  0.
         14    1    1    2    0    0 -0.11162838500E-01 -0.18031378816E-01 -0.20424406923E-01  0.29443097384E-01  0.00000000000E+00 0. -1.
     999901    1    1    2    0    0  0.43389739731E-01 -0.82816238610E-01 -0.37396650394E-01  0.88574246164E+00  0.88000000000E+00 0. -1.
        -11    1    3    3    0    0 -0.54312118489E-02  0.38064255514E-01  0.45164411865E-01  0.59316699420E-01  0.51100000000E-03 0. -1.
         11    1    3    3    0    0 -0.26795689382E-01  0.62783361912E-01  0.12656645452E-01  0.69427741556E-01  0.51100000000E-03 0.  1.
</event>
<event>
 8    1  0.2190512E+004  0.1043930E+01  0.7957747E-01            NaN
         13   -1    0    0    0    0  0.00000000000E+00  0.00000000000E+00  0.74505805969E-08  0.10566000000E+00  0.10566000000E+00 0.  1.
     999900   -1    0    0    0    0 -0.00000000000E+00 -0.00000000000E+00 -0.74505805969E-08  0.93827000000E+00  0.93827000000E+00 0.  1.
     999902    2    1    2    0    0 -0.76277314840E-02  0.10746592459E-01  0.31810252674E-03  0.10307477116E+01  0.10306634137E+01 0.  0.
     999903    2    3    3    0    0 -0.34726847707E-01  0.12743638687E+00  0.19687745559E-01  0.14242003939E+00  0.49496198300E-01 0.  0.
         14    1    1    2    0    0  0.76277314840E-02 -0.10746592459E-01 -0.31810252674E-03  0.13182288355E-01  0.00000000000E+00 0.  1.
     999901    1    3    3    0    0  0.27099116223E-01 -0.11668979441E+00 -0.19369643032E-01  0.88832767225E+00  0.88000000000E+00 0. -1.
        -11    1    4    4    0    0 -0.41720173591E-01  0.11000185292E+00  0.29400238421E-01  0.12126671295E+00  0.51100000000E-03 0.  1.
         11    1    4    4    0    0  0.69933258843E-02  0.17434533947E-01 -0.97124928621E-02  0.21153326440E-01  0.51100000000E-03 0. -1.
</event>
<event>
 8    1  0.2190512E+004  0.1043930E+01  0.7957747E-01            NaN
         13   -1    0    0    0    0  0.00000000000E+00  0.00000000000E+00  0.74505805969E-08  0.10566000000E+00  0.10566000000E+00 0. -1.
     999900   -1    0    0    0    0 -0.00000000000E+00 -0.00000000000E+00 -0.74505805969E-08  0.93827000000E+00  0.93827000000E+00 0. -1.
     999902    2    1    2    0    0 -0.25509823428E-02  0.96135552459E-03 -0.14077094689E-01  0.10295913700E+01  0.10294915215E+01 0.  0.
     999903    2    3    3    0    0 -0.12643745165E+00 -0.18905772314E-01  0.33119493141E-01  0.13943965375E+00  0.44751076016E-01 0.  0.
         14    1    1    2    0    0  0.25509823428E-02 -0.96135552459E-03  0.14077094689E-01  0.14338629999E-01  0.00000000000E+00 0. -1.
     999901    1    3    3    0    0  0.12388646931E+00  0.19867127838E-01 -0.47196587829E-01  0.89015171625E+00  0.88000000000E+00 0. -1.
        -11    1    4    4    0    0 -0.12332426397E+00 -0.10028062545E-01  0.23442148958E-01  0.12593344111E+00  0.51100000000E-03 0. -1.
         11    1    4    4    0    0 -0.31131876814E-02 -0.88777097690E-02  0.96773441824E-02  0.13506212634E-01  0.51100000000E-03 0.  1.
</event>
<event>
 7    1  0.2190512E+004  0.1043930E+01  0.7957747E-01            NaN
         13   -1    0    0    0    0  0.00000000000E+00  0.00000000000E+00  0.74505805969E-08  0.10566000000E+00  0.10566000000E+00 0.  1.
     999900   -1    0    0    0    0 -0.00000000000E+00 -0.00000000000E+00 -0.74505805969E-08  0.93827000000E+00  0.93827000000E+00 0.  1.
     999903    2    1    2    0    0 -0.13446788411E-01 -0.51294901559E-01 -0.47100623840E-01  0.84142505539E-01  0.45271507903E-01 0.  0.
         14    1    1    2    0    0 -0.14637668437E-01 -0.64419161504E-01 -0.20579979939E-01  0.69192667823E-01  0.00000000000E+00 0. -1.
     999901    1    1    2    0    0  0.28084456848E-01  0.11571406306E+00  0.67680603779E-01  0.89059482664E+00  0.88000000000E+00 0.  1.
        -11    1    3    3    0    0  0.30442033043E-02 -0.47489593947E-01 -0.18810627540E-01  0.51172546707E-01  0.51100000000E-03 0.  1.
         11    1    3    3    0    0 -0.16490991715E-01 -0.38053076121E-02 -0.28289996300E-01  0.32969958832E-01  0.51100000000E-03 0. -1.
</event>
<event>
 8    1  0.2190512E+004  0.1043930E+01  0.7957747E-01            NaN
         13   -1    0    0    0    0  0.00000000000E+00  0.00000000000E+00  0.74505805969E-08  0.10566000000E+00  0.10566000000E+00 0. -1.
     999900   -1    0    0    0    0 -0.00000000000E+00 -0.00000000000E+00 -0.74505805969E-08  0.93827000000E+00  0.93827000000E+00 0. -1.
     999902    2    1    2    0    0  0.48116096997E-02  0.84965995074E-02 -0.10421592232E-01  0.10296487754E+01  0.10295497304E+01 0.  0.
     999903    2    3    3    0    0  0.11173488496E+00 -0.63714403826E-01  0.31440494507E-01  0.13925591263E+00  0.43121859125E-01 0.  0.
         14    1    1    2    0    0 -0.48116096997E-02 -0.84965995074E-02  0.10421592232E-01  0.14281224588E-01  0.00000000000E+00 0. -1.
     999901    1    3    3    0    0 -0.10692327526E+00  0.72211003334E-01 -0.41862086739E-01  0.89039286279E+00  0.88000000000E+00 0.  1.
        -11    1    4    4    0    0  0.97338983680E-01 -0.52106655883E-01  0.41795150551E-01  0.11805539827E+00  0.51100000000E-03 0.  1.
         11    1    4    4    0    0  0.14395901280E-01 -0.11607747944E-01 -0.10354656044E-01  0.21200514351E-01  0.51100000000E-03 0. -1.
</event>
<event>
 8    1  0.2190512E+004  0.1043930E+01  0.7957747E-01            NaN
         13   -1    0    0    0    0  0.00000000000E+00  0.00000000000E+00  0.74505805969E-08  0.10566000000E+00  0.10566000000E+00 0. -1.
     999900   -1    0    0    0    0 -0.00000000000E+00 -0.00000000000E+00 -0.74505805969E-08  0.93827000000E+00  0.93827000000E+00 0. -1.
     999902    2    1    2    0    0  0.43054852227E-02 -0.12506295908E-01 -0.51536706137E-02  0.10297347557E+01  0.10296369079E+01 0.  0.
     999903    2    3    3    0    0 -0.27114131619E-01 -0.12276989722E+00  0.43503044655E-01  0.14096440850E+00  0.46592121353E-01 0.  0.
         14    1    1    2    0    0 -0.43054852227E-02  0.12506295908E-01  0.51536706137E-02  0.14195244314E-01  0.00000000000E+00 0. -1.
     999901    1    3    3    0    0  0.31419616841E-01  0.11026360131E+00 -0.48656715268E-01  0.88877034719E+00  0.88000000000E+00 0. -1.
        -11    1    4    4    0    0 -0.28135236925E-01 -0.63548718439E-01  0.36954620244E-02  0.69598482258E-01  0.51100000000E-03 0.  1.
         11    1    4    4    0    0  0.10211053061E-02 -0.59221178783E-01  0.39807582630E-01  0.71365926242E-01  0.51100000000E-03 0. -1.
</event>
<event>
 8    1  0.2190512E+004  0.1043930E+01  0.7957747E-01            NaN
         13   -1    0    0    0    0  0.00000000000E+00  0.00000000000E+00  0.74505805969E-08  0.10566000000E+00  0.10566000000E+00 0. -1.
     999900   -1    0    0    0    0 -0.00000000000E+00 -0.00000000000E+00 -0.74505805969E-08  0.93827000000E+00  0.93827000000E+00 0.  1.
     999902    2    1    2    0    0  0.11034268200E-02 -0.12994562925E-01 -0.35416845543E-02  0.10304163126E+01  0.10303276943E+01 0.  0.
     999903    2    3    3    0    0  0.23221012602E-01  0.12720006030E+00  0.23600031540E-01  0.13863136507E+00  0.44075198533E-01 0.  0.
         14    1    1    2    0    0 -0.11034268200E-02  0.12994562925E-01  0.35416845543E-02  0.13513687351E-01  0.00000000000E+00 0. -1.
     999901    1    3    3    0    0 -0.22117585782E-01 -0.14019462322E+00 -0.27141716095E-01  0.89178494758E+00  0.88000000000E+00 0.  1.
        -11    1    4    4    0    0  0.98020967235E-03  0.86781547725E-01 -0.45300836761E-04  0.86788599537E-01  0.51100000000E-03 0.  1.
         11    1    4    4    0    0  0.22240802930E-01  0.40418512572E-01  0.23645332377E-01  0.51842765529E-01  0.51100000000E-03 0. -1.
</event>
<event>
 8    1  0.2190512E+004  0.1043930E+01  0.7957747E-01            NaN
         13   -1    0    0    0    0  0.00000000000E+00  0.00000000000E+00  0.74505805969E-08  0.10566000000E+00  0.10566000000E+00 0.  1.
     999900   -1    0    0    0    0 -0.00000000000E+00 -0.00000000000E+00 -0.74505805969E-08  0.93827000000E+00  0.93827000000E+00 0.  1.
     999902    2    1    2    0    0 -0.13205107854E-03 -0.12526851448E-01  0.57433981347E-02  0.10301486333E+01  0.10300564454E+01 0.  0.
     999903    2    3    3    0    0 -0.35069377201E-01  0.95594909413E-02  0.12831111066E+00  0.14069303163E+00  0.44827925944E-01 0.  0.
         14    1    1    2    0    0  0.13205107854E-03  0.12526851448E-01 -0.57433981347E-02  0.13781366653E-01  0.00000000000E+00 0.  1.
     999901    1    3    3    0    0  0.34937326123E-01 -0.22086342389E-01 -0.12256771253E+00  0.88945560172E+00  0.88000000000E+00 0.  1.
        -11    1    4    4    0    0 -0.35267426069E-01 -0.80299934690E-02  0.59203926365E-01  0.69380387392E-01  0.51100000000E-03 0. -1.
         11    1    4    4    0    0  0.19804886742E-03  0.17589484410E-01  0.69107184298E-01  0.71312644235E-01  0.51100000000E-03 0.  1.
</event>
<event>
 8    1  0.2190512E+004  0.1043930E+01  0.7957747E-01            NaN
         13   -1    0    0    0    0  0.00000000000E+00  0.00000000000E+00  0.74505805969E-08  0.10566000000E+00  0.10566000000E+00 0.  1.
     999900   -1    0    0    0    0 -0.00000000000E+00 -0.00000000000E+00 -0.74505805969E-08  0.93827000000E+00  0.93827000000E+00 0. -1.
     999902    2    1    2    0    0  0.12927456347E-02 -0.82259245797E-02  0.53850016719E-02  0.10340135859E+01  0.10339660345E+01 0.  0.
     999903    2    3    3    0    0  0.11257161847E+00 -0.24817845425E-01  0.73986874104E-01  0.14420209106E+00  0.45076499286E-01 0.  0.
         14    1    1    2    0    0 -0.12927456347E-02  0.82259245797E-02 -0.53850016719E-02  0.99164141439E-02  0.00000000000E+00 0.  1.
     999901    1    3    3    0    0 -0.11127887284E+00  0.16591920845E-01 -0.68601872432E-01  0.88981149480E+00  0.88000000000E+00 0. -1.
        -11    1    4    4    0    0  0.27345409000E-01  0.94498157935E-02  0.32180801444E-01  0.43277424998E-01  0.51100000000E-03 0. -1.
         11    1    4    4    0    0  0.85226209473E-01 -0.34267661218E-01  0.41806072660E-01  0.10092466606E+00  0.51100000000E-03 0.  1.
</event>
<event>
 8    1  0.2190512E+004  0.1043930E+01  0.7957747E-01            NaN
         13   -1    0    0    0    0  0.00000000000E+00  0.00000000000E+00  0.74505805969E-08  0.10566000000E+00  0.10566000000E+00 0.  1.
     999900   -1    0    0    0    0 -0.00000000000E+00 -0.00000000000E+00 -0.74505805969E-08  0.93827000000E+00  0.93827000000E+00 0. -1.
     999902    2    1    2    0    0  0.12539613674E-01  0.38058939619E-02 -0.10264684091E-02  0.10307854050E+01  0.10307015915E+01 0.  0.
     999903    2    3    3    0    0  0.95575086509E-01 -0.90885741610E-01 -0.24128498388E-01  0.14151879742E+00  0.45283224257E-01 0.  0.
         14    1    1    2    0    0 -0.12539613674E-01 -0.38058939619E-02  0.10264684091E-02  0.13144594986E-01  0.00000000000E+00 0.  1.
     999901    1    3    3    0    0 -0.83035472835E-01  0.94691635572E-01  0.23102029979E-01  0.88926660760E+00  0.88000000000E+00 0.  1.
        -11    1    4    4    0    0  0.78294540232E-02 -0.31173698034E-01  0.20158950504E-02  0.32209078740E-01  0.51100000000E-03 0.  1.
         11    1    4    4    0    0  0.87745632485E-01 -0.59712043577E-01 -0.26144393438E-01  0.10930971868E+00  0.51100000000E-03 0. -1.
</event>
<event>
 8    1  0.2190512E+004  0.1043930E+01  0.7957747E-01            NaN
         13   -1    0    0    0    0  0.00000000000E+00  0.00000000000E+00  0.74505805969E-08  0.10566000000E+00  0.10566000000E+00 0. -1.
     999900   -1    0    0    0    0 -0.00000000000E+00 -0.00000000000E+00 -0.74505805969E-08  0.93827000000E+00  0.93827000000E+00 0. -1.
     999902    2    1    2    0    0 -0.19224918731E-02 -0.12788410451E-01  0.27572982544E-02  0.10307072125E+01  0.10306223924E+01 0.  0.
     999903    2    3    3    0    0 -0.52411595504E-01 -0.12392532644E+00 -0.29478278121E-02  0.14226300366E+00  0.46104345187E-01 0.  0.
         14    1    1    2    0    0  0.19224918731E-02  0.12788410451E-01 -0.27572982544E-02  0.13222787548E-01  0.00000000000E+00 0.  1.
     999901    1    3    3    0    0  0.50489103631E-01  0.11113691598E+00  0.57051260665E-02  0.88844420880E+00  0.88000000000E+00 0.  1.
        -11    1    4    4    0    0 -0.18269524771E-01 -0.39370497697E-01 -0.22664214819E-01  0.48966717050E-01  0.51100000000E-03 0.  1.
         11    1    4    4    0    0 -0.34142070732E-01 -0.84554828739E-01  0.19716387007E-01  0.93296286606E-01  0.51100000000E-03 0. -1.
</event>
<event>
 8    1  0.2190512E+004  0.1043930E+01  0.7957747E-01            NaN
         13   -1    0    0    0    0  0.00000000000E+00  0.00000000000E+00  0.74505805969E-08  0.10566000000E+00  0.10566000000E+00 0.  1.
     999900   -1    0    0    0    0 -0.00000000000E+00 -0.00000000000E+00 -0.74505805969E-08  0.93827000000E+00  0.93827000000E+00 0. -1.
     999902    2    1    2    0    0  0.67831245612E-02  0.88200196177E-02  0.64400409756E-02  0.10310739643E+01  0.10309938129E+01 0.  0.
     999903    2    3    3    0    0  0.12905244036E+00  0.14620976302E-01 -0.35195275410E-01  0.14162641882E+00  0.44170462794E-01 0.  0.
         14    1    1    2    0    0 -0.67831245612E-02 -0.88200196177E-02 -0.64400409756E-02  0.12856035650E-01  0.00000000000E+00 0.  1.
     999901    1    3    3    0    0 -0.12226931580E+00 -0.58009566846E-02  0.41635316386E-01  0.88944754553E+00  0.88000000000E+00 0. -1.
        -11    1    4    4    0    0  0.10565053176E+00  0.29087093803E-01 -0.30104554406E-01  0.11364259414E+00  0.51100000000E-03 0. -1.
         11    1    4    4    0    0  0.23401908605E-01 -0.14466117501E-01 -0.50907210042E-02  0.27983824672E-01  0.51100000000E-03 0.  1.
</event>
<event>
 8    1  0.2190512E+004  0.1043930E+01  0.7957747E-01            NaN
         13   -1    0    0    0    0  0.00000000000E+00  0.00000000000E+00  0.74505805969E-08  0.10566000000E+00  0.10566000000E+00 0. -1.
     999900   -1    0    0    0    0 -0.00000000000E+00 -0.00000000000E+00 -0.74505805969E-08  0.93827000000E+00  0.93827000000E+00 0.  1.
     999902    2    1    2    0    0 -0.11639564545E-01  0.51959942422E-02 -0.73762847872E-02  0.10292029027E+01  0.10290975306E+01 0.  0.
     999903    2    3    3    0    0  0.16804081712E-03  0.11938131384E+00 -0.58200178204E-01  0.14029302258E+00  0.45198950305E-01 0.  0.
         14    1    1    2    0    0  0.11639564545E-01 -0.51959942422E-02  0.73762847872E-02  0.14727097345E-01  0.00000000000E+00 0. -1.
     999901    1    3    3    0    0 -0.11807605362E-01 -0.11418531960E+00  0.50823893417E-01  0.88890988008E+00  0.88000000000E+00 0. -1.
        -11    1    4    4    0    0  0.49134584236E-03  0.92640394338E-01 -0.64410511508E-01  0.11283376798E+00  0.51100000000E-03 0.  1.
         11    1    4    4    0    0 -0.32330502525E-03  0.26740919504E-01  0.62103333044E-02  0.27459254593E-01  0.51100000000E-03 0. -1.
</event>
<event>
 8    1  0.2190512E+004  0.1043930E+01  0.7957747E-01            NaN
         13   -1    0    0    0    0  0.00000000000E+00  0.00000000000E+00  0.74505805969E-08  0.10566000000E+00  0.10566000000E+00 0.  1.
     999900   -1    0    0    0    0 -0.00000000000E+00 -0.00000000000E+00 -0.74505805969E-08  0.93827000000E+00  0.93827000000E+00 0.  1.
     999902    2    1    2    0    0 -0.10754838219E-01 -0.41482403739E-02  0.86126358740E-02  0.10295407005E+01  0.10294401401E+01 0.  0.
     999903    2    3    3    0    0  0.68360226381E-02 -0.40773614371E-01 -0.12380509321E+00  0.13870664672E+00  0.46932013659E-01 0.  0.
         14    1    1    2    0    0  0.10754838219E-01  0.41482403739E-02 -0.86126358740E-02  0.14389299497E-01  0.00000000000E+00 0. -1.
     999901    1    3    3    0    0 -0.17590860857E-01  0.36625373997E-01  0.13241772908E+00  0.89083405378E+00  0.88000000000E+00 0. -1.
        -11    1    4    4    0    0 -0.16386946029E-01 -0.33824936979E-02 -0.20868827584E-01  0.26753361462E-01  0.51100000000E-03 0. -1.
         11    1    4    4    0    0  0.23222968667E-01 -0.37391120673E-01 -0.10293626562E+00  0.11195328526E+00  0.51100000000E-03 0.  1.
</event>
<event>
 8    1  0.2190512E+004  0.1043930E+01  0.7957747E-01            NaN
         13   -1    0    0    0    0  0.00000000000E+00  0.00000000000E+00  0.74505805969E-08  0.10566000000E+00  0.10566000000E+00 0. -1.
     999900   -1    0    0    0    0 -0.00000000000E+00 -0.00000000000E+00 -0.74505805969E-08  0.93827000000E+00  0.93827000000E+00 0.  1.
     999902    2    1    2    0    0 -0.99936284973E-02  0.72533058160E-02  0.44590941863E-02  0.10308011548E+01  0.10307175433E+01 0.  0.
     999903    2    3    3    0    0  0.48223416277E-01  0.58798513636E-01  0.10922415862E+00  0.14118221868E+00  0.47114105757E-01 0.  0.
         14    1    1    2    0    0  0.99936284973E-02 -0.72533058160E-02 -0.44590941863E-02  0.13128845218E-01  0.00000000000E+00 0.  1.
     999901    1    3    3    0    0 -0.58217044774E-01 -0.51545207820E-01 -0.10476506443E+00  0.88961893611E+00  0.88000000000E+00 0.  1.
        -11    1    4    4    0    0  0.35654556709E-01  0.12371988250E-01  0.68269387393E-01  0.78008229587E-01  0.51100000000E-03 0.  1.
         11    1    4    4    0    0  0.12568859568E-01  0.46426525386E-01  0.40954771226E-01  0.63173989089E-01  0.51100000000E-03 0. -1.
</event>
<event>
 8    1  0.2190512E+004  0.1043930E+01  0.7957747E-01            NaN
         13   -1    0    0    0    0  0.00000000000E+00  0.00000000000E+00  0.74505805969E-08  0.10566000000E+00  0.10566000000E+00 0.  1.
     999900   -1    0    0    0    0 -0.00000000000E+00 -0.00000000000E+00 -0.74505805969E-08  0.93827000000E+00  0.93827000000E+00 0.  1.
     999902    2    1    2    0    0  0.58567130154E-02  0.18167932789E-02  0.11524765147E-01  0.10308754208E+01  0.10307927586E+01 0.  0.
     999903    2    3    3    0    0 -0.72929176171E-01 -0.98652682393E-01  0.52441739520E-01  0.14072064180E+00  0.44734176010E-01 0.  0.
         14    1    1    2    0    0 -0.58567130154E-02 -0.18167932789E-02 -0.11524765147E-01  0.13054579153E-01  0.00000000000E+00 0. -1.
     999901    1    3    3    0    0  0.78785889187E-01  0.10046947567E+00 -0.40916974373E-01  0.89015477905E+00  0.88000000000E+00 0.  1.
        -11    1    4    4    0    0 -0.40316270569E-01 -0.69406647595E-01  0.54238899199E-01  0.96875196569E-01  0.51100000000E-03 0. -1.
         11    1    4    4    0    0 -0.32612905602E-01 -0.29246034798E-01 -0.17971596799E-02  0.43845445226E-01  0.51100000000E-03 0.  1.
</event>
<event>
 8    1  0.2190512E+004  0.1043930E+01  0.7957747E-01            NaN
         13   -1    0    0    0    0  0.00000000000E+00  0.00000000000E+00  0.74505805969E-08  0.10566000000E+00  0.10566000000E+00 0.  1.
     999900   -1    0    0    0    0 -0.00000000000E+00 -0.00000000000E+00 -0.74505805969E-08  0.93827000000E+00  0.93827000000E+00 0. -1.
     999902    2    1    2    0    0 -0.13409945504E-01  0.28577687062E-02 -0.35215220955E-02  0.10297739201E+01  0.10296766152E+01 0.  0.
     999903    2    3    3    0    0  0.50037399467E-01 -0.11421115728E+00 -0.41747944487E-01  0.13893613554E+00  0.44860105874E-01 0.  0.
         14    1    1    2    0    0  0.13409945504E-01 -0.28577687062E-02  0.35215220955E-02  0.14156079905E-01  0.00000000000E+00 0.  1.
     999901    1    3    3    0    0 -0.63447344971E-01  0.11706892598E+00  0.38226422391E-01  0.89083778455E+00  0.88000000000E+00 0.  1.
        -11    1    4    4    0    0  0.17938850942E-02 -0.54989336148E-01 -0.86897991989E-02  0.55702951850E-01  0.51100000000E-03 0. -1.
         11    1    4    4    0    0  0.48243514373E-01 -0.59221821130E-01 -0.33058145288E-01  0.83233183694E-01  0.51100000000E-03 0.  1.
</event>
<event>
 8    1  0.2190512E+004  0.1043930E+01  0.7957747E-01            NaN
         13   -1    0    0    0    0  0.00000000000E+00  0.00000000000E+00  0.74505805969E-08  0.10566000000E+00  0.10566000000E+00 0. -1.
     999900   -1    0    0    0    0 -0.00000000000E+00 -0.00000000000E+00 -0.74505805969E-08  0.93827000000E+00  0.93827000000E+00 0. -1.
     999902    2    1    2    0    0  0.27393949231E-02 -0.14616285848E-02  0.13297519357E-01  0.10302747935E+01  0.10301842969E+01 0.  0.
     999903    2    3    3    0    0 -0.12381947856E+00  0.43780093081E-01  0.20026288814E-01  0.14004491413E+00  0.44312141795E-01 0.  0.
         14    1    1    2    0    0 -0.27393949231E-02  0.14616285848E-02 -0.13297519357E-01  0.13655206469E-01  0.00000000000E+00 0.  1.
     999901    1    3    3    0    0  0.12655887348E+00 -0.45241721666E-01 -0.67287694568E-02  0.89022987940E+00  0.88000000000E+00 0.  1.
        -11    1    4    4    0    0 -0.67616144966E-01  0.37596099620E-01  0.29329461423E-01  0.82739882735E-01  0.51100000000E-03 0. -1.
         11    1    4    4    0    0 -0.56203333591E-01  0.61839934613E-02 -0.93031726090E-02  0.57305031397E-01  0.51100000000E-03 0.  1.
</event>
<event>
 8    1  0.2190512E+004  0.1043930E+01  0.7957747E-01            NaN
         13   -1    0    0    0    0  0.00000000000E+00  0.00000000000E+00  0.74505805969E-08  0.10566000000E+00  0.10566000000E+00 0.  1.
     999900   -1    0    0    0    0 -0.00000000000E+00 -0.00000000000E+00 -0.74505805969E-08  0.93827000000E+00  0.93827000000E+00 0.  1.
     999902    2    1    2    0    0  0.15247142951E-01 -0.84387716438E-02  0.19728158944E-03  0.10265022303E+01  0.10263542769E+01 0.  0.
     999903    2    3    3    0    0  0.27473881110E-01 -0.20796951937E-01  0.12497382586E+00  0.13753012519E+00  0.45921137086E-01 0.  0.
         14    1    1    2    0    0 -0.15247142951E-01  0.84387716438E-02 -0.19728158944E-03  0.17427769652E-01  0.00000000000E+00 0. -1.
     999901    1    3    3    0    0 -0.12226738159E-01  0.12358180293E-01 -0.12477654427E+00  0.88897210516E+00  0.88000000000E+00 0.  1.
        -11    1    4    4    0    0  0.29440650807E-01 -0.33458722631E-01  0.95613661116E-01  0.10549157006E+00  0.51100000000E-03 0. -1.
         11    1    4    4    0    0 -0.19667696974E-02  0.12661770694E-01  0.29360164746E-01  0.32038555134E-01  0.51100000000E-03 0.  1.
</event>
<event>
 8    1  0.2190512E+004  0.1043930E+01  0.7957747E-01            NaN
         13   -1    0    0    0    0  0.00000000000E+00  0.00000000000E+00  0.74505805969E-08  0.10566000000E+00  0.10566000000E+00 0.  1.
     999900   -1    0    0    0    0 -0.00000000000E+00 -0.00000000000E+00 -0.74505805969E-08  0.93827000000E+00  0.93827000000E+00 0.  1.
     999902    2    1    2    0    0  0.30671059044E-02  0.14237791226E-01  0.11097754986E-02  0.10293233769E+01  0.10292197339E+01 0.  0.
     999903    2    3    3    0    0 -0.70696730748E-01  0.16621522791E-01  0.11003199055E+00  0.13954203592E+00  0.45723495998E-01 0.  0.
         14    1    1    2    0    0 -0.30671059044E-02 -0.14237791226E-01 -0.11097754986E-02  0.14606623131E-01  0.00000000000E+00 0.  1.
     999901    1    3    3    0    0  0.73763836652E-01 -0.23837315651E-02 -0.10892221505E+00  0.88978134095E+00  0.88000000000E+00 0.  1.
        -11    1    4    4    0    0 -0.44452601965E-01  0.87124423708E-02  0.10097260708E+00  0.11066918711E+00  0.51100000000E-03 0. -1.
         11    1    4    4    0    0 -0.26244128783E-01  0.79090804202E-02  0.90593834667E-02  0.28872848811E-01  0.51100000000E-03 0.  1.
</event>
<event>
 8    1  0.2190512E+004  0.1043930E+01  0.7957747E-01            NaN
         13   -1    0    0    0    0  0.00000000000E+00  0.00000000000E+00  0.74505805969E-08  0.10566000000E+00  0.10566000000E+00 0. -1.
     999900   -1    0    0    0    0 -0.00000000000E+00 -0.00000000000E+00 -0.74505805969E-08  0.93827000000E+00  0.93827000000E+00 0. -1.
     999902    2    1    2    0    0 -0.53610219741E-02 -0.85771495617E-02 -0.93444938211E-02  0.10301594657E+01  0.10300674236E+01 0.  0.
     999903    2    3    3    0    0 -0.65305665478E-01 -0.95555585560E-01 -0.67813265054E-01  0.14191557696E+00  0.46321616876E-01 0.  0.
         14    1    1    2    0    0  0.53610219741E-02  0.85771495617E-02  0.93444938211E-02  0.13770534339E-01  0.00000000000E+00 0. -1.
     999901    1    3    3    0    0  0.59944643504E-01  0.86978435999E-01  0.58468771233E-01  0.88824388871E+00  0.88000000000E+00 0.  1.
        -11    1    4    4    0    0 -0.37791311138E-02 -0.25127062801E-01 -0.34047110506E-01  0.42486679934E-01  0.51100000000E-03 0.  1.
         11    1    4    4    0    0 -0.61526534364E-01 -0.70428522759E-01 -0.33766154547E-01  0.99428897021E-01  0.51100000000E-03 0. -1.
</event>
<event>
 8    1  0.2190512E+004  0.1043930E+01  0.7957747E-01            NaN
         13   -1    0    0    0    0  0.00000000000E+00  0.00000000000E+00  0.74505805969E-08  0.10566000000E+00  0.10566000000E+00 0.  1.
     999900   -1    0    0    0    0 -0.00000000000E+00 -0.00000000000E+00 -0.74505805969E-08  0.93827000000E+00  0.93827000000E+00 0. -1.
     999902    2    1    2    0    0  0.12240272142E-01  0.35232865622E-02  0.22841254856E-02  0.10309895580E+01  0.10309083440E+01 0.  0.
     999903    2    3    3    0    0 -0.56805768152E-02  0.62951071678E-01 -0.11741587952E+00  0.14071942501E+00  0.44948430828E-01 0.  0.
         14    1    1    2    0    0 -0.12240272142E-01 -0.35232865622E-02 -0.22841254856E-02  0.12940442015E-01  0.00000000000E+00 0. -1.
     999901    1    3    3    0    0  0.17920848958E-01 -0.59427785116E-01  0.11970000500E+00  0.89027013298E+00  0.88000000000E+00 0.  1.
        -11    1    4    4    0    0  0.39798232190E-02  0.64834292227E-01 -0.85883103180E-01  0.10768237077E+00  0.51100000000E-03 0. -1.
         11    1    4    4    0    0 -0.96604000342E-02 -0.18832205486E-02 -0.31532776336E-01  0.33037054241E-01  0.51100000000E-03 0.  1.
</event>
<event>
 8    1  0.2190512E+004  0.1043930E+01  0.7957747E-01            NaN
         13   -1    0    0    0    0  0.00000000000E+00  0.00000000000E+00  0.74505805969E-08  0.10566000000E+00  0.10566000000E+00 0.  1.
     999900   -1    0    0    0    0 -0.00000000000E+00 -0.00000000000E+00 -0.74505805969E-08  0.93827000000E+00  0.93827000000E+00 0.  1.
     999902    2    1    2    0    0 -0.99329459817E-04 -0.11226381779E-01  0.73123581141E-02  0.10305317876E+01  0.10304446871E+01 0.  0.
     999903    2    3    3    0    0  0.51065785367E-01  0.11990521506E+00 -0.17395518215E-01  0.13900285155E+00  0.45102257733E-01 0.  0.
         14    1    1    2    0    0  0.99329459817E-04  0.11226381779E-01 -0.73123581141E-02  0.13398212395E-01  0.00000000000E+00 0. -1.
     999901    1    3    3    0    0 -0.51165114827E-01 -0.13113159684E+00  0.24707876329E-01  0.89152893605E+00  0.88000000000E+00 0.  1.
        -11    1    4    4    0    0  0.42232603990E-01  0.72521699193E-01 -0.30092533013E-01  0.89156106676E-01  0.51100000000E-03 0. -1.
         11    1    4    4    0    0  0.88331813771E-02  0.47383515866E-01  0.12697014798E-01  0.49846744877E-01  0.51100000000E-03 0.  1.
</event>
<event>
 8    1  0.2896950E+004  0.1043930E+01  0.7957747E-01            NaN
         13   -1    0    0    0    0  0.00000000000E+00  0.00000000000E+00  0.74505805969E-08  0.10566000000E+00  0.10566000000E+00 0.  1.
     999900   -1    0    0    0    0 -0.00000000000E+00 -0.00000000000E+00 -0.74505805969E-08  0.93827000000E+00  0.93827000000E+00 0.  1.
     999902    2    1    2    0    0 -0.96673583300E-02  0.46417523348E-02 -0.85055542019E-02  0.10302424825E+01  0.10301515542E+01 0.  0.
     999903    2    3    3    0    0 -0.75754169794E-01 -0.97014859875E-01 -0.51597856016E-01  0.14088401717E+00  0.45115299746E-01 0.  0.
         14    1    1    2    0    0  0.96673583300E-02 -0.46417523348E-02  0.85055542019E-02  0.13687517456E-01  0.00000000000E+00 0. -1.
     999901    1    3    3    0    0  0.66086811464E-01  0.10165661221E+00  0.43092301814E-01  0.88935846537E+00  0.88000000000E+00 0. -1.
        -11    1    4    4    0    0 -0.52044328280E-01 -0.33317154205E-01 -0.14603812416E-01  0.63499427782E-01  0.51100000000E-03 0. -1.
         11    1    4    4    0    0 -0.23709841514E-01 -0.63697705670E-01 -0.36994043599E-01  0.77384589390E-01  0.51100000000E-03 0.  1.
</event>
<event>
 8    1  0.2190512E+004  0.1043930E+01  0.7957747E-01            NaN
         13   -1    0    0    0    0  0.00000000000E+00  0.00000000000E+00  0.74505805969E-08  0.10566000000E+00  0.10566000000E+00 0.  1.
     999900   -1    0    0    0    0 -0.00000000000E+00 -0.00000000000E+00 -0.74505805969E-08  0.93827000000E+00  0.93827000000E+00 0.  1.
     999902    2    1    2    0    0  0.11963173538E-01  0.27883067055E-02  0.72676753352E-02  0.10296572539E+01  0.10295583273E+01 0.  0.
     999903    2    3    3    0    0 -0.66330720185E-01  0.83965303782E-01  0.77956313477E-01  0.13964797184E+00  0.44434587318E-01 0.  0.
         14    1    1    2    0    0 -0.11963173538E-01 -0.27883067055E-02 -0.72676753352E-02  0.14272746062E-01  0.00000000000E+00 0. -1.
     999901    1    3    3    0    0  0.78293893723E-01 -0.81176997076E-01 -0.70688638142E-01  0.89000928209E+00  0.88000000000E+00 0.  1.
        -11    1    4    4    0    0 -0.18320891258E-01  0.58875095237E-01  0.43044101718E-01  0.75199652322E-01  0.51100000000E-03 0.  1.
         11    1    4    4    0    0 -0.48009828927E-01  0.25090208545E-01  0.34912211759E-01  0.64448319523E-01  0.51100000000E-03 0. -1.
</event>
<event>
 8    1  0.2190512E+004  0.1043930E+01  0.7957747E-01            NaN
         13   -1    0    0    0    0  0.00000000000E+00  0.00000000000E+00  0.74505805969E-08  0.10566000000E+00  0.10566000000E+00 0.  1.
     999900   -1    0    0    0    0 -0.00000000000E+00 -0.00000000000E+00 -0.74505805969E-08  0.93827000000E+00  0.93827000000E+00 0.  1.
     999902    2    1    2    0    0  0.10321483278E-01 -0.91987173315E-02 -0.53697697811E-03  0.10300938964E+01  0.10300009698E+01 0.  0.
     999903    2    3    3    0    0 -0.83252633951E-01 -0.87653188918E-01  0.54389217286E-01  0.13996575603E+00  0.44923750027E-01 0.  0.
         14    1    1    2    0    0 -0.10321483278E-01  0.91987173315E-02  0.53697697811E-03  0.13836103565E-01  0.00000000000E+00 0. -1.
     999901    1    3    3    0    0  0.93574117228E-01  0.78454471586E-01 -0.54926194264E-01  0.89012814041E+00  0.88000000000E+00 0.  1.
        -11    1    4    4    0    0 -0.17840380148E-01 -0.50675036682E-01  0.20002467107E-01  0.57328861125E-01  0.51100000000E-03 0. -1.
         11    1    4    4    0    0 -0.65412253803E-01 -0.36978152235E-01  0.34386750179E-01  0.82636894903E-01  0.51100000000E-03 0.  1.
</event>
<event>
 8    1  0.2190512E+004  0.1043930E+01  0.7957747E-01            NaN
         13   -1    0    0    0    0  0.00000000000E+00  0.00000000000E+00  0.74505805969E-08  0.10566000000E+00  0.10566000000E+00 0. -1.
     999900   -1    0    0    0    0 -0.00000000000E+00 -0.00000000000E+00 -0.74505805969E-08  0.93827000000E+00  0.93827000000E+00 0. -1.
     999902    2    1    2    0    0  0.14198389453E-01  0.26646914206E-02  0.11369713240E-03  0.10294832782E+01  0.10293819079E+01 0.  0.
     999903    2    3    3    0    0  0.10832803784E-01 -0.55913895004E-01 -0.11905515276E+00  0.13951474352E+00  0.45238489886E-01 0.  0.
         14    1    1    2    0    0 -0.14198389453E-01 -0.26646914206E-02 -0.11369713240E-03  0.14446721790E-01  0.00000000000E+00 0.  1.
     999901    1    3    3    0    0  0.33655856692E-02  0.58578586425E-01  0.11916884990E+00  0.88996853469E+00  0.88000000000E+00 0.  1.
        -11    1    4    4    0    0  0.19774960208E-01 -0.20417038720E-01 -0.84572336177E-01  0.89222450587E-01  0.51100000000E-03 0. -1.
         11    1    4    4    0    0 -0.89421564240E-02 -0.35496856285E-01 -0.34482816588E-01  0.50292292933E-01  0.51100000000E-03 0.  1.
</event>
<event>
 8    1  0.2190512E+004  0.1043930E+01  0.7957747E-01            NaN
         13   -1    0    0    0    0  0.00000000000E+00  0.00000000000E+00  0.74505805969E-08  0.10566000000E+00  0.10566000000E+00 0.  1.
     999900   -1    0    0    0    0 -0.00000000000E+00 -0.00000000000E+00 -0.74505805969E-08  0.93827000000E+00  0.93827000000E+00 0.  1.
     999902    2    1    2    0    0  0.27659038173E-02 -0.13727078017E-01 -0.11644157222E-02  0.10298787097E+01  0.10297828499E+01 0.  0.
     999903    2    3    3    0    0 -0.17832144383E-01  0.99264765942E-01  0.83537689136E-01  0.13838228069E+00  0.44717233500E-01 0.  0.
         14    1    1    2    0    0 -0.27659038173E-02  0.13727078017E-01  0.11644157222E-02  0.14051290289E-01  0.00000000000E+00 0.  1.
     999901    1    3    3    0    0  0.20598048201E-01 -0.11299184396E+00 -0.84702104858E-01  0.89149642902E+00  0.88000000000E+00 0.  1.
        -11    1    4    4    0    0 -0.32504508362E-02  0.86339574103E-01  0.81514430886E-01  0.11878531496E+00  0.51100000000E-03 0.  1.
         11    1    4    4    0    0 -0.14581693547E-01  0.12925191838E-01  0.20232582494E-02  0.19596965727E-01  0.51100000000E-03 0. -1.
</event>
<event>
 8    1  0.2190512E+004  0.1043930E+01  0.7957747E-01            NaN
         13   -1    0    0    0    0  0.00000000000E+00  0.00000000000E+00  0.74505805969E-08  0.10566000000E+00  0.10566000000E+00 0. -1.
     999900   -1    0    0    0    0 -0.00000000000E+00 -0.00000000000E+00 -0.74505805969E-08  0.93827000000E+00  0.93827000000E+00 0. -1.
     999902    2    1    2    0    0 -0.42741083922E-02  0.10317098226E-01 -0.74881050624E-02  0.10304844715E+01  0.10303967507E+01 0.  0.
     999903    2    3    3    0    0 -0.77110591534E-01  0.10009909716E+00 -0.47275687712E-01  0.14203131444E+00  0.44407556272E-01 0.  0.
         14    1    1    2    0    0  0.42741083922E-02 -0.10317098226E-01  0.74881050624E-02  0.13445528468E-01  0.00000000000E+00 0. -1.
     999901    1    3    3    0    0  0.72836483142E-01 -0.89781998937E-01  0.39787582649E-01  0.88845315709E+00  0.88000000000E+00 0.  1.
        -11    1    4    4    0    0 -0.57044555893E-01  0.38357471582E-01 -0.19833655225E-01  0.71547270973E-01  0.51100000000E-03 0. -1.
         11    1    4    4    0    0 -0.20066035642E-01  0.61741625581E-01 -0.27442032487E-01  0.70484043469E-01  0.51100000000E-03 0.  1.
</event>
<event>
 8    1  0.2190512E+004  0.1043930E+01  0.7957747E-01            NaN
         13   -1    0    0    0    0  0.00000000000E+00  0.00000000000E+00  0.74505805969E-08  0.10566000000E+00  0.10566000000E+00 0.  1.
     999900   -1    0    0    0    0 -0.00000000000E+00 -0.00000000000E+00 -0.74505805969E-08  0.93827000000E+00  0.93827000000E+00 0.  1.
     999902    2    1    2    0    0 -0.67931543639E-02  0.46279327510E-02 -0.10131358552E-01  0.10308835777E+01  0.10308010195E+01 0.  0.
     999903    2    3    3    0    0 -0.10912357972E+00 -0.23176314932E-01 -0.76246323313E-01  0.14205525871E+00  0.43830326069E-01 0.  0.
         14    1    1    2    0    0  0.67931543639E-02 -0.46279327510E-02  0.10131358552E-01  0.13046422263E-01  0.00000000000E+00 0.  1.
     999901    1    3    3    0    0  0.10233042536E+00  0.27804247683E-01  0.66114964761E-01  0.88882831903E+00  0.88000000000E+00 0.  1.
        -11    1    4    4    0    0 -0.28872993312E-01 -0.23647150020E-01 -0.11851988466E-01  0.39160799257E-01  0.51100000000E-03 0.  1.
         11    1    4    4    0    0 -0.80250586407E-01  0.47083508787E-03 -0.64394334846E-01  0.10289445945E+00  0.51100000000E-03 0. -1.
</event>
<event>
 8    1  0.2190512E+004  0.1043930E+01  0.7957747E-01            NaN
         13   -1    0    0    0    0  0.00000000000E+00  0.00000000000E+00  0.74505805969E-08  0.10566000000E+00  0.10566000000E+00 0. -1.
     999900   -1    0    0    0    0 -0.00000000000E+00 -0.00000000000E+00 -0.74505805969E-08  0.93827000000E+00  0.93827000000E+00 0. -1.
     999902    2    1    2    0    0 -0.42182392060E-02  0.20264733450E-02  0.14783955353E-01  0.10284230508E+01  0.10283061344E+01 0.  0.
     999903    2    3    3    0    0  0.95300457739E-01  0.58219220711E-01  0.69560154828E-01  0.13934373609E+00  0.45895607003E-01 0.  0.
         14    1    1    2    0    0  0.42182392060E-02 -0.20264733450E-02 -0.14783955353E-01  0.15506949155E-01  0.00000000000E+00 0.  1.
     999901    1    3    3    0    0 -0.99518696945E-01 -0.56192747366E-01 -0.54776199475E-01  0.88907931476E+00  0.88000000000E+00 0.  1.
        -11    1    4    4    0    0  0.50392467328E-01  0.21652974932E-01  0.90619726113E-02  0.55593457847E-01  0.51100000000E-03 0. -1.
         11    1    4    4    0    0  0.44907990412E-01  0.36566245778E-01  0.60498182216E-01  0.83750278242E-01  0.51100000000E-03 0.  1.
</event>
<event>
 8    1  0.2190512E+004  0.1043930E+01  0.7957747E-01            NaN
         13   -1    0    0    0    0  0.00000000000E+00  0.00000000000E+00  0.74505805969E-08  0.10566000000E+00  0.10566000000E+00 0.  1.
     999900   -1    0    0    0    0 -0.00000000000E+00 -0.00000000000E+00 -0.74505805969E-08  0.93827000000E+00  0.93827000000E+00 0. -1.
     999902    2    1    2    0    0 -0.76158494968E-02 -0.10507224782E-01 -0.57719421645E-02  0.10297272449E+01  0.10296292928E+01 0.  0.
     999903    2    3    3    0    0 -0.66245836593E-01  0.11190651701E+00  0.20514435035E-01  0.13893345664E+00  0.44385627356E-01 0.  0.
         14    1    1    2    0    0  0.76158494968E-02  0.10507224782E-01  0.57719421645E-02  0.14202755103E-01  0.00000000000E+00 0. -1.
     999901    1    3    3    0    0  0.58629987096E-01 -0.12241374179E+00 -0.26286377199E-01  0.89079378825E+00  0.88000000000E+00 0. -1.
        -11    1    4    4    0    0 -0.11838390476E-01  0.52142628407E-01 -0.61551661502E-02  0.53825164910E-01  0.51100000000E-03 0.  1.
         11    1    4    4    0    0 -0.54407446116E-01  0.59763888599E-01  0.26669601185E-01  0.85108291733E-01  0.51100000000E-03 0. -1.
</event>
<event>
 8    1  0.2190512E+004  0.1043930E+01  0.7957747E-01            NaN
         13   -1    0    0    0    0  0.00000000000E+00  0.00000000000E+00  0.74505805969E-08  0.10566000000E+00  0.10566000000E+00 0.  1.
     999900   -1    0    0    0    0 -0.00000000000E+00 -0.00000000000E+00 -0.74505805969E-08  0.93827000000E+00  0.93827000000E+00 0.  1.
     999902    2    1    2    0    0 -0.10826218301E-01 -0.71559523724E-02  0.43017903695E-02  0.10302581290E+01  0.10301674098E+01 0.  0.
     999903    2    3    3    0    0  0.49273125641E-01 -0.11496168587E+00 -0.44781900743E-01  0.14029003064E+00  0.45075979567E-01 0.  0.
         14    1    1    2    0    0  0.10826218301E-01  0.71559523724E-02 -0.43017903695E-02  0.13671871029E-01  0.00000000000E+00 0. -1.
     999901    1    3    3    0    0 -0.60099343942E-01  0.10780573350E+00  0.49083691112E-01  0.88996809833E+00  0.88000000000E+00 0. -1.
        -11    1    4    4    0    0 -0.43674739772E-02 -0.34758873241E-01 -0.21238387567E-01  0.40970529962E-01  0.51100000000E-03 0. -1.
         11    1    4    4    0    0  0.53640599618E-01 -0.80202812629E-01 -0.23543513176E-01  0.99319500676E-01  0.51100000000E-03 0.  1.
</event>
<event>
 8    1  0.2190512E+004  0.1043930E+01  0.7957747E-01            NaN
         13   -1    0    0    0    0  0.00000000000E+00  0.00000000000E+00  0.74505805969E-08  0.10566000000E+00  0.10566000000E+00 0.  1.
     999900   -1    0    0    0    0 -0.00000000000E+00 -0.00000000000E+00 -0.74505805969E-08  0.93827000000E+00  0.93827000000E+00 0. -1.
     999902    2    1    2    0    0 -0.10013821575E-01  0.29773133666E-02  0.10071151001E-01  0.10294190007E+01  0.10293167199E+01 0.  0.
     999903    2    3    3    0    0 -0.40252854013E-01 -0.72198714065E-01 -0.10146971751E+00  0.13868492170E+00  0.45874365038E-01 0.  0.
         14    1    1    2    0    0  0.10013821575E-01 -0.29773133666E-02 -0.10071151001E-01  0.14510999273E-01  0.00000000000E+00 0. -1.
     999901    1    3    3    0    0  0.30239032437E-01  0.75176027432E-01  0.11154086851E+00  0.89073407902E+00  0.88000000000E+00 0.  1.
        -11    1    4    4    0    0 -0.27095120334E-01 -0.26623366123E-01 -0.75700943192E-01  0.84698542436E-01  0.51100000000E-03 0. -1.
         11    1    4    4    0    0 -0.13157733678E-01 -0.45575347943E-01 -0.25768774319E-01  0.53986379268E-01  0.51100000000E-03 0.  1.
</event>
<event>
 8    1  0.2190512E+004  0.1043930E+01  0.7957747E-01            NaN
         13   -1    0    0    0    0  0.00000000000E+00  0.00000000000E+00  0.74505805969E-08  0.10566000000E+00  0.10566000000E+00 0.  1.
     999900   -1    0    0    0    0 -0.00000000000E+00 -0.00000000000E+00 -0.74505805969E-08  0.93827000000E+00  0.93827000000E+00 0.  1.
     999902    2    1    2    0    0  0.12387457610E-01 -0.13455484749E-02  0.60812484067E-02  0.10300648931E+01  0.10299715738E+01 0.  0.
     999903    2    3    3    0    0  0.61152691117E-01 -0.30011588703E-01  0.11494044008E+00  0.14155484057E+00  0.46755973265E-01 0.  0.
         14    1    1    2    0    0 -0.12387457610E-01  0.13455484749E-02 -0.60812484067E-02  0.13865106885E-01  0.00000000000E+00 0. -1.
     999901    1    3    3    0    0 -0.48765233506E-01  0.28666040228E-01 -0.10885919167E+00  0.88851005254E+00  0.88000000000E+00 0.  1.
        -11    1    4    4    0    0  0.27229490300E-01 -0.29917956503E-01  0.92271377585E-01  0.10075116628E+00  0.51100000000E-03 0. -1.
         11    1    4    4    0    0  0.33923200816E-01 -0.93632200215E-04  0.22669062494E-01  0.40803674295E-01  0.51100000000E-03 0.  1.
</event>
<event>
 8    1  0.2190512E+004  0.1043930E+01  0.7957747E-01            NaN
         13   -1    0    0    0    0  0.00000000000E+00  0.00000000000E+00  0.74505805969E-08  0.10566000000E+00  0.10566000000E+00 0. -1.
     999900   -1    0    0    0    0 -0.00000000000E+00 -0.00000000000E+00 -0.74505805969E-08  0.93827000000E+00  0.93827000000E+00 0. -1.
     999902    2    1    2    0    0 -0.50630501913E-02  0.12028568593E-01  0.44828375939E-02  0.10301308416E+01  0.10300384139E+01 0.  0.
     999903    2    3    3    0    0  0.11836786344E+00 -0.47880839290E-01 -0.30792202101E-01  0.13880112931E+00  0.44878368051E-01 0.  0.
         14    1    1    2    0    0  0.50630501913E-02 -0.12028568593E-01 -0.44828375939E-02  0.13799158399E-01  0.00000000000E+00 0. -1.
     999901    1    3    3    0    0 -0.12343091364E+00  0.59909407883E-01  0.35275039695E-01  0.89132971229E+00  0.88000000000E+00 0.  1.
        -11    1    4    4    0    0  0.97392740020E-01 -0.18759272816E-01 -0.26423023711E-01  0.10264352599E+00  0.51100000000E-03 0. -1.
         11    1    4    4    0    0  0.20975123425E-01 -0.29121566475E-01 -0.43691783904E-02  0.36157603314E-01  0.51100000000E-03 0.  1.
</event>
<event>
 8    1  0.2190512E+004  0.1043930E+01  0.7957747E-01            NaN
         13   -1    0    0    0    0  0.00000000000E+00  0.00000000000E+00  0.74505805969E-08  0.10566000000E+00  0.10566000000E+00 0.  1.
     999900   -1    0    0    0    0 -0.00000000000E+00 -0.00000000000E+00 -0.74505805969E-08  0.93827000000E+00  0.93827000000E+00 0. -1.
     999902    2    1    2    0    0 -0.92268050458E-02  0.10800857230E-01 -0.19731803357E-02  0.10295882467E+01  0.10294883544E+01 0.  0.
     999903    2    3    3    0    0  0.21190666608E-01  0.96875596622E-01  0.88718810011E-01  0.14022942118E+00  0.44264407175E-01 0.  0.
         14    1    1    2    0    0  0.92268050458E-02 -0.10800857230E-01  0.19731803357E-02  0.14341753341E-01  0.00000000000E+00 0. -1.
     999901    1    3    3    0    0 -0.30417471654E-01 -0.86074739392E-01 -0.90691990347E-01  0.88935882548E+00  0.88000000000E+00 0. -1.
        -11    1    4    4    0    0  0.27844927631E-02  0.41516307017E-01  0.10986088238E-01  0.43038499091E-01  0.51100000000E-03 0.  1.
         11    1    4    4    0    0  0.18406173845E-01  0.55359289605E-01  0.77732721774E-01  0.97190922089E-01  0.51100000000E-03 0. -1.
</event>
<event>
 8    1  0.2190512E+004  0.1043930E+01  0.7957747E-01            NaN
         13   -1    0    0    0    0  0.00000000000E+00  0.00000000000E+00  0.74505805969E-08  0.10566000000E+00  0.10566000000E+00 0. -1.
     999900   -1    0    0    0    0 -0.00000000000E+00 -0.00000000000E+00 -0.74505805969E-08  0.93827000000E+00  0.93827000000E+00 0. -1.
     999902    2    1    2    0    0 -0.20927765847E-02  0.13488702563E-01 -0.19792496612E-02  0.10301371671E+01  0.10300448246E+01 0.  0.
     999903    2    3    3    0    0 -0.10550749509E+00 -0.62787356918E-01 -0.49031764264E-01  0.13956062327E+00  0.44709841785E-01 0.  0.
         14    1    1    2    0    0  0.20927765847E-02 -0.13488702563E-01  0.19792496612E-02  0.13792832917E-01  0.00000000000E+00 0. -1.
     999901    1    3    3    0    0  0.10341471851E+00  0.76276059481E-01  0.47052514603E-01  0.89057654381E+00  0.88000000000E+00 0.  1.
        -11    1    4    4    0    0 -0.20754862016E-01 -0.31694205263E-01 -0.27313434301E-01  0.46707298775E-01  0.51100000000E-03 0. -1.
         11    1    4    4    0    0 -0.84752633074E-01 -0.31093151655E-01 -0.21718329963E-01  0.92853324498E-01  0.51100000000E-03 0.  1.
</event>
<event>
 8    1  0.2190512E+004  0.1043930E+01  0.7957747E-01            NaN
         13   -1    0    0    0    0  0.00000000000E+00  0.00000000000E+00  0.74505805969E-08  0.10566000000E+00  0.10566000000E+00 0. -1.
     999900   -1    0    0    0    0 -0.00000000000E+00 -0.00000000000E+00 -0.74505805969E-08  0.93827000000E+00  0.93827000000E+00 0. -1.
     999902    2    1    2    0    0 -0.63474427662E-03 -0.36990090530E-03  0.13454710373E-01  0.10304552474E+01  0.10303671423E+01 0.  0.
     999903    2    3    3    0    0  0.21640656435E-01  0.50407031859E-01 -0.11927333525E+00  0.13877636770E+00  0.44984051155E-01 0.  0.
         14    1    1    2    0    0  0.63474427662E-03  0.36990090530E-03 -0.13454710373E-01  0.13474752621E-01  0.00000000000E+00 0.  1.
     999901    1    3    3    0    0 -0.22275400711E-01 -0.50776932764E-01  0.13272804562E+00  0.89167887968E+00  0.88000000000E+00 0. -1.
        -11    1    4    4    0    0  0.35842287827E-02  0.44311158557E-01 -0.49906691060E-01  0.66837597220E-01  0.51100000000E-03 0.  1.
         11    1    4    4    0    0  0.18056427652E-01  0.60958733021E-02 -0.69366644187E-01  0.71938770476E-01  0.51100000000E-03 0. -1.
</event>
<event>
 8    1  0.2190512E+004  0.1043930E+01  0.7957747E-01            NaN
         13   -1    0    0    0    0  0.00000000000E+00  0.00000000000E+00  0.74505805969E-08  0.10566000000E+00  0.10566000000E+00 0.  1.
     999900   -1    0    0    0    0 -0.00000000000E+00 -0.00000000000E+00 -0.74505805969E-08  0.93827000000E+00  0.93827000000E+00 0. -1.
     999902    2    1    2    0    0  0.13974214820E-01  0.33085100974E-02 -0.26365998634E-03  0.10295670464E+01  0.10294668565E+01 0.  0.
     999903    2    3    3    0    0 -0.29343290869E-02  0.30503737500E-01 -0.12861544631E+00  0.13967960393E+00  0.45048534242E-01 0.  0.
         14    1    1    2    0    0 -0.13974214820E-01 -0.33085100974E-02  0.26365998634E-03  0.14362953578E-01  0.00000000000E+00 0.  1.
     999901    1    3    3    0    0  0.16908543907E-01 -0.27195227403E-01  0.12835178632E+00  0.88988744249E+00  0.88000000000E+00 0.  1.
        -11    1    4    4    0    0  0.18594629308E-01  0.38550654585E-02 -0.32562023396E-01  0.37698385343E-01  0.51100000000E-03 0.  1.
         11    1    4    4    0    0 -0.21528958395E-01  0.26648672041E-01 -0.96053422910E-01  0.10198121859E+00  0.51100000000E-03 0. -1.
</event>
<event>
 8    1  0.2190512E+004  0.1043930E+01  0.7957747E-01            NaN
         13   -1    0    0    0    0  0.00000000000E+00  0.00000000000E+00  0.74505805969E-08  0.10566000000E+00  0.10566000000E+00 0.  1.
     999900   -1    0    0    0    0 -0.00000000000E+00 -0.00000000000E+00 -0.74505805969E-08  0.93827000000E+00  0.93827000000E+00 0.  1.
     999902    2    1    2    0    0  0.99804183083E-02 -0.83897093372E-02  0.45807516522E-02  0.10301104755E+01  0.10300177729E+01 0.  0.
     999903    2    3    3    0    0 -0.26907262643E-01  0.75099940039E-01  0.10550651454E+00  0.13965147464E+00  0.44798526542E-01 0.  0.
         14    1    1    2    0    0 -0.99804183083E-02  0.83897093372E-02 -0.45807516522E-02  0.13819524524E-01  0.00000000000E+00 0.  1.
     999901    1    3    3    0    0  0.36887680951E-01 -0.83489649376E-01 -0.10092576289E+00  0.89045900084E+00  0.88000000000E+00 0.  1.
        -11    1    4    4    0    0  0.43583014614E-02  0.52182223380E-01  0.66660907201E-01  0.84769787651E-01  0.51100000000E-03 0.  1.
         11    1    4    4    0    0 -0.31265564105E-01  0.22917716659E-01  0.38845607343E-01  0.54881686987E-01  0.51100000000E-03 0. -1.
</event>
<event>
 8    1  0.2190512E+004  0.1043930E+01  0.7957747E-01            NaN
         13   -1    0    0    0    0  0.00000000000E+00  0.00000000000E+00  0.74505805969E-08  0.10566000000E+00  0.10566000000E+00 0.  1.
     999900   -1    0    0    0    0 -0.00000000000E+00 -0.00000000000E+00 -0.74505805969E-08  0.93827000000E+00  0.93827000000E+00 0.  1.
     999902    2    1    2    0    0  0.76689462848E-02 -0.24481326743E-02 -0.11044901757E-01  0.10302626687E+01  0.10301720102E+01 0.  0.
     999903    2    3    3    0    0 -0.52400126842E-01 -0.10972108597E+00 -0.54363167055E-01  0.14066036868E+00  0.45227153173E-01 0.  0.
         14    1    1    2    0    0 -0.76689462848E-02  0.24481326743E-02  0.11044901757E-01  0.13667331325E-01  0.00000000000E+00 0.  1.
     999901    1    3    3    0    0  0.60069073126E-01  0.10727295330E+00  0.43318265297E-01  0.88960230000E+00  0.88000000000E+00 0.  1.
        -11    1    4    4    0    0  0.67731621959E-02 -0.26200974414E-01 -0.75219294467E-02  0.28092834139E-01  0.51100000000E-03 0. -1.
         11    1    4    4    0    0 -0.59173289038E-01 -0.83520111557E-01 -0.46841237608E-01  0.11256753454E+00  0.51100000000E-03 0.  1.
</event>
<event>
 8    1  0.2190512E+004  0.1043930E+01  0.7957747E-01            NaN
         13   -1    0    0    0    0  0.00000000000E+00  0.00000000000E+00  0.74505805969E-08  0.10566000000E+00  0.10566000000E+00 0. -1.
     999900   -1    0    0    0    0 -0.00000000000E+00 -0.00000000000E+00 -0.74505805969E-08  0.93827000000E+00  0.93827000000E+00 0.  1.
     999902    2    1    2    0    0  0.28251256090E-02  0.12309886159E-01 -0.12240381855E-02  0.10312409141E+01  0.10311628436E+01 0.  0.
     999903    2    3    3    0    0 -0.51730823869E-01 -0.36513151239E-01  0.11642823343E+00  0.14039743871E+00  0.46331618832E-01 0.  0.
         14    1    1    2    0    0 -0.28251256090E-02 -0.12309886159E-01  0.12240381855E-02  0.12689085918E-01  0.00000000000E+00 0. -1.
     999901    1    3    3    0    0  0.54555949478E-01  0.48823037398E-01 -0.11765227162E+00  0.89084347538E+00  0.88000000000E+00 0.  1.
        -11    1    4    4    0    0 -0.39192261778E-01 -0.11467394494E-02  0.74053937221E-01  0.83794958879E-01  0.51100000000E-03 0.  1.
         11    1    4    4    0    0 -0.12538562090E-01 -0.35366411789E-01  0.42374296211E-01  0.56602479827E-01  0.51100000000E-03 0. -1.
</event>
<event>
 8    1  0.2190512E+004  0.1043930E+01  0.7957747E-01            NaN
         13   -1    0    0    0    0  0.00000000000E+00  0.00000000000E+00  0.74505805969E-08  0.10566000000E+00  0.10566000000E+00 0. -1.
     999900   -1    0    0    0    0 -0.00000000000E+00 -0.00000000000E+00 -0.74505805969E-08  0.93827000000E+00  0.93827000000E+00 0. -1.
     999902    2    1    2    0    0 -0.11556865164E-01  0.50384635443E-02 -0.51588444289E-02  0.10303079252E+01  0.10302178700E+01 0.  0.
     999903    2    3    3    0    0 -0.90377953553E-01  0.82469979377E-01  0.52950904953E-01  0.14149683916E+00  0.47413976514E-01 0.  0.
         14    1    1    2    0    0  0.11556865164E-01 -0.50384635443E-02  0.51588444289E-02  0.13622074847E-01  0.00000000000E+00 0.  1.
     999901    1    3    3    0    0  0.78821088389E-01 -0.77431515832E-01 -0.58109749382E-01  0.88881108600E+00  0.88000000000E+00 0.  1.
        -11    1    4    4    0    0 -0.63046935471E-01  0.34963861184E-01  0.47678660831E-01  0.86434388301E-01  0.51100000000E-03 0.  1.
         11    1    4    4    0    0 -0.27331018082E-01  0.47506118192E-01  0.52722441219E-02  0.55062450855E-01  0.51100000000E-03 0. -1.
</event>
<event>
 8    1  0.2190512E+004  0.1043930E+01  0.7957747E-01            NaN
         13   -1    0    0    0    0  0.00000000000E+00  0.00000000000E+00  0.74505805969E-08  0.10566000000E+00  0.10566000000E+00 0. -1.
     999900   -1    0    0    0    0 -0.00000000000E+00 -0.00000000000E+00 -0.74505805969E-08  0.93827000000E+00  0.93827000000E+00 0. -1.
     999902    2    1    2    0    0  0.12661805549E-01  0.88761238152E-02 -0.17014049749E-02  0.10283735971E+01  0.10282559280E+01 0.  0.
     999903    2    3    3    0    0 -0.47252057286E-01 -0.57406071118E-02 -0.12151509776E+00  0.13811597099E+00  0.45214941908E-01 0.  0.
         14    1    1    2    0    0 -0.12661805549E-01 -0.88761238152E-02  0.17014049749E-02  0.15556402946E-01  0.00000000000E+00 0.  1.
     999901    1    3    3    0    0  0.59913862835E-01  0.14616730927E-01  0.11981369278E+00  0.89025762606E+00  0.88000000000E+00 0.  1.
        -11    1    4    4    0    0  0.68017503364E-02  0.66238552816E-02 -0.25824798353E-01  0.27519458523E-01  0.51100000000E-03 0.  1.
         11    1    4    4    0    0 -0.54053807623E-01 -0.12364462393E-01 -0.95690299407E-01  0.11059651247E+00  0.51100000000E-03 0. -1.
</event>
<event>
 8    1  0.2190512E+004  0.1043930E+01  0.7957747E-01            NaN
         13   -1    0    0    0    0  0.00000000000E+00  0.00000000000E+00  0.74505805969E-08  0.10566000000E+00  0.10566000000E+00 0.  1.
     999900   -1    0    0    0    0 -0.00000000000E+00 -0.00000000000E+00 -0.74505805969E-08  0.93827000000E+00  0.93827000000E+00 0.  1.
     999902    2    1    2    0    0 -0.21082576708E-02 -0.12638318171E-01  0.39774966556E-02  0.10305138785E+01  0.10304265435E+01 0.  0.
     999903    2    3    3    0    0 -0.11619691364E+00 -0.60935627457E-01 -0.26231983558E-01  0.14132241194E+00  0.45486632335E-01 0.  0.
         14    1    1    2    0    0  0.21082576708E-02  0.12638318171E-01 -0.39774966556E-02  0.13416121505E-01  0.00000000000E+00 0.  1.
     999901    1    3    3    0    0  0.11408865597E+00  0.48297309286E-01  0.30209480213E-01  0.88919146656E+00  0.88000000000E+00 0.  1.
        -11    1    4    4    0    0 -0.79758903286E-01 -0.16661873585E-01 -0.17102400244E-01  0.83257755794E-01  0.51100000000E-03 0.  1.
         11    1    4    4    0    0 -0.36438010354E-01 -0.44273753872E-01 -0.91295833135E-02  0.58064656143E-01  0.51100000000E-03 0. -1.
</event>
<event>
 8    1  0.2190512E+004  0.1043930E+01  0.7957747E-01            NaN
         13   -1    0    0    0    0  0.00000000000E+00  0.00000000000E+00  0.74505805969E-08  0.10566000000E+00  0.10566000000E+00 0. -1.
     999900   -1    0    0    0    0 -0.00000000000E+00 -0.00000000000E+00 -0.74505805969E-08  0.93827000000E+00  0.93827000000E+00 0. -1.
     999902    2    1    2    0    0  0.98340272018E-02  0.96097247611E-02  0.94771401895E-03  0.10301476539E+01  0.10300554528E+01 0.  0.
     999903    2    3    3    0    0 -0.49851747456E-01 -0.86435408340E-01 -0.83808310908E-01  0.13887292466E+00  0.48016452264E-01 0.  0.
         14    1    1    2    0    0 -0.98340272018E-02 -0.96097247611E-02 -0.94771401895E-03  0.13782346058E-01  0.00000000000E+00 0. -1.
     999901    1    3    3    0    0  0.59685774658E-01  0.96045133102E-01  0.84756024927E-01  0.89127472928E+00  0.88000000000E+00 0.  1.
        -11    1    4    4    0    0 -0.40293860575E-01 -0.22917132929E-01 -0.31702534471E-01  0.56161392385E-01  0.51100000000E-03 0. -1.
         11    1    4    4    0    0 -0.95578868809E-02 -0.63518275411E-01 -0.52105776437E-01  0.82711532279E-01  0.51100000000E-03 0.  1.
</event>
<event>
 8    1  0.2190512E+004  0.1043930E+01  0.7957747E-01            NaN
         13   -1    0    0    0    0  0.00000000000E+00  0.00000000000E+00  0.74505805969E-08  0.10566000000E+00  0.10566000000E+00 0. -1.
     999900   -1    0    0    0    0 -0.00000000000E+00 -0.00000000000E+00 -0.74505805969E-08  0.93827000000E+00  0.93827000000E+00 0.  1.
     999902    2    1    2    0    0  0.12980671160E-01 -0.15529507236E-02 -0.74788865636E-03  0.10308353898E+01  0.10307522166E+01 0.  0.
     999903    2    3    3    0    0  0.13282880290E+00 -0.74278672591E-02  0.28008046985E-01  0.14222693091E+00  0.41777806168E-01 0.  0.
         14    1    1    2    0    0 -0.12980671160E-01  0.15529507236E-02  0.74788865636E-03  0.13094610233E-01  0.00000000000E+00 0.  1.
     999901    1    3    3    0    0 -0.11984813174E+00  0.58749165355E-02 -0.28755935642E-01  0.88860845886E+00  0.88000000000E+00 0. -1.
        -11    1    4    4    0    0  0.31542238335E-01 -0.10167115260E-01 -0.90175483243E-02  0.34349095049E-01  0.51100000000E-03 0. -1.
         11    1    4    4    0    0  0.10128656456E+00  0.27392480013E-02  0.37025595309E-01  0.10787783586E+00  0.51100000000E-03 0.  1.
</event>
<event>
 8    1  0.2190512E+004  0.1043930E+01  0.7957747E-01            NaN
         13   -1    0    0    0    0  0.00000000000E+00  0.00000000000E+00  0.74505805969E-08  0.10566000000E+00  0.10566000000E+00 0. -1.
     999900   -1    0    0    0    0 -0.00000000000E+00 -0.00000000000E+00 -0.74505805969E-08  0.93827000000E+00  0.93827000000E+00 0. -1.
     999902    2    1    2    0    0 -0.68881906743E-02 -0.50913233794E-02 -0.10436314221E-01  0.10304286890E+01  0.10303402339E+01 0.  0.
     999903    2    3    3    0    0  0.96152122870E-01  0.19381090322E-01 -0.90184814470E-01  0.14049833860E+00  0.44560352268E-01 0.  0.
         14    1    1    2    0    0  0.68881906743E-02  0.50913233794E-02  0.10436314221E-01  0.13501311012E-01  0.00000000000E+00 0. -1.
     999901    1    3    3    0    0 -0.10304031354E+00 -0.24472413701E-01  0.79748500249E-01  0.88993035039E+00  0.88000000000E+00 0.  1.
        -11    1    4    4    0    0  0.65620966973E-01 -0.82378278414E-02 -0.49455351039E-01  0.82583690771E-01  0.51100000000E-03 0.  1.
         11    1    4    4    0    0  0.30531155897E-01  0.27618918163E-01 -0.40729463431E-01  0.57914647830E-01  0.51100000000E-03 0. -1.
</event>
<event>
 8    1  0.2190512E+004  0.1043930E+01  0.7957747E-01            NaN
         13   -1    0    0    0    0  0.00000000000E+00  0.00000000000E+00  0.74505805969E-08  0.10566000000E+00  0.10566000000E+00 0. -1.
     999900   -1    0    0    0    0 -0.00000000000E+00 -0.00000000000E+00 -0.74505805969E-08  0.93827000000E+00  0.93827000000E+00 0.  1.
     999902    2    1    2    0    0 -0.72894687358E-02  0.56509975362E-02 -0.98085472422E-02  0.10304660583E+01  0.10303780954E+01 0.  0.
     999903    2    3    3    0    0  0.12486047012E+00  0.39019352424E-01 -0.23012491997E-01  0.13987558135E+00  0.43851529140E-01 0.  0.
         14    1    1    2    0    0  0.72894687358E-02 -0.56509975362E-02  0.98085472422E-02  0.13463941719E-01  0.00000000000E+00 0.  1.
     999901    1    3    3    0    0 -0.13214993885E+00 -0.33368354888E-01  0.13203944755E-01  0.89059047693E+00  0.88000000000E+00 0. -1.
        -11    1    4    4    0    0  0.89271479206E-01  0.37914162322E-01 -0.33729602052E-01  0.10268801235E+00  0.51100000000E-03 0. -1.
         11    1    4    4    0    0  0.35588990912E-01  0.11051901016E-02  0.10717110054E-01  0.37187569001E-01  0.51100000000E-03 0.  1.
</event>
<event>
 8    1  0.2190512E+004  0.1043930E+01  0.7957747E-01            NaN
         13   -1    0    0    0    0  0.00000000000E+00  0.00000000000E+00  0.74505805969E-08  0.10566000000E+00  0.10566000000E+00 0.  1.
     999900   -1    0    0    0    0 -0.00000000000E+00 -0.00000000000E+00 -0.74505805969E-08  0.93827000000E+00  0.93827000000E+00 0. -1.
     999902    2    1    2    0    0 -0.33257449527E-02  0.89603688113E-02  0.92145420773E-02  0.10306538343E+01  0.10305683236E+01 0.  0.
     999903    2    3    3    0    0 -0.45018345076E-01 -0.12303094196E+00 -0.16866301551E-01  0.13945229181E+00  0.44712475760E-01 0.  0.
         14    1    1    2    0    0  0.33257449527E-02 -0.89603688113E-02 -0.92145420773E-02  0.13276165652E-01  0.00000000000E+00 0. -1.
     999901    1    3    3    0    0  0.41692600123E-01  0.13199131077E+00  0.26080843628E-01  0.89120154254E+00  0.88000000000E+00 0.  1.
        -11    1    4    4    0    0 -0.41083324853E-01 -0.49506491465E-01 -0.21889644538E-02  0.64372237529E-01  0.51100000000E-03 0.  1.
         11    1    4    4    0    0 -0.39350202234E-02 -0.73524450496E-01 -0.14677337097E-01  0.75080054277E-01  0.51100000000E-03 0. -1.
</event>
<event>
 8    1  0.2190512E+004  0.1043930E+01  0.7957747E-01            NaN
         13   -1    0    0    0    0  0.00000000000E+00  0.00000000000E+00  0.74505805969E-08  0.10566000000E+00  0.10566000000E+00 0.  1.
     999900   -1    0    0    0    0 -0.00000000000E+00 -0.00000000000E+00 -0.74505805969E-08  0.93827000000E+00  0.93827000000E+00 0. -1.
     999902    2    1    2    0    0 -0.13634679183E-01 -0.11280981990E-02  0.33633240300E-02  0.10298413865E+01  0.10297450132E+01 0.  0.
     999903    2    3    3    0    0 -0.11608144828E+00 -0.58221354615E-01 -0.31650099813E-01  0.14137027257E+00  0.46034730151E-01 0.  0.
         14    1    1    2    0    0  0.13634679183E-01  0.11280981990E-02 -0.33633240300E-02  0.14088613506E-01  0.00000000000E+00 0. -1.
     999901    1    3    3    0    0  0.10244676910E+00  0.57093256416E-01  0.35013423843E-01  0.88847111392E+00  0.88000000000E+00 0. -1.
        -11    1    4    4    0    0 -0.11903092706E+00 -0.50142274069E-01 -0.29924760267E-01  0.13258341391E+00  0.51100000000E-03 0.  1.
         11    1    4    4    0    0  0.29494787812E-02 -0.80790805462E-02 -0.17253395455E-02  0.87868586594E-02  0.51100000000E-03 0. -1.
</event>
<event>
 8    1  0.2190512E+004  0.1043930E+01  0.7957747E-01            NaN
         13   -1    0    0    0    0  0.00000000000E+00  0.00000000000E+00  0.74505805969E-08  0.10566000000E+00  0.10566000000E+00 0.  1.
     999900   -1    0    0    0    0 -0.00000000000E+00 -0.00000000000E+00 -0.74505805969E-08  0.93827000000E+00  0.93827000000E+00 0. -1.
     999902    2    1    2    0    0 -0.79570716777E-02 -0.10358461830E-02 -0.16627252753E-01  0.10254677818E+01  0.10253015742E+01 0.  0.
     999903    2    3    3    0    0  0.12353654661E+00  0.29059759098E-01  0.58665769901E-02  0.13490487583E+00  0.45377977588E-01 0.  0.
         14    1    1    2    0    0  0.79570716777E-02  0.10358461830E-02  0.16627252753E-01  0.18462218207E-01  0.00000000000E+00 0.  1.
     999901    1    3    3    0    0 -0.13149361828E+00 -0.30095605281E-01 -0.22493829743E-01  0.89056290597E+00  0.88000000000E+00 0. -1.
        -11    1    4    4    0    0  0.83094750096E-01  0.14891434777E-01  0.24896627766E-01  0.88014746027E-01  0.51100000000E-03 0.  1.
         11    1    4    4    0    0  0.40441796511E-01  0.14168324321E-01 -0.19030050776E-01  0.46890129800E-01  0.51100000000E-03 0. -1.
</event>
<event>
 8    1  0.2190512E+004  0.1043930E+01  0.7957747E-01            NaN
         13   -1    0    0    0    0  0.00000000000E+00  0.00000000000E+00  0.74505805969E-08  0.10566000000E+00  0.10566000000E+00 0.  1.
     999900   -1    0    0    0    0 -0.00000000000E+00 -0.00000000000E+00 -0.74505805969E-08  0.93827000000E+00  0.93827000000E+00 0. -1.
     999902    2    1    2    0    0  0.53821045079E-02 -0.71926119361E-02 -0.81961426069E-02  0.10317695120E+01  0.10316978474E+01 0.  0.
     999903    2    3    3    0    0  0.63993724942E-01  0.88074134007E-01  0.76940972608E-01  0.14061329485E+00  0.44720638519E-01 0.  0.
         14    1    1    2    0    0 -0.53821045079E-02  0.71926119361E-02  0.81961426069E-02  0.12160488026E-01  0.00000000000E+00 0.  1.
     999901    1    3    3    0    0 -0.58611620434E-01 -0.95266745943E-01 -0.85137115214E-01  0.89115621712E+00  0.88000000000E+00 0. -1.
        -11    1    4    4    0    0  0.48875226826E-01  0.61179550449E-01  0.76905616437E-01  0.10975636725E+00  0.51100000000E-03 0. -1.
         11    1    4    4    0    0  0.15118498116E-01  0.26894583559E-01  0.35356170199E-04  0.30856927604E-01  0.51100000000E-03 0.  1.
</event>
<event>
 8    1  0.2190512E+004  0.1043930E+01  0.7957747E-01            NaN
         13   -1    0    0    0    0  0.00000000000E+00  0.00000000000E+00  0.74505805969E-08  0.10566000000E+00  0.10566000000E+00 0. -1.
     999900   -1    0    0    0    0 -0.00000000000E+00 -0.00000000000E+00 -0.74505805969E-08  0.93827000000E+00  0.93827000000E+00 0.  1.
     999902    2    1    2    0    0 -0.78945716352E-02  0.44434730072E-02  0.85809129027E-02  0.10314519881E+01  0.10313765089E+01 0.  0.
     999903    2    3    3    0    0  0.10384087019E+00 -0.74252045976E-01  0.37163146848E-01  0.14044427899E+00  0.45246031470E-01 0.  0.
         14    1    1    2    0    0  0.78945716352E-02 -0.44434730072E-02 -0.85809129027E-02  0.12478011857E-01  0.00000000000E+00 0.  1.
     999901    1    3    3    0    0 -0.11173544183E+00  0.78695518984E-01 -0.28582233946E-01  0.89100770915E+00  0.88000000000E+00 0. -1.
        -11    1    4    4    0    0  0.32811272399E-01 -0.44671035573E-01  0.30361656891E-01  0.63199464758E-01  0.51100000000E-03 0. -1.
         11    1    4    4    0    0  0.71029597795E-01 -0.29581010404E-01  0.68014899571E-02  0.77244814234E-01  0.51100000000E-03 0.  1.
</event>
<event>
 8    1  0.2190512E+004  0.1043930E+01  0.7957747E-01            NaN
         13   -1    0    0    0    0  0.00000000000E+00  0.00000000000E+00  0.74505805969E-08  0.10566000000E+00  0.10566000000E+00 0.  1.
     999900   -1    0    0    0    0 -0.00000000000E+00 -0.00000000000E+00 -0.74505805969E-08  0.93827000000E+00  0.93827000000E+00 0.  1.
     999902    2    1    2    0    0 -0.35524252943E-02  0.13277922832E-01  0.11176649480E-02  0.10301397087E+01  0.10300474005E+01 0.  0.
     999903    2    3    3    0    0  0.68641828089E-02 -0.13065648204E+00  0.82074758294E-03  0.13838542256E+00  0.45073476068E-01 0.  0.
         14    1    1    2    0    0  0.35524252943E-02 -0.13277922832E-01 -0.11176649480E-02  0.13790291336E-01  0.00000000000E+00 0. -1.
     999901    1    3    3    0    0 -0.10416608103E-01  0.14393440487E+00  0.29691736507E-03  0.89175428611E+00  0.88000000000E+00 0. -1.
        -11    1    4    4    0    0  0.24916098443E-01 -0.82285884927E-01 -0.65684304204E-02  0.86227514281E-01  0.51100000000E-03 0.  1.
         11    1    4    4    0    0 -0.18051915634E-01 -0.48370597113E-01  0.73891780034E-02  0.52157908276E-01  0.51100000000E-03 0. -1.
</event>
<event>
 8    1  0.2190512E+004  0.1043930E+01  0.7957747E-01            NaN
         13   -1    0    0    0    0  0.00000000000E+00  0.00000000000E+00  0.74505805969E-08  0.10566000000E+00  0.10566000000E+00 0.  1.
     999900   -1    0    0    0    0 -0.00000000000E+00 -0.00000000000E+00 -0.74505805969E-08  0.93827000000E+00  0.93827000000E+00 0. -1.
     999902    2    1    2    0    0  0.62337201257E-02 -0.12989599875E-01  0.43338728837E-02  0.10288843553E+01  0.10287743412E+01 0.  0.
     999903    2    3    3    0    0 -0.35121211348E-01 -0.14560326814E-01  0.12631768534E+00  0.13950662446E+00  0.45392048136E-01 0.  0.
         14    1    1    2    0    0 -0.62337201257E-02  0.12989599875E-01 -0.43338728837E-02  0.15045644741E-01  0.00000000000E+00 0. -1.
     999901    1    3    3    0    0  0.41354931473E-01  0.15707269397E-02 -0.12198381246E+00  0.88937773080E+00  0.88000000000E+00 0. -1.
        -11    1    4    4    0    0 -0.18292060199E-01 -0.21351221056E-01  0.28569574292E-01  0.40086853246E-01  0.51100000000E-03 0.  1.
         11    1    4    4    0    0 -0.16829151148E-01  0.67908942417E-02  0.97748111051E-01  0.99419771213E-01  0.51100000000E-03 0. -1.
</event>
<event>
 8    1  0.2190512E+004  0.1043930E+01  0.7957747E-01            NaN
         13   -1    0    0    0    0  0.00000000000E+00  0.00000000000E+00  0.74505805969E-08  0.10566000000E+00  0.10566000000E+00 0.  1.
     999900   -1    0    0    0    0 -0.00000000000E+00 -0.00000000000E+00 -0.74505805969E-08  0.93827000000E+00  0.93827000000E+00 0. -1.
     999902    2    1    2    0    0  0.95543366659E-02 -0.63528470584E-02 -0.10459032074E-01  0.10284046863E+01  0.10282874906E+01 0.  0.
     999903    2    3    3    0    0  0.88462380361E-01 -0.64293354742E-01  0.72786066575E-01  0.13907160566E+00  0.45649444805E-01 0.  0.
         14    1    1    2    0    0 -0.95543366659E-02  0.63528470584E-02  0.10459032074E-01  0.15525313743E-01  0.00000000000E+00 0.  1.
     999901    1    3    3    0    0 -0.78908043695E-01  0.57940507683E-01 -0.83245098650E-01  0.88933308059E+00  0.88000000000E+00 0. -1.
        -11    1    4    4    0    0  0.33234485864E-01 -0.36955341119E-01  0.92480749192E-02  0.50557059829E-01  0.51100000000E-03 0.  1.
         11    1    4    4    0    0  0.55227894498E-01 -0.27338013622E-01  0.63537991656E-01  0.88514545834E-01  0.51100000000E-03 0. -1.
</event>
<event>
 8    1  0.2190512E+004  0.1043930E+01  0.7957747E-01            NaN
         13   -1    0    0    0    0  0.00000000000E+00  0.00000000000E+00  0.74505805969E-08  0.10566000000E+00  0.10566000000E+00 0. -1.
     999900   -1    0    0    0    0 -0.00000000000E+00 -0.00000000000E+00 -0.74505805969E-08  0.93827000000E+00  0.93827000000E+00 0. -1.
     999902    2    1    2    0    0  0.53733841725E-02 -0.55764421833E-02  0.13526051786E-01  0.10283439793E+01  0.10282258583E+01 0.  0.
     999903    2    3    3    0    0 -0.10307320719E+00 -0.27507884955E-01  0.76592343937E-01  0.13917638621E+00  0.46075042642E-01 0.  0.
         14    1    1    2    0    0 -0.53733841725E-02  0.55764421833E-02 -0.13526051786E-01  0.15586020718E-01  0.00000000000E+00 0.  1.
     999901    1    3    3    0    0  0.10844659136E+00  0.21931442772E-01 -0.63066292151E-01  0.88916759307E+00  0.88000000000E+00 0. -1.
        -11    1    4    4    0    0 -0.58551348747E-01 -0.22664435689E-01  0.17787278792E-01  0.65257838556E-01  0.51100000000E-03 0. -1.
         11    1    4    4    0    0 -0.44521858442E-01 -0.48434492660E-02  0.58805065145E-01  0.73918547656E-01  0.51100000000E-03 0.  1.
</event>
<event>
 8    1  0.2190512E+004  0.1043930E+01  0.7957747E-01            NaN
         13   -1    0    0    0    0  0.00000000000E+00  0.00000000000E+00  0.74505805969E-08  0.10566000000E+00  0.10566000000E+00 0.  1.
     999900   -1    0    0    0    0 -0.00000000000E+00 -0.00000000000E+00 -0.74505805969E-08  0.93827000000E+00  0.93827000000E+00 0. -1.
     999902    2    1    2    0    0 -0.78804670243E-02 -0.35611346562E-02 -0.95335502632E-02  0.10310586356E+01  0.10309782917E+01 0.  0.
     999903    2    3    3    0    0 -0.12729101156E+00 -0.28531153956E-01  0.31460262873E-01  0.14169770060E+00  0.45513315032E-01 0.  0.
         14    1    1    2    0    0  0.78804670243E-02  0.35611346562E-02  0.95335502632E-02  0.12871364387E-01  0.00000000000E+00 0.  1.
     999901    1    3    3    0    0  0.11941054454E+00  0.24970019299E-01 -0.40993813136E-01  0.88936093501E+00  0.88000000000E+00 0. -1.
        -11    1    4    4    0    0 -0.81158788560E-01 -0.11304678427E-01 -0.23240973056E-02  0.81976870299E-01  0.51100000000E-03 0. -1.
         11    1    4    4    0    0 -0.46132223001E-01 -0.17226475529E-01  0.33784360179E-01  0.59720830301E-01  0.51100000000E-03 0.  1.
</event>
<event>
 8    1  0.2190512E+004  0.1043930E+01  0.7957747E-01            NaN
         13   -1    0    0    0    0  0.00000000000E+00  0.00000000000E+00  0.74505805969E-08  0.10566000000E+00  0.10566000000E+00 0. -1.
     999900   -1    0    0    0    0 -0.00000000000E+00 -0.00000000000E+00 -0.74505805969E-08  0.93827000000E+00  0.93827000000E+00 0.  1.
     999902    2    1    2    0    0  0.11641033191E-01 -0.63217384169E-02 -0.10018566865E-01  0.10273212760E+01  0.10271870105E+01 0.  0.
     999903    2    3    3    0    0 -0.71437902863E-01  0.68104028023E-01 -0.84010459787E-01  0.13719987725E+00  0.44994625954E-01 0.  0.
         14    1    1    2    0    0 -0.11641033191E-01  0.63217384169E-02  0.10018566865E-01  0.16608723984E-01  0.00000000000E+00 0.  1.
     999901    1    3    3    0    0  0.83078936054E-01 -0.74425766440E-01  0.73991892923E-01  0.89012139877E+00  0.88000000000E+00 0. -1.
        -11    1    4    4    0    0 -0.69870854360E-01  0.54498390760E-01 -0.52894330091E-01  0.10319923527E+00  0.51100000000E-03 0.  1.
         11    1    4    4    0    0 -0.15670485030E-02  0.13605637264E-01 -0.31116129696E-01  0.34000641974E-01  0.51100000000E-03 0. -1.
</event>
<event>
 8    1  0.2190512E+004  0.1043930E+01  0.7957747E-01            NaN
         13   -1    0    0    0    0  0.00000000000E+00  0.00000000000E+00  0.74505805969E-08  0.10566000000E+00  0.10566000000E+00 0.  1.
     999900   -1    0    0    0    0 -0.00000000000E+00 -0.00000000000E+00 -0.74505805969E-08  0.93827000000E+00  0.93827000000E+00 0. -1.
     999902    2    1    2    0    0  0.15402698949E-01 -0.64276769637E-02 -0.94056183612E-03  0.10272134566E+01  0.10270774278E+01 0.  0.
     999903    2    3    3    0    0 -0.11034129861E+00 -0.61335537355E-01  0.24261295255E-01  0.13622436597E+00  0.45069026100E-01 0.  0.
         14    1    1    2    0    0 -0.15402698949E-01  0.64276769637E-02  0.94056183612E-03  0.16716543382E-01  0.00000000000E+00 0.  1.
     999901    1    3    3    0    0  0.12574399756E+00  0.54907860392E-01 -0.25201857091E-01  0.89098909065E+00  0.88000000000E+00 0.  1.
        -11    1    4    4    0    0 -0.56317146903E-01 -0.40855746434E-01  0.34312782561E-01  0.77578613161E-01  0.51100000000E-03 0.  1.
         11    1    4    4    0    0 -0.54024151711E-01 -0.20479790921E-01 -0.10051487306E-01  0.58645752807E-01  0.51100000000E-03 0. -1.
</event>
<event>
 8    1  0.2190512E+004  0.1043930E+01  0.7957747E-01            NaN
         13   -1    0    0    0    0  0.00000000000E+00  0.00000000000E+00  0.74505805969E-08  0.10566000000E+00  0.10566000000E+00 0.  1.
     999900   -1    0    0    0    0 -0.00000000000E+00 -0.00000000000E+00 -0.74505805969E-08  0.93827000000E+00  0.93827000000E+00 0.  1.
     999902    2    1    2    0    0  0.20478965430E-02  0.15720421896E-01  0.21650631729E-02  0.10279295924E+01  0.10278050564E+01 0.  0.
     999903    2    3    3    0    0 -0.15231502767E-01 -0.78956894474E-01 -0.10054770721E+00  0.13674370546E+00  0.46073958991E-01 0.  0.
         14    1    1    2    0    0 -0.20478965430E-02 -0.15720421896E-01 -0.21650631729E-02  0.16000407600E-01  0.00000000000E+00 0. -1.
     999901    1    3    3    0    0  0.17279399310E-01  0.94677316370E-01  0.10271277038E+00  0.89118588694E+00  0.88000000000E+00 0. -1.
        -11    1    4    4    0    0  0.14764852777E-01 -0.39003040881E-01 -0.55850717900E-01  0.69705106602E-01  0.51100000000E-03 0. -1.
         11    1    4    4    0    0 -0.29996355544E-01 -0.39953853593E-01 -0.44696989310E-01  0.67038598861E-01  0.51100000000E-03 0.  1.
</event>
<event>
 8    1  0.2190512E+004  0.1043930E+01  0.7957747E-01            NaN
         13   -1    0    0    0    0  0.00000000000E+00  0.00000000000E+00  0.74505805969E-08  0.10566000000E+00  0.10566000000E+00 0. -1.
     999900   -1    0    0    0    0 -0.00000000000E+00 -0.00000000000E+00 -0.74505805969E-08  0.93827000000E+00  0.93827000000E+00 0. -1.
     999902    2    1    2    0    0  0.24713404975E-02  0.98648287282E-02 -0.91204229641E-02  0.10302696748E+01  0.10301791098E+01 0.  0.
     999903    2    3    3    0    0  0.71391198618E-03  0.13438677477E+00 -0.90070706849E-02  0.14150152930E+00  0.43373270184E-01 0.  0.
         14    1    1    2    0    0 -0.24713404975E-02 -0.98648287282E-02  0.91204229641E-02  0.13660325206E-01  0.00000000000E+00 0. -1.
     999901    1    3    3    0    0  0.17574285114E-02 -0.12452194605E+00 -0.11335227921E-03  0.88876814550E+00  0.88000000000E+00 0. -1.
        -11    1    4    4    0    0  0.92801716886E-02  0.70649593199E-01 -0.24494517226E-01  0.75350707368E-01  0.51100000000E-03 0.  1.
         11    1    4    4    0    0 -0.85662597025E-02  0.63737181575E-01  0.15487446541E-01  0.66150821928E-01  0.51100000000E-03 0. -1.
</event>
<event>
 8    1  0.2190512E+004  0.1043930E+01  0.7957747E-01            NaN
         13   -1    0    0    0    0  0.00000000000E+00  0.00000000000E+00  0.74505805969E-08  0.10566000000E+00  0.10566000000E+00 0. -1.
     999900   -1    0    0    0    0 -0.00000000000E+00 -0.00000000000E+00 -0.74505805969E-08  0.93827000000E+00  0.93827000000E+00 0. -1.
     999902    2    1    2    0    0  0.62054946897E-02 -0.92220471234E-02 -0.75761866212E-02  0.10304781257E+01  0.10303903215E+01 0.  0.
     999903    2    3    3    0    0 -0.10701345702E+00 -0.77600115108E-01  0.13491866449E-01  0.14034445371E+00  0.45176070877E-01 0.  0.
         14    1    1    2    0    0 -0.62054946897E-02  0.92220471234E-02  0.75761866212E-02  0.13451874264E-01  0.00000000000E+00 0. -1.
     999901    1    3    3    0    0  0.11321895171E+00  0.68378067985E-01 -0.21068053070E-01  0.89013367202E+00  0.88000000000E+00 0.  1.
        -11    1    4    4    0    0 -0.96763058437E-01 -0.48113598651E-01  0.59768999101E-02  0.10823119840E+00  0.51100000000E-03 0.  1.
         11    1    4    4    0    0 -0.10250398583E-01 -0.29486516457E-01  0.75149665387E-02  0.32113255315E-01  0.51100000000E-03 0. -1.
</event>
<event>
 8    1  0.2190512E+004  0.1043930E+01  0.7957747E-01            NaN
         13   -1    0    0    0    0  0.00000000000E+00  0.00000000000E+00  0.74505805969E-08  0.10566000000E+00  0.10566000000E+00 0. -1.
     999900   -1    0    0    0    0 -0.00000000000E+00 -0.00000000000E+00 -0.74505805969E-08  0.93827000000E+00  0.93827000000E+00 0.  1.
     999902    2    1    2    0    0 -0.11158494322E-01  0.28053647339E-02  0.71150626244E-02  0.10304020222E+01  0.10303132151E+01 0.  0.
     999903    2    3    3    0    0 -0.12387308983E+00  0.17748071954E-01  0.49384946284E-01  0.14208079225E+00  0.45700570729E-01 0.  0.
         14    1    1    2    0    0  0.11158494322E-01 -0.28053647339E-02 -0.71150626244E-02  0.13527977786E-01  0.00000000000E+00 0.  1.
     999901    1    3    3    0    0  0.11271459551E+00 -0.14942707220E-01 -0.42269883659E-01  0.88832122996E+00  0.88000000000E+00 0.  1.
        -11    1    4    4    0    0 -0.53407542269E-01  0.18381703292E-01  0.43635749087E-01  0.71376412817E-01  0.51100000000E-03 0.  1.
         11    1    4    4    0    0 -0.70465547561E-01 -0.63363133784E-03  0.57491971964E-02  0.70704379434E-01  0.51100000000E-03 0. -1.
</event>
<event>
 8    1  0.2190512E+004  0.1043930E+01  0.7957747E-01            NaN
         13   -1    0    0    0    0  0.00000000000E+00  0.00000000000E+00  0.74505805969E-08  0.10566000000E+00  0.10566000000E+00 0.  1.
     999900   -1    0    0    0    0 -0.00000000000E+00 -0.00000000000E+00 -0.74505805969E-08  0.93827000000E+00  0.93827000000E+00 0.  1.
     999902    2    1    2    0    0 -0.67766273846E-02 -0.75459409062E-02 -0.70941795544E-02  0.10315529532E+01  0.10314786978E+01 0.  0.
     999903    2    3    3    0    0  0.43896704369E-01  0.11542831423E+00 -0.49856433760E-01  0.14053159303E+00  0.44864777630E-01 0.  0.
         14    1    1    2    0    0  0.67766273846E-02  0.75459409062E-02  0.70941795544E-02  0.12377046757E-01  0.00000000000E+00 0.  1.
     999901    1    3    3    0    0 -0.50673331753E-01 -0.12297425513E+00  0.42762254206E-01  0.89102136022E+00  0.88000000000E+00 0. -1.
        -11    1    4    4    0    0 -0.58969217957E-02  0.43532778137E-01 -0.16887454414E-01  0.47067225291E-01  0.51100000000E-03 0.  1.
         11    1    4    4    0    0  0.49793626165E-01  0.71895536089E-01 -0.32968979346E-01  0.93464367736E-01  0.51100000000E-03 0. -1.
</event>
<event>
 8    1  0.2190512E+004  0.1043930E+01  0.7957747E-01            NaN
         13   -1    0    0    0    0  0.00000000000E+00  0.00000000000E+00  0.74505805969E-08  0.10566000000E+00  0.10566000000E+00 0. -1.
     999900   -1    0    0    0    0 -0.00000000000E+00 -0.00000000000E+00 -0.74505805969E-08  0.93827000000E+00  0.93827000000E+00 0. -1.
     999902    2    1    2    0    0 -0.74529129526E-02  0.90682681591E-02  0.16187539402E-01  0.10239346048E+01  0.10237393511E+01 0.  0.
     999903    2    3    3    0    0  0.11694172407E+00  0.31823407718E-01  0.37983840615E-01  0.13462762692E+00  0.44651200139E-01 0.  0.
         14    1    1    2    0    0  0.74529129526E-02 -0.90682681591E-02 -0.16187539402E-01  0.19995395240E-01  0.00000000000E+00 0.  1.
     999901    1    3    3    0    0 -0.12439463702E+00 -0.22755139559E-01 -0.21796301212E-01  0.88930697784E+00  0.88000000000E+00 0. -1.
        -11    1    4    4    0    0  0.56486276322E-01  0.37735449070E-01  0.25827326770E-01  0.72677200402E-01  0.51100000000E-03 0.  1.
         11    1    4    4    0    0  0.60455447749E-01 -0.59120413515E-02  0.12156513845E-01  0.61950426514E-01  0.51100000000E-03 0. -1.
</event>
<event>
 8    1  0.2190512E+004  0.1043930E+01  0.7957747E-01            NaN
         13   -1    0    0    0    0  0.00000000000E+00  0.00000000000E+00  0.74505805969E-08  0.10566000000E+00  0.10566000000E+00 0.  1.
     999900   -1    0    0    0    0 -0.00000000000E+00 -0.00000000000E+00 -0.74505805969E-08  0.93827000000E+00  0.93827000000E+00 0.  1.
     999902    2    1    2    0    0 -0.32950750113E-02 -0.11407069228E-01 -0.77533072893E-02  0.10297492905E+01  0.10296516444E+01 0.  0.
     999903    2    3    3    0    0 -0.44116571396E-01  0.97130530915E-01 -0.77726762625E-01  0.13938807748E+00  0.44799270183E-01 0.  0.
         14    1    1    2    0    0  0.32950750113E-02  0.11407069228E-01  0.77533072893E-02  0.14180709489E-01  0.00000000000E+00 0. -1.
     999901    1    3    3    0    0  0.40821496384E-01 -0.10853760014E+00  0.69973455336E-01  0.89036121303E+00  0.88000000000E+00 0. -1.
        -11    1    4    4    0    0 -0.43741300217E-01  0.73604718362E-01 -0.39034368959E-01  0.94100472851E-01  0.51100000000E-03 0.  1.
         11    1    4    4    0    0 -0.37527117858E-03  0.23525812553E-01 -0.38692393666E-01  0.45287604633E-01  0.51100000000E-03 0. -1.
</event>
<event>
 8    1  0.2190512E+004  0.1043930E+01  0.7957747E-01            NaN
         13   -1    0    0    0    0  0.00000000000E+00  0.00000000000E+00  0.74505805969E-08  0.10566000000E+00  0.10566000000E+00 0.  1.
     999900   -1    0    0    0    0 -0.00000000000E+00 -0.00000000000E+00 -0.74505805969E-08  0.93827000000E+00  0.93827000000E+00 0. -1.
     999902    2    1    2    0    0 -0.33661602079E-02 -0.76144088164E-02 -0.82619428497E-02  0.10322009781E+01  0.10321343368E+01 0.  0.
     999903    2    3    3    0    0 -0.45563932838E-02 -0.66968532497E-02  0.13364526237E+00  0.14083129411E+00  0.43666791523E-01 0.  0.
         14    1    1    2    0    0  0.33661602079E-02  0.76144088164E-02  0.82619428497E-02  0.11729021946E-01  0.00000000000E+00 0.  1.
     999901    1    3    3    0    0  0.11902330759E-02 -0.91755556663E-03 -0.14190720522E+00  0.89136968395E+00  0.88000000000E+00 0. -1.
        -11    1    4    4    0    0  0.14844338199E-01 -0.13778148496E-01  0.38896905428E-01  0.43856836701E-01  0.51100000000E-03 0. -1.
         11    1    4    4    0    0 -0.19400731483E-01  0.70812952462E-02  0.94748356946E-01  0.96974457407E-01  0.51100000000E-03 0.  1.
</event>
<event>
 8    1  0.2190512E+004  0.1043930E+01  0.7957747E-01            NaN
         13   -1    0    0    0    0  0.00000000000E+00  0.00000000000E+00  0.74505805969E-08  0.10566000000E+00  0.10566000000E+00 0. -1.
     999900   -1    0    0    0    0 -0.00000000000E+00 -0.00000000000E+00 -0.74505805969E-08  0.93827000000E+00  0.93827000000E+00 0.  1.
     999902    2    1    2    0    0 -0.49320565777E-02 -0.15061664528E-01 -0.16068734064E-02  0.10280001236E+01  0.10278766916E+01 0.  0.
     999903    2    3    3    0    0 -0.63942671240E-01 -0.88568846941E-01 -0.74574097128E-01  0.13996308931E+00  0.45774059823E-01 0.  0.
         14    1    1    2    0    0  0.49320565777E-02  0.15061664528E-01  0.16068734064E-02  0.15929876414E-01  0.00000000000E+00 0. -1.
     999901    1    3    3    0    0  0.59010614662E-01  0.73507182413E-01  0.72967223722E-01  0.88803703428E+00  0.88000000000E+00 0. -1.
        -11    1    4    4    0    0 -0.35327954432E-02 -0.14411180204E-01  0.48683962619E-02  0.15624505166E-01  0.51100000000E-03 0.  1.
         11    1    4    4    0    0 -0.60409875796E-01 -0.74157666737E-01 -0.79442493390E-01  0.12433858414E+00  0.51100000000E-03 0. -1.
</event>
<event>
 8    1  0.2190512E+004  0.1043930E+01  0.7957747E-01            NaN
         13   -1    0    0    0    0  0.00000000000E+00  0.00000000000E+00  0.74505805969E-08  0.10566000000E+00  0.10566000000E+00 0.  1.
     999900   -1    0    0    0    0 -0.00000000000E+00 -0.00000000000E+00 -0.74505805969E-08  0.93827000000E+00  0.93827000000E+00 0.  1.
     999902    2    1    2    0    0  0.15100490068E-01  0.82843555917E-02  0.44509170069E-02  0.10261405084E+01  0.10259862948E+01 0.  0.
     999903    2    3    3    0    0 -0.36223305320E-01  0.11234061110E+00  0.54131363826E-01  0.13713545610E+00  0.44083874821E-01 0.  0.
         14    1    1    2    0    0 -0.15100490068E-01 -0.82843555917E-02 -0.44509170069E-02  0.17789491563E-01  0.00000000000E+00 0.  1.
     999901    1    3    3    0    0  0.51323795388E-01 -0.10405625551E+00 -0.49680446820E-01  0.88900505234E+00  0.88000000000E+00 0.  1.
        -11    1    4    4    0    0 -0.33883587138E-01  0.35543193372E-01  0.23109013881E-01  0.54274337545E-01  0.51100000000E-03 0.  1.
         11    1    4    4    0    0 -0.23397181820E-02  0.76797417729E-01  0.31022349945E-01  0.82861118555E-01  0.51100000000E-03 0. -1.
</event>
<event>
 8    1  0.2190512E+004  0.1043930E+01  0.7957747E-01            NaN
         13   -1    0    0    0    0  0.00000000000E+00  0.00000000000E+00  0.74505805969E-08  0.10566000000E+00  0.10566000000E+00 0.  1.
     999900   -1    0    0    0    0 -0.00000000000E+00 -0.00000000000E+00 -0.74505805969E-08  0.93827000000E+00  0.93827000000E+00 0.  1.
     999902    2    1    2    0    0  0.10569630523E-01  0.64342368477E-02 -0.67480480196E-02  0.10298355811E+01  0.10297391278E+01 0.  0.
     999903    2    3    3    0    0 -0.31100745604E-01 -0.65480829327E-01 -0.11042001937E+00  0.13986025857E+00  0.45970815340E-01 0.  0.
         14    1    1    2    0    0 -0.10569630523E-01 -0.64342368477E-02  0.67480480196E-02  0.14094418941E-01  0.00000000000E+00 0. -1.
     999901    1    3    3    0    0  0.41670376127E-01  0.71915066175E-01  0.10367197135E+00  0.88997532249E+00  0.88000000000E+00 0. -1.
        -11    1    4    4    0    0 -0.33424242596E-01 -0.42655188983E-01 -0.44703193255E-01  0.70251560470E-01  0.51100000000E-03 0. -1.
         11    1    4    4    0    0  0.23234969922E-02 -0.22825640345E-01 -0.65716826119E-01  0.69608698103E-01  0.51100000000E-03 0.  1.
</event>
<event>
 8    1  0.2190512E+004  0.1043930E+01  0.7957747E-01            NaN
         13   -1    0    0    0    0  0.00000000000E+00  0.00000000000E+00  0.74505805969E-08  0.10566000000E+00  0.10566000000E+00 0.  1.
     999900   -1    0    0    0    0 -0.00000000000E+00 -0.00000000000E+00 -0.74505805969E-08  0.93827000000E+00  0.93827000000E+00 0. -1.
     999902    2    1    2    0    0  0.14345232685E-02  0.90331383476E-02 -0.10025724632E-01  0.10303590531E+01  0.10302696772E+01 0.  0.
     999903    2    3    3    0    0 -0.97699611760E-01 -0.82200952172E-02  0.87880533022E-01  0.13923005790E+00  0.45268497160E-01 0.  0.
         14    1    1    2    0    0 -0.14345232685E-02 -0.90331383476E-02  0.10025724632E-01  0.13570946902E-01  0.00000000000E+00 0.  1.
     999901    1    3    3    0    0  0.99134135028E-01  0.17253233565E-01 -0.97906257653E-01  0.89112899520E+00  0.88000000000E+00 0. -1.
        -11    1    4    4    0    0 -0.34378568576E-02 -0.10506812146E-01  0.20639704670E-01  0.23419446857E-01  0.51100000000E-03 0.  1.
         11    1    4    4    0    0 -0.94261754902E-01  0.22867169288E-02  0.67240828352E-01  0.11581061104E+00  0.51100000000E-03 0. -1.
</event>
<event>
 8    1  0.2190512E+004  0.1043930E+01  0.7957747E-01            NaN
         13   -1    0    0    0    0  0.00000000000E+00  0.00000000000E+00  0.74505805969E-08  0.10566000000E+00  0.10566000000E+00 0. -1.
     999900   -1    0    0    0    0 -0.00000000000E+00 -0.00000000000E+00 -0.74505805969E-08  0.93827000000E+00  0.93827000000E+00 0. -1.
     999902    2    1    2    0    0  0.28005493384E-02 -0.76121302498E-02  0.10929390626E-01  0.10303197398E+01  0.10302298418E+01 0.  0.
     999903    2    3    3    0    0  0.11625100465E+00  0.59816893304E-01 -0.20670585395E-01  0.13991745008E+00  0.45357060426E-01 0.  0.
         14    1    1    2    0    0 -0.28005493384E-02  0.76121302498E-02 -0.10929390626E-01  0.13610260210E-01  0.00000000000E+00 0.  1.
     999901    1    3    3    0    0 -0.11345045531E+00 -0.67429023554E-01  0.31599976021E-01  0.89040228971E+00  0.88000000000E+00 0. -1.
        -11    1    4    4    0    0  0.61069723208E-01  0.48514534202E-01  0.47012925465E-02  0.78137919054E-01  0.51100000000E-03 0.  1.
         11    1    4    4    0    0  0.55181281443E-01  0.11302359102E-01 -0.25371877942E-01  0.61779531030E-01  0.51100000000E-03 0. -1.
</event>
<event>
 8    1  0.2190512E+004  0.1043930E+01  0.7957747E-01            NaN
         13   -1    0    0    0    0  0.00000000000E+00  0.00000000000E+00  0.74505805969E-08  0.10566000000E+00  0.10566000000E+00 0. -1.
     999900   -1    0    0    0    0 -0.00000000000E+00 -0.00000000000E+00 -0.74505805969E-08  0.93827000000E+00  0.93827000000E+00 0. -1.
     999902    2    1    2    0    0 -0.91182703640E-02 -0.50313510845E-02 -0.83634098747E-02  0.10305732050E+01  0.10304866457E+01 0.  0.
     999903    2    3    3    0    0  0.51237328387E-01 -0.12072667458E+00  0.22739915887E-01  0.14040714012E+00  0.44686322807E-01 0.  0.
         14    1    1    2    0    0  0.91182703640E-02  0.50313510845E-02  0.83634098747E-02  0.13356795008E-01  0.00000000000E+00 0. -1.
     999901    1    3    3    0    0 -0.60355598751E-01  0.11569532350E+00 -0.31103325761E-01  0.89016606487E+00  0.88000000000E+00 0. -1.
        -11    1    4    4    0    0  0.55170835148E-02 -0.69585547722E-01  0.82330114108E-02  0.70289617015E-01  0.51100000000E-03 0.  1.
         11    1    4    4    0    0  0.45720244873E-01 -0.51141126858E-01  0.14506904476E-01  0.70117523102E-01  0.51100000000E-03 0. -1.
</event>
<event>
 8    1  0.2190512E+004  0.1043930E+01  0.7957747E-01            NaN
         13   -1    0    0    0    0  0.00000000000E+00  0.00000000000E+00  0.74505805969E-08  0.10566000000E+00  0.10566000000E+00 0. -1.
     999900   -1    0    0    0    0 -0.00000000000E+00 -0.00000000000E+00 -0.74505805969E-08  0.93827000000E+00  0.93827000000E+00 0. -1.
     999902    2    1    2    0    0 -0.12717994453E-01  0.25959504178E-02  0.45826720043E-02  0.10301645641E+01  0.10300725906E+01 0.  0.
     999903    2    3    3    0    0 -0.82854251477E-01 -0.97594791456E-01  0.39400411274E-01  0.14102478083E+00  0.44113785749E-01 0.  0.
         14    1    1    2    0    0  0.12717994453E-01 -0.25959504178E-02 -0.45826720043E-02  0.13765435852E-01  0.00000000000E+00 0.  1.
     999901    1    3    3    0    0  0.70136257024E-01  0.10019074187E+00 -0.34817739270E-01  0.88913978332E+00  0.88000000000E+00 0.  1.
        -11    1    4    4    0    0 -0.41214570419E-01 -0.41497808138E-01 -0.42536278892E-02  0.58643527915E-01  0.51100000000E-03 0. -1.
         11    1    4    4    0    0 -0.41639681058E-01 -0.56096983318E-01  0.43654039163E-01  0.82381252918E-01  0.51100000000E-03 0.  1.
</event>
<event>
 8    1  0.2190512E+004  0.1043930E+01  0.7957747E-01            NaN
         13   -1    0    0    0    0  0.00000000000E+00  0.00000000000E+00  0.74505805969E-08  0.10566000000E+00  0.10566000000E+00 0.  1.
     999900   -1    0    0    0    0 -0.00000000000E+00 -0.00000000000E+00 -0.74505805969E-08  0.93827000000E+00  0.93827000000E+00 0. -1.
     999902    2    1    2    0    0 -0.96289792929E-02 -0.18707989395E-02  0.16188354429E-02  0.10339882819E+01  0.10339404864E+01 0.  0.
     999903    2    3    3    0    0  0.10159840432E+00 -0.51394737918E-01 -0.74047361587E-01  0.14238886243E+00  0.42754199083E-01 0.  0.
         14    1    1    2    0    0  0.96289792929E-02  0.18707989395E-02 -0.16188354429E-02  0.99417181155E-02  0.00000000000E+00 0. -1.
     999901    1    3    3    0    0 -0.11122738362E+00  0.49523938978E-01  0.75666197030E-01  0.89159941945E+00  0.88000000000E+00 0.  1.
        -11    1    4    4    0    0  0.65084369765E-01 -0.53645858696E-01 -0.44522906640E-01  0.95375068438E-01  0.51100000000E-03 0.  1.
         11    1    4    4    0    0  0.36514034559E-01  0.22511207783E-02 -0.29524454948E-01  0.47013793992E-01  0.51100000000E-03 0. -1.
</event>
<event>
 8    1  0.2190512E+004  0.1043930E+01  0.7957747E-01            NaN
         13   -1    0    0    0    0  0.00000000000E+00  0.00000000000E+00  0.74505805969E-08  0.10566000000E+00  0.10566000000E+00 0. -1.
     999900   -1    0    0    0    0 -0.00000000000E+00 -0.00000000000E+00 -0.74505805969E-08  0.93827000000E+00  0.93827000000E+00 0.  1.
     999902    2    1    2    0    0  0.52443063791E-02 -0.56765493099E-02  0.93518222786E-02  0.10317981188E+01  0.10317267930E+01 0.  0.
     999903    2    3    3    0    0  0.89224729360E-01 -0.71295915166E-01 -0.71575089855E-01  0.14168139740E+00  0.43663085458E-01 0.  0.
         14    1    1    2    0    0 -0.52443063791E-02  0.56765493099E-02 -0.93518222786E-02  0.12131881198E-01  0.00000000000E+00 0.  1.
     999901    1    3    3    0    0 -0.83980422981E-01  0.65619365856E-01  0.80926912133E-01  0.89011672141E+00  0.88000000000E+00 0. -1.
        -11    1    4    4    0    0  0.61509131967E-01 -0.56196545785E-01 -0.71993912198E-01  0.11011271311E+00  0.51100000000E-03 0.  1.
         11    1    4    4    0    0  0.27715597392E-01 -0.15099369381E-01  0.41882234262E-03  0.31568684288E-01  0.51100000000E-03 0. -1.
</event>
<event>
 8    1  0.2190512E+004  0.1043930E+01  0.7957747E-01            NaN
         13   -1    0    0    0    0  0.00000000000E+00  0.00000000000E+00  0.74505805969E-08  0.10566000000E+00  0.10566000000E+00 0. -1.
     999900   -1    0    0    0    0 -0.00000000000E+00 -0.00000000000E+00 -0.74505805969E-08  0.93827000000E+00  0.93827000000E+00 0.  1.
     999902    2    1    2    0    0 -0.56259918835E-02 -0.13431954387E-01 -0.35734260251E-03  0.10293630210E+01  0.10292599439E+01 0.  0.
     999903    2    3    3    0    0  0.55056583139E-01  0.67263086442E-01  0.96487672125E-01  0.13831138311E+00  0.47587999323E-01 0.  0.
         14    1    1    2    0    0  0.56259918835E-02  0.13431954387E-01  0.35734260251E-03  0.14566978995E-01  0.00000000000E+00 0. -1.
     999901    1    3    3    0    0 -0.60682575022E-01 -0.80695040829E-01 -0.96845014728E-01  0.89105163790E+00  0.88000000000E+00 0.  1.
        -11    1    4    4    0    0  0.30351194131E-01  0.30850063745E-01  0.15191471227E-01  0.45868980121E-01  0.51100000000E-03 0.  1.
         11    1    4    4    0    0  0.24705389008E-01  0.36413022697E-01  0.81296200899E-01  0.92442402984E-01  0.51100000000E-03 0. -1.
</event>
<event>
 8    1  0.2190512E+004  0.1043930E+01  0.7957747E-01            NaN
         13   -1    0    0    0    0  0.00000000000E+00  0.00000000000E+00  0.74505805969E-08  0.10566000000E+00  0.10566000000E+00 0.  1.
     999900   -1    0    0    0    0 -0.00000000000E+00 -0.00000000000E+00 -0.74505805969E-08  0.93827000000E+00  0.93827000000E+00 0.  1.
     999902    2    1    2    0    0  0.46592463160E-03  0.37800622905E-02 -0.13467779516E-01  0.10299340348E+01  0.10298389335E+01 0.  0.
     999903    2    3    3    0    0 -0.80895610601E-01 -0.59254107431E-01 -0.87743015972E-01  0.14082784502E+00  0.45590525529E-01 0.  0.
         14    1    1    2    0    0 -0.46592463160E-03 -0.37800622905E-02  0.13467779516E-01  0.13995965197E-01  0.00000000000E+00 0.  1.
     999901    1    3    3    0    0  0.81361535232E-01  0.63034169721E-01  0.74275236456E-01  0.88910618979E+00  0.88000000000E+00 0.  1.
        -11    1    4    4    0    0 -0.29965235228E-01 -0.23357840991E-01 -0.66738501051E-02  0.38578562107E-01  0.51100000000E-03 0.  1.
         11    1    4    4    0    0 -0.50930375373E-01 -0.35896266440E-01 -0.81069165867E-01  0.10224928291E+00  0.51100000000E-03 0. -1.
</event>
<event>
 8    1  0.2190512E+004  0.1043930E+01  0.7957747E-01            NaN
         13   -1    0    0    0    0  0.00000000000E+00  0.00000000000E+00  0.74505805969E-08  0.10566000000E+00  0.10566000000E+00 0. -1.
     999900   -1    0    0    0    0 -0.00000000000E+00 -0.00000000000E+00 -0.74505805969E-08  0.93827000000E+00  0.93827000000E+00 0.  1.
     999902    2    1    2    0    0 -0.33870748526E-02  0.61332972996E-02  0.15800373697E-01  0.10266458622E+01  0.10265003580E+01 0.  0.
     999903    2    3    3    0    0  0.11603448260E+00 -0.40401370960E-01  0.40735487617E-01  0.13701181176E+00  0.44906399126E-01 0.  0.
         14    1    1    2    0    0  0.33870748526E-02 -0.61332972996E-02 -0.15800373697E-01  0.17284137837E-01  0.00000000000E+00 0.  1.
     999901    1    3    3    0    0 -0.11942155745E+00  0.46534668260E-01 -0.24935113920E-01  0.88963405041E+00  0.88000000000E+00 0.  1.
        -11    1    4    4    0    0  0.25544344798E-01 -0.13732489634E-01  0.30545614262E-01  0.42123514743E-01  0.51100000000E-03 0.  1.
         11    1    4    4    0    0  0.90490137800E-01 -0.26668881327E-01  0.10189873355E-01  0.94888297014E-01  0.51100000000E-03 0. -1.
</event>
<event>
 8    1  0.2190512E+004  0.1043930E+01  0.7957747E-01            NaN
         13   -1    0    0    0    0  0.00000000000E+00  0.00000000000E+00  0.74505805969E-08  0.10566000000E+00  0.10566000000E+00 0. -1.
     999900   -1    0    0    0    0 -0.00000000000E+00 -0.00000000000E+00 -0.74505805969E-08  0.93827000000E+00  0.93827000000E+00 0.  1.
     999902    2    1    2    0    0  0.87678897844E-02 -0.55925469869E-02 -0.74497231789E-02  0.10311373909E+01  0.10310580333E+01 0.  0.
     999903    2    3    3    0    0  0.82098432087E-01  0.10598556424E+00 -0.20321776259E-01  0.14097294926E+00  0.38565599387E-01 0.  0.
         14    1    1    2    0    0 -0.87678897844E-02  0.55925469869E-02  0.74497231789E-02  0.12792609136E-01  0.00000000000E+00 0.  1.
     999901    1    3    3    0    0 -0.73330542302E-01 -0.11157811122E+00  0.12872053080E-01  0.89016444160E+00  0.88000000000E+00 0. -1.
        -11    1    4    4    0    0  0.21808307187E-01  0.34645453536E-01 -0.24069776273E-01  0.47492367428E-01  0.51100000000E-03 0. -1.
         11    1    4    4    0    0  0.60290124900E-01  0.71340110701E-01  0.37480000141E-02  0.93480581836E-01  0.51100000000E-03 0.  1.
</event>
<event>
 8    1  0.2190512E+004  0.1043930E+01  0.7957747E-01            NaN
         13   -1    0    0    0    0  0.00000000000E+00  0.00000000000E+00  0.74505805969E-08  0.10566000000E+00  0.10566000000E+00 0. -1.
     999900   -1    0    0    0    0 -0.00000000000E+00 -0.00000000000E+00 -0.74505805969E-08  0.93827000000E+00  0.93827000000E+00 0. -1.
     999902    2    1    2    0    0 -0.86246767835E-02  0.82587521211E-02  0.64940417794E-02  0.10303371852E+01  0.10302475191E+01 0.  0.
     999903    2    3    3    0    0  0.98728041586E-01  0.83378971550E-01 -0.30299756644E-01  0.13987582323E+00  0.44134924725E-01 0.  0.
         14    1    1    2    0    0  0.86246767835E-02 -0.82587521211E-02 -0.64940417794E-02  0.13592814824E-01  0.00000000000E+00 0. -1.
     999901    1    3    3    0    0 -0.10735271837E+00 -0.75120219429E-01  0.36793798423E-01  0.89046136194E+00  0.88000000000E+00 0.  1.
        -11    1    4    4    0    0  0.69172310884E-01  0.34894658334E-01 -0.47928148494E-02  0.77625240537E-01  0.51100000000E-03 0.  1.
         11    1    4    4    0    0  0.29555730702E-01  0.48484313216E-01 -0.25506941795E-01  0.62250582697E-01  0.51100000000E-03 0. -1.
</event>
<event>
 8    1  0.2190512E+004  0.1043930E+01  0.7957747E-01            NaN
         13   -1    0    0    0    0  0.00000000000E+00  0.00000000000E+00  0.74505805969E-08  0.10566000000E+00  0.10566000000E+00 0.  1.
     999900   -1    0    0    0    0 -0.00000000000E+00 -0.00000000000E+00 -0.74505805969E-08  0.93827000000E+00  0.93827000000E+00 0. -1.
     999902    2    1    2    0    0 -0.10263323955E-01  0.63515148231E-02  0.74648592056E-02  0.10297383940E+01  0.10296405967E+01 0.  0.
     999903    2    3    3    0    0  0.58412731643E-01  0.70121424683E-01 -0.94760012821E-01  0.13887761556E+00  0.44480002893E-01 0.  0.
         14    1    1    2    0    0  0.10263323955E-01 -0.63515148231E-02 -0.74648592056E-02  0.14191606044E-01  0.00000000000E+00 0. -1.
     999901    1    3    3    0    0 -0.68676055598E-01 -0.63769909860E-01  0.10222487203E+00  0.89086077839E+00  0.88000000000E+00 0.  1.
        -11    1    4    4    0    0  0.47611527226E-01  0.41644163588E-01 -0.36233847956E-01  0.72898880269E-01  0.51100000000E-03 0. -1.
         11    1    4    4    0    0  0.10801204417E-01  0.28477261095E-01 -0.58526164865E-01  0.65978735295E-01  0.51100000000E-03 0.  1.
</event>
<event>
 7    1  0.2190512E+004  0.1043930E+01  0.7957747E-01            NaN
         13   -1    0    0    0    0  0.00000000000E+00  0.00000000000E+00  0.74505805969E-08  0.10566000000E+00  0.10566000000E+00 0. -1.
     999900   -1    0    0    0    0 -0.00000000000E+00 -0.00000000000E+00 -0.74505805969E-08  0.93827000000E+00  0.93827000000E+00 0. -1.
     999902    2    1    2    0    0  0.14429147139E-02 -0.67911288696E-02  0.10960149156E-01  0.10309559373E+01  0.10308742980E+01 0.  0.
         14    1    1    2    0    0 -0.14429147139E-02  0.67911288696E-02 -0.10960149156E-01  0.12974062730E-01  0.00000000000E+00 0.  1.
     999901    1    3    3    0    0 -0.24416183964E-01  0.10370510670E-01 -0.10291231069E+00  0.88639417937E+00  0.88000000000E+00 0. -1.
        -11    1    3    3    0    0 -0.29965681264E-01 -0.79667636823E-02  0.53374303579E-01  0.61729156650E-01  0.51100000000E-03 0.  1.
         11    1    3    3    0    0  0.55824779942E-01 -0.91948758574E-02  0.60498156263E-01  0.82832601249E-01  0.51100000000E-03 0. -1.
</event>
<event>
 8    1  0.2190512E+004  0.1043930E+01  0.7957747E-01            NaN
         13   -1    0    0    0    0  0.00000000000E+00  0.00000000000E+00  0.74505805969E-08  0.10566000000E+00  0.10566000000E+00 0.  1.
     999900   -1    0    0    0    0 -0.00000000000E+00 -0.00000000000E+00 -0.74505805969E-08  0.93827000000E+00  0.93827000000E+00 0.  1.
     999902    2    1    2    0    0 -0.22492609443E-02 -0.13966954558E-01  0.26695932002E-02  0.10295334128E+01  0.10294327498E+01 0.  0.
     999903    2    3    3    0    0  0.65656160954E-01 -0.11658813565E+00  0.30428350617E-02  0.14097143275E+00  0.44273707335E-01 0.  0.
         14    1    1    2    0    0  0.22492609443E-02  0.13966954558E-01 -0.26695932002E-02  0.14396587174E-01  0.00000000000E+00 0. -1.
     999901    1    3    3    0    0 -0.67905421899E-01  0.10262118109E+00 -0.37324186145E-03  0.88856198008E+00  0.88000000000E+00 0.  1.
        -11    1    4    4    0    0  0.34686357795E-02 -0.48866843390E-01  0.14156433955E-02  0.49012906303E-01  0.51100000000E-03 0. -1.
         11    1    4    4    0    0  0.62187525175E-01 -0.67721292255E-01  0.16271916662E-02  0.91958526444E-01  0.51100000000E-03 0.  1.
</event>
<event>
 8    1  0.2190512E+004  0.1043930E+01  0.7957747E-01            NaN
         13   -1    0    0    0    0  0.00000000000E+00  0.00000000000E+00  0.74505805969E-08  0.10566000000E+00  0.10566000000E+00 0. -1.
     999900   -1    0    0    0    0 -0.00000000000E+00 -0.00000000000E+00 -0.74505805969E-08  0.93827000000E+00  0.93827000000E+00 0.  1.
     999902    2    1    2    0    0  0.13661876354E-01 -0.24628905661E-02 -0.44016280060E-02  0.10293667921E+01  0.10292637687E+01 0.  0.
     999903    2    3    3    0    0  0.98071127714E-01 -0.85695500321E-01  0.27986180077E-01  0.14082778949E+00  0.45689989601E-01 0.  0.
         14    1    1    2    0    0 -0.13661876354E-01  0.24628905661E-02  0.44016280060E-02  0.14563207907E-01  0.00000000000E+00 0. -1.
     999901    1    3    3    0    0 -0.84409251360E-01  0.83232609755E-01 -0.32387808083E-01  0.88853900261E+00  0.88000000000E+00 0.  1.
        -11    1    4    4    0    0  0.15525446397E-01 -0.41254679263E-01  0.12381404537E-01  0.45788080832E-01  0.51100000000E-03 0.  1.
         11    1    4    4    0    0  0.82545681317E-01 -0.44440821057E-01  0.15604775540E-01  0.95039708654E-01  0.51100000000E-03 0. -1.
</event>
<event>
 8    1  0.2190512E+004  0.1043930E+01  0.7957747E-01            NaN
         13   -1    0    0    0    0  0.00000000000E+00  0.00000000000E+00  0.74505805969E-08  0.10566000000E+00  0.10566000000E+00 0.  1.
     999900   -1    0    0    0    0 -0.00000000000E+00 -0.00000000000E+00 -0.74505805969E-08  0.93827000000E+00  0.93827000000E+00 0.  1.
     999902    2    1    2    0    0  0.56882806103E-03 -0.72379981767E-03  0.13878690116E-01  0.10300208127E+01  0.10299268950E+01 0.  0.
     999903    2    3    3    0    0 -0.12186370843E+00 -0.30920216667E-01 -0.42197469414E-01  0.13926490606E+00  0.42511932486E-01 0.  0.
         14    1    1    2    0    0 -0.56882806103E-03  0.72379981767E-03 -0.13878690116E-01  0.13909187283E-01  0.00000000000E+00 0. -1.
     999901    1    3    3    0    0  0.12243253649E+00  0.30196416850E-01  0.56076159530E-01  0.89075590666E+00  0.88000000000E+00 0. -1.
        -11    1    4    4    0    0 -0.66262782878E-01 -0.11611548657E-02 -0.37199548037E-01  0.76001132692E-01  0.51100000000E-03 0. -1.
         11    1    4    4    0    0 -0.55600925550E-01 -0.29759061801E-01 -0.49979213774E-02  0.63263773365E-01  0.51100000000E-03 0.  1.
</event>
<event>
 8    1  0.2190512E+004  0.1043930E+01  0.7957747E-01            NaN
         13   -1    0    0    0    0  0.00000000000E+00  0.00000000000E+00  0.74505805969E-08  0.10566000000E+00  0.10566000000E+00 0. -1.
     999900   -1    0    0    0    0 -0.00000000000E+00 -0.00000000000E+00 -0.74505805969E-08  0.93827000000E+00  0.93827000000E+00 0. -1.
     999902    2    1    2    0    0  0.11092669103E-01 -0.35582235109E-02 -0.81832076871E-02  0.10296936679E+01  0.10295952489E+01 0.  0.
     999903    2    3    3    0    0  0.11312594417E+00 -0.30799932335E-01  0.62792946315E-01  0.14054209799E+00  0.45420393239E-01 0.  0.
         14    1    1    2    0    0 -0.11092669103E-01  0.35582235109E-02  0.81832076871E-02  0.14236332057E-01  0.00000000000E+00 0. -1.
     999901    1    3    3    0    0 -0.10203327507E+00  0.27241708824E-01 -0.70976154002E-01  0.88915156996E+00  0.88000000000E+00 0. -1.
        -11    1    4    4    0    0  0.43634750759E-01 -0.14489760491E-01  0.50169955471E-01  0.68053142366E-01  0.51100000000E-03 0. -1.
         11    1    4    4    0    0  0.69491193416E-01 -0.16310171844E-01  0.12622990843E-01  0.72488955620E-01  0.51100000000E-03 0.  1.
</event>
<event>
 8    1  0.2190512E+004  0.1043930E+01  0.7957747E-01            NaN
         13   -1    0    0    0    0  0.00000000000E+00  0.00000000000E+00  0.74505805969E-08  0.10566000000E+00  0.10566000000E+00 0. -1.
     999900   -1    0    0    0    0 -0.00000000000E+00 -0.00000000000E+00 -0.74505805969E-08  0.93827000000E+00  0.93827000000E+00 0.  1.
     999902    2    1    2    0    0  0.42591689527E-02 -0.14457790198E-01  0.35559071643E-02  0.10284441131E+01  0.10283275164E+01 0.  0.
     999903    2    3    3    0    0  0.24107433472E-01 -0.24570086489E-01  0.12669217650E+00  0.13959162085E+00  0.47434750209E-01 0.  0.
         14    1    1    2    0    0 -0.42591689527E-02  0.14457790198E-01 -0.35559071643E-02  0.15485886908E-01  0.00000000000E+00 0.  1.
     999901    1    3    3    0    0 -0.19848264520E-01  0.10112296291E-01 -0.12313626933E+00  0.88885249224E+00  0.88000000000E+00 0.  1.
        -11    1    4    4    0    0  0.15701709994E-02  0.99392877016E-02  0.62483541843E-01  0.63290670712E-01  0.51100000000E-03 0. -1.
         11    1    4    4    0    0  0.22537262473E-01 -0.34509374191E-01  0.64208634653E-01  0.76300950137E-01  0.51100000000E-03 0.  1.
</event>
<event>
 8    1  0.2190512E+004  0.1043930E+01  0.7957747E-01            NaN
         13   -1    0    0    0    0  0.00000000000E+00  0.00000000000E+00  0.74505805969E-08  0.10566000000E+00  0.10566000000E+00 0.  1.
     999900   -1    0    0    0    0 -0.00000000000E+00 -0.00000000000E+00 -0.74505805969E-08  0.93827000000E+00  0.93827000000E+00 0. -1.
     999902    2    1    2    0    0  0.11815828227E-01 -0.61846647377E-02  0.45773330722E-02  0.10298297925E+01  0.10297332594E+01 0.  0.
     999903    2    3    3    0    0 -0.10176843917E+00  0.57525713627E-01  0.60916337109E-01  0.13846315550E+00  0.42370064489E-01 0.  0.
         14    1    1    2    0    0 -0.11815828227E-01  0.61846647377E-02 -0.45773330722E-02  0.14100207540E-01  0.00000000000E+00 0. -1.
     999901    1    3    3    0    0  0.11358426740E+00 -0.63710378365E-01 -0.56339004037E-01  0.89136663696E+00  0.88000000000E+00 0. -1.
        -11    1    4    4    0    0 -0.70834099297E-01  0.16176458146E-01  0.33849409029E-01  0.80157289338E-01  0.51100000000E-03 0. -1.
         11    1    4    4    0    0 -0.30934339872E-01  0.41349255481E-01  0.27066928080E-01  0.58305866161E-01  0.51100000000E-03 0.  1.
</event>
<event>
 8    1  0.2190512E+004  0.1043930E+01  0.7957747E-01            NaN
         13   -1    0    0    0    0  0.00000000000E+00  0.00000000000E+00  0.74505805969E-08  0.10566000000E+00  0.10566000000E+00 0.  1.
     999900   -1    0    0    0    0 -0.00000000000E+00 -0.00000000000E+00 -0.74505805969E-08  0.93827000000E+00  0.93827000000E+00 0.  1.
     999902    2    1    2    0    0  0.10490035603E-01  0.89612036397E-02 -0.14088713650E-02  0.10300617292E+01  0.10299683670E+01 0.  0.
     999903    2    3    3    0    0  0.81877777397E-01  0.78158780058E-01  0.71863076679E-01  0.14143734696E+00  0.45027280560E-01 0.  0.
         14    1    1    2    0    0 -0.10490035603E-01 -0.89612036397E-02  0.14088713650E-02  0.13868270842E-01  0.00000000000E+00 0.  1.
     999901    1    3    3    0    0 -0.71387741794E-01 -0.69197576418E-01 -0.73271948044E-01  0.88862438219E+00  0.88000000000E+00 0.  1.
        -11    1    4    4    0    0  0.55736485904E-01  0.25853087763E-01  0.49234209146E-01  0.78735039715E-01  0.51100000000E-03 0. -1.
         11    1    4    4    0    0  0.26141291494E-01  0.52305692295E-01  0.22628867533E-01  0.62702307248E-01  0.51100000000E-03 0.  1.
</event>
<event>
 8    1  0.2190512E+004  0.1043930E+01  0.7957747E-01            NaN
         13   -1    0    0    0    0  0.00000000000E+00  0.00000000000E+00  0.74505805969E-08  0.10566000000E+00  0.10566000000E+00 0.  1.
     999900   -1    0    0    0    0 -0.00000000000E+00 -0.00000000000E+00 -0.74505805969E-08  0.93827000000E+00  0.93827000000E+00 0.  1.
     999902    2    1    2    0    0 -0.13047605945E-01  0.10015153958E-01  0.17453960223E-02  0.10273894517E+01  0.10272562951E+01 0.  0.
     999903    2    3    3    0    0 -0.54629353359E-01  0.81136126718E-01  0.88521887649E-01  0.13929182535E+00  0.44706271481E-01 0.  0.
         14    1    1    2    0    0  0.13047605945E-01 -0.10015153958E-01 -0.17453960223E-02  0.16540548267E-01  0.00000000000E+00 0. -1.
     999901    1    3    3    0    0  0.41581747414E-01 -0.71120972759E-01 -0.86776491626E-01  0.88809762638E+00  0.88000000000E+00 0.  1.
        -11    1    4    4    0    0  0.22855163652E-02  0.31818075867E-01  0.31439389394E-01  0.44791850413E-01  0.51100000000E-03 0.  1.
         11    1    4    4    0    0 -0.56914869725E-01  0.49318050850E-01  0.57082498255E-01  0.94499974939E-01  0.51100000000E-03 0. -1.
</event>
<event>
 8    1  0.2190512E+004  0.1043930E+01  0.7957747E-01            NaN
         13   -1    0    0    0    0  0.00000000000E+00  0.00000000000E+00  0.74505805969E-08  0.10566000000E+00  0.10566000000E+00 0. -1.
     999900   -1    0    0    0    0 -0.00000000000E+00 -0.00000000000E+00 -0.74505805969E-08  0.93827000000E+00  0.93827000000E+00 0. -1.
     999902    2    1    2    0    0  0.32652929069E-02  0.13453575969E-01  0.19762181836E-02  0.10299454985E+01  0.10298505540E+01 0.  0.
     999903    2    3    3    0    0  0.89055954088E-01 -0.98297518693E-01  0.84695550931E-02  0.13871572558E+00  0.39710880366E-01 0.  0.
         14    1    1    2    0    0 -0.32652929069E-02 -0.13453575969E-01 -0.19762181836E-02  0.13984501508E-01  0.00000000000E+00 0.  1.
     999901    1    3    3    0    0 -0.85790661181E-01  0.11175109466E+00 -0.64933369095E-02  0.89122977291E+00  0.88000000000E+00 0.  1.
        -11    1    4    4    0    0  0.21585501515E-01 -0.33777693267E-02  0.36658399146E-02  0.22159483400E-01  0.51100000000E-03 0.  1.
         11    1    4    4    0    0  0.67470452573E-01 -0.94919749366E-01  0.48037151785E-02  0.11655624218E+00  0.51100000000E-03 0. -1.
</event>
<event>
 8    1  0.2190512E+004  0.1043930E+01  0.7957747E-01            NaN
         13   -1    0    0    0    0  0.00000000000E+00  0.00000000000E+00  0.74505805969E-08  0.10566000000E+00  0.10566000000E+00 0. -1.
     999900   -1    0    0    0    0 -0.00000000000E+00 -0.00000000000E+00 -0.74505805969E-08  0.93827000000E+00  0.93827000000E+00 0. -1.
     999902    2    1    2    0    0  0.11047040940E-01  0.11283119951E-01 -0.41732275353E-02  0.10275971577E+01  0.10274673507E+01 0.  0.
     999903    2    3    3    0    0 -0.41750930813E-01  0.11022710260E+00  0.57678472284E-01  0.13832601216E+00  0.43750715475E-01 0.  0.
         14    1    1    2    0    0 -0.11047040940E-01 -0.11283119951E-01  0.41732275353E-02  0.16332842295E-01  0.00000000000E+00 0. -1.
     999901    1    3    3    0    0  0.52797971753E-01 -0.98943982649E-01 -0.61851699819E-01  0.88927114554E+00  0.88000000000E+00 0. -1.
        -11    1    4    4    0    0 -0.42638981954E-02  0.19335986875E-01  0.30415918806E-01  0.36296700319E-01  0.51100000000E-03 0. -1.
         11    1    4    4    0    0 -0.37487032617E-01  0.90891115725E-01  0.27262553478E-01  0.10202931184E+00  0.51100000000E-03 0.  1.
</event>
<event>
 8    1  0.2190512E+004  0.1043930E+01  0.7957747E-01            NaN
         13   -1    0    0    0    0  0.00000000000E+00  0.00000000000E+00  0.74505805969E-08  0.10566000000E+00  0.10566000000E+00 0.  1.
     999900   -1    0    0    0    0 -0.00000000000E+00 -0.00000000000E+00 -0.74505805969E-08  0.93827000000E+00  0.93827000000E+00 0.  1.
     999902    2    1    2    0    0 -0.16956244667E-02 -0.11635498830E-01 -0.73459741893E-02  0.10300655378E+01  0.10299722272E+01 0.  0.
     999903    2    3    3    0    0 -0.10561817062E+00 -0.42573772491E-01 -0.70440288954E-01  0.14116848812E+00  0.44709995073E-01 0.  0.
         14    1    1    2    0    0  0.16956244667E-02  0.11635498830E-01  0.73459741893E-02  0.13864462202E-01  0.00000000000E+00 0.  1.
     999901    1    3    3    0    0  0.10392254616E+00  0.30938273660E-01  0.63094314765E-01  0.88889704968E+00  0.88000000000E+00 0. -1.
        -11    1    4    4    0    0 -0.49460389613E-01 -0.43795753753E-01 -0.40902987745E-01  0.77702726561E-01  0.51100000000E-03 0. -1.
         11    1    4    4    0    0 -0.56157781010E-01  0.12219812627E-02 -0.29537301209E-01  0.63465761556E-01  0.51100000000E-03 0.  1.
</event>
<event>
 8    1  0.2190512E+004  0.1043930E+01  0.7957747E-01            NaN
         13   -1    0    0    0    0  0.00000000000E+00  0.00000000000E+00  0.74505805969E-08  0.10566000000E+00  0.10566000000E+00 0. -1.
     999900   -1    0    0    0    0 -0.00000000000E+00 -0.00000000000E+00 -0.74505805969E-08  0.93827000000E+00  0.93827000000E+00 0.  1.
     999902    2    1    2    0    0 -0.22844314058E-02 -0.36263145709E-02 -0.13172388711E-01  0.10300779024E+01  0.10299847593E+01 0.  0.
     999903    2    3    3    0    0 -0.12017444718E+00  0.37550339629E-01 -0.43342639213E-01  0.14075016937E+00  0.45608113787E-01 0.  0.
         14    1    1    2    0    0  0.22844314058E-02  0.36263145709E-02  0.13172388711E-01  0.13852097624E-01  0.00000000000E+00 0. -1.
     999901    1    3    3    0    0  0.11789001578E+00 -0.41176654200E-01  0.30170250502E-01  0.88932773300E+00  0.88000000000E+00 0.  1.
        -11    1    4    4    0    0 -0.50408224671E-01  0.15770493114E-02  0.12902932374E-02  0.50451978917E-01  0.51100000000E-03 0.  1.
         11    1    4    4    0    0 -0.69766222511E-01  0.35973290318E-01 -0.44632932451E-01  0.90298190457E-01  0.51100000000E-03 0. -1.
</event>
<event>
 8    1  0.2190512E+004  0.1043930E+01  0.7957747E-01            NaN
         13   -1    0    0    0    0  0.00000000000E+00  0.00000000000E+00  0.74505805969E-08  0.10566000000E+00  0.10566000000E+00 0.  1.
     999900   -1    0    0    0    0 -0.00000000000E+00 -0.00000000000E+00 -0.74505805969E-08  0.93827000000E+00  0.93827000000E+00 0. -1.
     999902    2    1    2    0    0  0.30906504533E-02  0.10979158454E-01  0.64012381710E-02  0.10308506311E+01  0.10307676527E+01 0.  0.
     999903    2    3    3    0    0  0.80461469654E-01  0.45598752538E-01 -0.96424466434E-01  0.14081811176E+00  0.44483351283E-01 0.  0.
         14    1    1    2    0    0 -0.30906504533E-02 -0.10979158454E-01 -0.64012381710E-02  0.13079368896E-01  0.00000000000E+00 0. -1.
     999901    1    3    3    0    0 -0.77370819201E-01 -0.34619594084E-01  0.10282570460E+00  0.89003251934E+00  0.88000000000E+00 0.  1.
        -11    1    4    4    0    0  0.80400939309E-01  0.46093333472E-01 -0.74573108570E-01  0.11895510109E+00  0.51100000000E-03 0.  1.
         11    1    4    4    0    0  0.60530344984E-04 -0.49458093376E-03 -0.21851357863E-01  0.21863010673E-01  0.51100000000E-03 0. -1.
</event>
<event>
 8    1  0.2190512E+004  0.1043930E+01  0.7957747E-01            NaN
         13   -1    0    0    0    0  0.00000000000E+00  0.00000000000E+00  0.74505805969E-08  0.10566000000E+00  0.10566000000E+00 0.  1.
     999900   -1    0    0    0    0 -0.00000000000E+00 -0.00000000000E+00 -0.74505805969E-08  0.93827000000E+00  0.93827000000E+00 0.  1.
     999902    2    1    2    0    0 -0.13109813329E-01  0.49276303024E-02  0.96574900801E-03  0.10298914311E+01  0.10297957460E+01 0.  0.
     999903    2    3    3    0    0  0.55128210034E-01 -0.24138978581E-01  0.11748603020E+00  0.13911745779E+00  0.43919129560E-01 0.  0.
         14    1    1    2    0    0  0.13109813329E-01 -0.49276303024E-02 -0.96574900801E-03  0.14038568910E-01  0.00000000000E+00 0. -1.
     999901    1    3    3    0    0 -0.68238023363E-01  0.29066608884E-01 -0.11652028119E+00  0.89077397330E+00  0.88000000000E+00 0.  1.
        -11    1    4    4    0    0  0.52584163241E-01 -0.34933139560E-01  0.95391435484E-01  0.11439058330E+00  0.51100000000E-03 0.  1.
         11    1    4    4    0    0  0.25440467929E-02  0.10794160979E-01  0.22094594713E-01  0.24726874486E-01  0.51100000000E-03 0. -1.
</event>
<event>
 8    1  0.2190512E+004  0.1043930E+01  0.7957747E-01            NaN
         13   -1    0    0    0    0  0.00000000000E+00  0.00000000000E+00  0.74505805969E-08  0.10566000000E+00  0.10566000000E+00 0. -1.
     999900   -1    0    0    0    0 -0.00000000000E+00 -0.00000000000E+00 -0.74505805969E-08  0.93827000000E+00  0.93827000000E+00 0. -1.
     999902    2    1    2    0    0  0.78424963922E-02  0.99755497706E-02  0.46655688377E-02  0.10304102413E+01  0.10303215428E+01 0.  0.
     999903    2    3    3    0    0  0.79552739562E-01  0.67461423271E-01  0.85151179784E-01  0.14197064391E+00  0.45002870047E-01 0.  0.
         14    1    1    2    0    0 -0.78424963922E-02 -0.99755497706E-02 -0.46655688377E-02  0.13519758706E-01  0.00000000000E+00 0. -1.
     999901    1    3    3    0    0 -0.71710243170E-01 -0.57485873501E-01 -0.80485610946E-01  0.88843959738E+00  0.88000000000E+00 0. -1.
        -11    1    4    4    0    0  0.55216617351E-01  0.33423413150E-01  0.26163796521E-01  0.69647718898E-01  0.51100000000E-03 0. -1.
         11    1    4    4    0    0  0.24336122211E-01  0.34038010121E-01  0.58987383263E-01  0.72322925014E-01  0.51100000000E-03 0.  1.
</event>
<event>
 8    1  0.2190512E+004  0.1043930E+01  0.7957747E-01            NaN
         13   -1    0    0    0    0  0.00000000000E+00  0.00000000000E+00  0.74505805969E-08  0.10566000000E+00  0.10566000000E+00 0. -1.
     999900   -1    0    0    0    0 -0.00000000000E+00 -0.00000000000E+00 -0.74505805969E-08  0.93827000000E+00  0.93827000000E+00 0. -1.
     999902    2    1    2    0    0 -0.58957935656E-02  0.24006328114E-02 -0.12310854136E-01  0.10300706873E+01  0.10299774465E+01 0.  0.
     999903    2    3    3    0    0  0.14296646642E-01 -0.90043938485E-01 -0.96725905590E-01  0.14098147110E+00  0.46984778586E-01 0.  0.
         14    1    1    2    0    0  0.58957935656E-02 -0.24006328114E-02  0.12310854136E-01  0.13859312725E-01  0.00000000000E+00 0. -1.
     999901    1    3    3    0    0 -0.20192440208E-01  0.92444571296E-01  0.84415051454E-01  0.88908921617E+00  0.88000000000E+00 0.  1.
        -11    1    4    4    0    0  0.90447817005E-02 -0.29567629578E-03 -0.22974713424E-01  0.24698058191E-01  0.51100000000E-03 0.  1.
         11    1    4    4    0    0  0.52518649415E-02 -0.89748262189E-01 -0.73751192166E-01  0.11628341291E+00  0.51100000000E-03 0. -1.
</event>
<event>
 8    1  0.2190512E+004  0.1043930E+01  0.7957747E-01            NaN
         13   -1    0    0    0    0  0.00000000000E+00  0.00000000000E+00  0.74505805969E-08  0.10566000000E+00  0.10566000000E+00 0.  1.
     999900   -1    0    0    0    0 -0.00000000000E+00 -0.00000000000E+00 -0.74505805969E-08  0.93827000000E+00  0.93827000000E+00 0. -1.
     999902    2    1    2    0    0  0.19233275401E-02 -0.13455971678E-01  0.26500697858E-02  0.10300813455E+01  0.10299882490E+01 0.  0.
     999903    2    3    3    0    0 -0.11319173036E+00  0.59175147811E-01  0.31759462635E-01  0.13914132906E+00  0.45139561869E-01 0.  0.
         14    1    1    2    0    0 -0.19233275401E-02  0.13455971678E-01 -0.26500697858E-02  0.13848654537E-01  0.00000000000E+00 0.  1.
     999901    1    3    3    0    0  0.11511505790E+00 -0.72631119489E-01 -0.29109392849E-01  0.89094001640E+00  0.88000000000E+00 0.  1.
        -11    1    4    4    0    0 -0.21741446960E-01  0.11493764608E-02  0.21080048641E-01  0.30309093584E-01  0.51100000000E-03 0. -1.
         11    1    4    4    0    0 -0.91450283400E-01  0.58025771351E-01  0.10679413993E-01  0.10883223548E+00  0.51100000000E-03 0.  1.
</event>
<event>
 8    1  0.2190512E+004  0.1043930E+01  0.7957747E-01            NaN
         13   -1    0    0    0    0  0.00000000000E+00  0.00000000000E+00  0.74505805969E-08  0.10566000000E+00  0.10566000000E+00 0. -1.
     999900   -1    0    0    0    0 -0.00000000000E+00 -0.00000000000E+00 -0.74505805969E-08  0.93827000000E+00  0.93827000000E+00 0. -1.
     999902    2    1    2    0    0 -0.11736814795E-01 -0.49194221446E-02  0.50575969154E-02  0.10302357376E+01  0.10301447191E+01 0.  0.
     999903    2    3    3    0    0 -0.63305879355E-01  0.11133745991E+00 -0.36754469720E-01  0.14011030827E+00  0.43316776180E-01 0.  0.
         14    1    1    2    0    0  0.11736814795E-01  0.49194221446E-02 -0.50575969154E-02  0.13694262387E-01  0.00000000000E+00 0.  1.
     999901    1    3    3    0    0  0.51569064560E-01 -0.11625688206E+00  0.41812066636E-01  0.89012542934E+00  0.88000000000E+00 0.  1.
        -11    1    4    4    0    0 -0.31238758559E-01  0.17312814074E-01 -0.12556923182E-01  0.37861999528E-01  0.51100000000E-03 0. -1.
         11    1    4    4    0    0 -0.32067120796E-01  0.94024645839E-01 -0.24197546538E-01  0.10224830874E+00  0.51100000000E-03 0.  1.
</event>
<event>
 8    1  0.2190512E+004  0.1043930E+01  0.7957747E-01            NaN
         13   -1    0    0    0    0  0.00000000000E+00  0.00000000000E+00  0.74505805969E-08  0.10566000000E+00  0.10566000000E+00 0.  1.
     999900   -1    0    0    0    0 -0.00000000000E+00 -0.00000000000E+00 -0.74505805969E-08  0.93827000000E+00  0.93827000000E+00 0.  1.
     999902    2    1    2    0    0 -0.42497352306E-02  0.10352230287E-01  0.12433595205E-01  0.10272020829E+01  0.10270658673E+01 0.  0.
     999903    2    3    3    0    0  0.22965350316E-01 -0.10190517181E+00 -0.73387026671E-01  0.13551404082E+00  0.45456883098E-01 0.  0.
         14    1    1    2    0    0  0.42497352306E-02 -0.10352230287E-01 -0.12433595205E-01  0.16727917120E-01  0.00000000000E+00 0. -1.
     999901    1    3    3    0    0 -0.27215085546E-01  0.11225740209E+00  0.85820621876E-01  0.89168804206E+00  0.88000000000E+00 0. -1.
        -11    1    4    4    0    0 -0.44213929614E-02 -0.70108843568E-01 -0.34353702103E-01  0.78199978461E-01  0.51100000000E-03 0.  1.
         11    1    4    4    0    0  0.27386743277E-01 -0.31796328238E-01 -0.39033324567E-01  0.57314062363E-01  0.51100000000E-03 0. -1.
</event>
<event>
 7    1  0.2190512E+004  0.1043930E+01  0.7957747E-01            NaN
         13   -1    0    0    0    0  0.00000000000E+00  0.00000000000E+00  0.74505805969E-08  0.10566000000E+00  0.10566000000E+00 0. -1.
     999900   -1    0    0    0    0 -0.00000000000E+00 -0.00000000000E+00 -0.74505805969E-08  0.93827000000E+00  0.93827000000E+00 0. -1.
     999903    2    1    2    0    0  0.56547003903E-02 -0.53652828241E-01  0.84340860511E-01  0.10977152134E+00  0.45008938341E-01 0.  0.
         14    1    1    2    0    0 -0.13753497518E-01 -0.42322238577E-01 -0.11189039353E-01  0.45886001938E-01  0.00000000000E+00 0. -1.
     999901    1    1    2    0    0  0.80987971279E-02  0.95975066819E-01 -0.73151821158E-01  0.88827247672E+00  0.88000000000E+00 0. -1.
        -11    1    3    3    0    0  0.28963853427E-02  0.43140828385E-02  0.29385590086E-01  0.29845843672E-01  0.51100000000E-03 0.  1.
         11    1    3    3    0    0  0.27583150475E-02 -0.57966911080E-01  0.54955270425E-01  0.79925677667E-01  0.51100000000E-03 0. -1.
</event>
<event>
 8    1  0.2190512E+004  0.1043930E+01  0.7957747E-01            NaN
         13   -1    0    0    0    0  0.00000000000E+00  0.00000000000E+00  0.74505805969E-08  0.10566000000E+00  0.10566000000E+00 0. -1.
     999900   -1    0    0    0    0 -0.00000000000E+00 -0.00000000000E+00 -0.74505805969E-08  0.93827000000E+00  0.93827000000E+00 0. -1.
     999902    2    1    2    0    0  0.81755099112E-02  0.82604960901E-02 -0.27746276688E-02  0.10319812211E+01  0.10319120444E+01 0.  0.
     999903    2    3    3    0    0 -0.69114997863E-01 -0.53296648413E-01  0.99687704328E-01  0.14054326248E+00  0.46875948764E-01 0.  0.
         14    1    1    2    0    0 -0.81755099112E-02 -0.82604960901E-02  0.27746276688E-02  0.11948778877E-01  0.00000000000E+00 0.  1.
     999901    1    3    3    0    0  0.77290507774E-01  0.61557144503E-01 -0.10246233200E+00  0.89143795864E+00  0.88000000000E+00 0.  1.
        -11    1    4    4    0    0 -0.52848118856E-01 -0.56653826493E-01  0.96275192616E-01  0.12357893654E+00  0.51100000000E-03 0.  1.
         11    1    4    4    0    0 -0.16266879007E-01  0.33571780804E-02  0.34125117126E-02  0.16964325937E-01  0.51100000000E-03 0. -1.
</event>
<event>
 8    1  0.2190512E+004  0.1043930E+01  0.7957747E-01            NaN
         13   -1    0    0    0    0  0.00000000000E+00  0.00000000000E+00  0.74505805969E-08  0.10566000000E+00  0.10566000000E+00 0. -1.
     999900   -1    0    0    0    0 -0.00000000000E+00 -0.00000000000E+00 -0.74505805969E-08  0.93827000000E+00  0.93827000000E+00 0.  1.
     999902    2    1    2    0    0  0.13606055616E-01 -0.43043221704E-02 -0.40986434873E-02  0.10290824138E+01  0.10289752978E+01 0.  0.
     999903    2    3    3    0    0  0.79639850956E-01  0.89326239280E-01 -0.57332008216E-01  0.14005995325E+00  0.44812369438E-01 0.  0.
         14    1    1    2    0    0 -0.13606055616E-01  0.43043221704E-02  0.40986434873E-02  0.14847586242E-01  0.00000000000E+00 0.  1.
     999901    1    3    3    0    0 -0.66033795340E-01 -0.93630561450E-01  0.53233364729E-01  0.88902246051E+00  0.88000000000E+00 0. -1.
        -11    1    4    4    0    0  0.25427902034E-01  0.45903525557E-01 -0.45790648141E-01  0.69647372087E-01  0.51100000000E-03 0.  1.
         11    1    4    4    0    0  0.54211948922E-01  0.43422713723E-01 -0.11541360076E-01  0.70412581165E-01  0.51100000000E-03 0. -1.
</event>
<event>
 8    1  0.2190512E+004  0.1043930E+01  0.7957747E-01            NaN
         13   -1    0    0    0    0  0.00000000000E+00  0.00000000000E+00  0.74505805969E-08  0.10566000000E+00  0.10566000000E+00 0.  1.
     999900   -1    0    0    0    0 -0.00000000000E+00 -0.00000000000E+00 -0.74505805969E-08  0.93827000000E+00  0.93827000000E+00 0. -1.
     999902    2    1    2    0    0 -0.80376092196E-02  0.21356440599E-03  0.11197616180E-01  0.10301446679E+01  0.10300524266E+01 0.  0.
     999903    2    3    3    0    0  0.11228139265E+00  0.57531506899E-01 -0.36672100876E-01  0.13882344720E+00  0.44834373956E-01 0.  0.
         14    1    1    2    0    0  0.80376092196E-02 -0.21356440599E-03 -0.11197616180E-01  0.13785332054E-01  0.00000000000E+00 0. -1.
     999901    1    3    3    0    0 -0.12031900187E+00 -0.57317942493E-01  0.47869717056E-01  0.89132122075E+00  0.88000000000E+00 0.  1.
        -11    1    4    4    0    0  0.96282355290E-02  0.12070030806E-01 -0.20077817104E-01  0.25333148713E-01  0.51100000000E-03 0.  1.
         11    1    4    4    0    0  0.10265315712E+00  0.45461476093E-01 -0.16594283772E-01  0.11349029849E+00  0.51100000000E-03 0. -1.
</event>
<event>
 8    1  0.2190512E+004  0.1043930E+01  0.7957747E-01            NaN
         13   -1    0    0    0    0  0.00000000000E+00  0.00000000000E+00  0.74505805969E-08  0.10566000000E+00  0.10566000000E+00 0. -1.
     999900   -1    0    0    0    0 -0.00000000000E+00 -0.00000000000E+00 -0.74505805969E-08  0.93827000000E+00  0.93827000000E+00 0. -1.
     999902    2    1    2    0    0  0.71475854267E-02 -0.11300839179E-01 -0.44515065642E-02  0.10298369927E+01  0.10297405589E+01 0.  0.
     999903    2    3    3    0    0 -0.10852157726E-01 -0.37365707976E-01 -0.12757220004E+00  0.14070141627E+00  0.44813578949E-01 0.  0.
         14    1    1    2    0    0 -0.71475854267E-02  0.11300839179E-01  0.44515065642E-02  0.14093007283E-01  0.00000000000E+00 0. -1.
     999901    1    3    3    0    0  0.17999743153E-01  0.26064868797E-01  0.12312069347E+00  0.88913557645E+00  0.88000000000E+00 0.  1.
        -11    1    4    4    0    0  0.14011455841E-01 -0.15372369981E-01 -0.80195862342E-01  0.82850878760E-01  0.51100000000E-03 0. -1.
         11    1    4    4    0    0 -0.24863613567E-01 -0.21993337995E-01 -0.47376337697E-01  0.57850537512E-01  0.51100000000E-03 0.  1.
</event>
<event>
 8    1  0.2190512E+004  0.1043930E+01  0.7957747E-01            NaN
         13   -1    0    0    0    0  0.00000000000E+00  0.00000000000E+00  0.74505805969E-08  0.10566000000E+00  0.10566000000E+00 0.  1.
     999900   -1    0    0    0    0 -0.00000000000E+00 -0.00000000000E+00 -0.74505805969E-08  0.93827000000E+00  0.93827000000E+00 0. -1.
     999902    2    1    2    0    0 -0.68964284327E-02 -0.10411004403E-01 -0.66773736220E-02  0.10297688893E+01  0.10296715148E+01 0.  0.
     999903    2    3    3    0    0 -0.74511106567E-01 -0.19088021628E-01 -0.10927229197E+00  0.14118982551E+00  0.45583719290E-01 0.  0.
         14    1    1    2    0    0  0.68964284327E-02  0.10411004403E-01  0.66773736220E-02  0.14161110701E-01  0.00000000000E+00 0. -1.
     999901    1    3    3    0    0  0.67614678134E-01  0.86770172249E-02  0.10259491835E+00  0.88857906379E+00  0.88000000000E+00 0.  1.
        -11    1    4    4    0    0 -0.64987775180E-01 -0.13677425349E-01 -0.56213152378E-01  0.87009554121E-01  0.51100000000E-03 0. -1.
         11    1    4    4    0    0 -0.95233313867E-02 -0.54105962792E-02 -0.53059139593E-01  0.54180271392E-01  0.51100000000E-03 0.  1.
</event>
<event>
 8    1  0.2190512E+004  0.1043930E+01  0.7957747E-01            NaN
         13   -1    0    0    0    0  0.00000000000E+00  0.00000000000E+00  0.74505805969E-08  0.10566000000E+00  0.10566000000E+00 0.  1.
     999900   -1    0    0    0    0 -0.00000000000E+00 -0.00000000000E+00 -0.74505805969E-08  0.93827000000E+00  0.93827000000E+00 0. -1.
     999902    2    1    2    0    0  0.12601732773E-01  0.65339515610E-02  0.91793718953E-04  0.10297347678E+01  0.10296369202E+01 0.  0.
     999903    2    3    3    0    0  0.12819032809E+00 -0.32769849197E-01 -0.16771685314E-01  0.14114606143E+00  0.46198463138E-01 0.  0.
         14    1    1    2    0    0 -0.12601732773E-01 -0.65339515610E-02 -0.91793718953E-04  0.14195232227E-01  0.00000000000E+00 0. -1.
     999901    1    3    3    0    0 -0.11558859531E+00  0.39303800758E-01  0.16863479033E-01  0.88858870635E+00  0.88000000000E+00 0. -1.
        -11    1    4    4    0    0  0.13145592526E-01  0.45613879971E-02 -0.14600514052E-01  0.20175455259E-01  0.51100000000E-03 0.  1.
         11    1    4    4    0    0  0.11504473556E+00 -0.37331237194E-01 -0.21711712622E-02  0.12097060617E+00  0.51100000000E-03 0. -1.
</event>
<event>
 8    1  0.2190512E+004  0.1043930E+01  0.7957747E-01            NaN
         13   -1    0    0    0    0  0.00000000000E+00  0.00000000000E+00  0.74505805969E-08  0.10566000000E+00  0.10566000000E+00 0.  1.
     999900   -1    0    0    0    0 -0.00000000000E+00 -0.00000000000E+00 -0.74505805969E-08  0.93827000000E+00  0.93827000000E+00 0. -1.
     999902    2    1    2    0    0  0.71782541802E-02  0.11379991955E-01  0.89321295764E-02  0.10277802480E+01  0.10276533578E+01 0.  0.
     999903    2    3    3    0    0 -0.98000069541E-01  0.76971372844E-01  0.39354164104E-01  0.13857261805E+00  0.46097878186E-01 0.  0.
         14    1    1    2    0    0 -0.71782541802E-02 -0.11379991955E-01 -0.89321295764E-02  0.16149751972E-01  0.00000000000E+00 0. -1.
     999901    1    3    3    0    0  0.10517832372E+00 -0.65591380889E-01 -0.30422034528E-01  0.88920762998E+00  0.88000000000E+00 0.  1.
        -11    1    4    4    0    0 -0.25491479107E-01  0.15581706073E-01 -0.10001019577E-01  0.31510102900E-01  0.51100000000E-03 0. -1.
         11    1    4    4    0    0 -0.72508590434E-01  0.61389666771E-01  0.49355183681E-01  0.10706251515E+00  0.51100000000E-03 0.  1.
</event>
<event>
 8    1  0.2190512E+004  0.1043930E+01  0.7957747E-01            NaN
         13   -1    0    0    0    0  0.00000000000E+00  0.00000000000E+00  0.74505805969E-08  0.10566000000E+00  0.10566000000E+00 0. -1.
     999900   -1    0    0    0    0 -0.00000000000E+00 -0.00000000000E+00 -0.74505805969E-08  0.93827000000E+00  0.93827000000E+00 0. -1.
     999902    2    1    2    0    0  0.57993619005E-02  0.11550350049E-01  0.76341451147E-02  0.10289192253E+01  0.10288097243E+01 0.  0.
     999903    2    3    3    0    0 -0.94738415300E-01  0.61536706943E-02 -0.89678077863E-01  0.13784872445E+00  0.44123442590E-01 0.  0.
         14    1    1    2    0    0 -0.57993619005E-02 -0.11550350049E-01 -0.76341451147E-02  0.15010774675E-01  0.00000000000E+00 0. -1.
     999901    1    3    3    0    0  0.10053777720E+00  0.53966793550E-02  0.97312222978E-01  0.89107050088E+00  0.88000000000E+00 0. -1.
        -11    1    4    4    0    0 -0.36268417433E-01 -0.92435011603E-02 -0.59439758515E-01  0.70243764350E-01  0.51100000000E-03 0. -1.
         11    1    4    4    0    0 -0.58469997868E-01  0.15397171855E-01 -0.30238319348E-01  0.67604960097E-01  0.51100000000E-03 0.  1.
</event>
<event>
 8    1  0.2190512E+004  0.1043930E+01  0.7957747E-01            NaN
         13   -1    0    0    0    0  0.00000000000E+00  0.00000000000E+00  0.74505805969E-08  0.10566000000E+00  0.10566000000E+00 0.  1.
     999900   -1    0    0    0    0 -0.00000000000E+00 -0.00000000000E+00 -0.74505805969E-08  0.93827000000E+00  0.93827000000E+00 0. -1.
     999902    2    1    2    0    0  0.46257683861E-02  0.69147023937E-02  0.10966755148E-01  0.10301648062E+01  0.10300728359E+01 0.  0.
     999903    2    3    3    0    0 -0.10433266559E+00 -0.81600098127E-01  0.85189289483E-02  0.13903473594E+00  0.41402953059E-01 0.  0.
         14    1    1    2    0    0 -0.46257683861E-02 -0.69147023937E-02 -0.10966755148E-01  0.13765193817E-01  0.00000000000E+00 0. -1.
     999901    1    3    3    0    0  0.10895843398E+00  0.88514800521E-01  0.24478261995E-02  0.89113007025E+00  0.88000000000E+00 0.  1.
        -11    1    4    4    0    0 -0.69056231120E-01 -0.51858700965E-01  0.25208419834E-01  0.89965623845E-01  0.51100000000E-03 0. -1.
         11    1    4    4    0    0 -0.35276434473E-01 -0.29741397162E-01 -0.16689490886E-01  0.49069112090E-01  0.51100000000E-03 0.  1.
</event>
<event>
 8    1  0.2190512E+004  0.1043930E+01  0.7957747E-01            NaN
         13   -1    0    0    0    0  0.00000000000E+00  0.00000000000E+00  0.74505805969E-08  0.10566000000E+00  0.10566000000E+00 0.  1.
     999900   -1    0    0    0    0 -0.00000000000E+00 -0.00000000000E+00 -0.74505805969E-08  0.93827000000E+00  0.93827000000E+00 0.  1.
     999902    2    1    2    0    0 -0.64213180750E-02 -0.18424147664E-01 -0.12967437173E-01  0.10205027302E+01  0.10202337896E+01 0.  0.
     999903    2    3    3    0    0 -0.34562281769E-01 -0.61962722345E-01 -0.10503348733E+00  0.13418242755E+00  0.44033624873E-01 0.  0.
         14    1    1    2    0    0  0.64213180750E-02  0.18424147664E-01  0.12967437173E-01  0.23427269790E-01  0.00000000000E+00 0.  1.
     999901    1    3    3    0    0  0.28140963694E-01  0.43538574682E-01  0.92066050159E-01  0.88632030266E+00  0.88000000000E+00 0. -1.
        -11    1    4    4    0    0 -0.26132482185E-01 -0.61889311462E-02 -0.38679924368E-01  0.47091476553E-01  0.51100000000E-03 0.  1.
         11    1    4    4    0    0 -0.84297995845E-02 -0.55773791199E-01 -0.66353562965E-01  0.87090950993E-01  0.51100000000E-03 0. -1.
</event>
<event>
 8    1  0.2190512E+004  0.1043930E+01  0.7957747E-01            NaN
         13   -1    0    0    0    0  0.00000000000E+00  0.00000000000E+00  0.74505805969E-08  0.10566000000E+00  0.10566000000E+00 0.  1.
     999900   -1    0    0    0    0 -0.00000000000E+00 -0.00000000000E+00 -0.74505805969E-08  0.93827000000E+00  0.93827000000E+00 0. -1.
     999902    2    1    2    0    0  0.10669540635E-01 -0.11426238263E-02  0.87613337867E-02  0.10300769983E+01  0.10299838430E+01 0.  0.
     999903    2    3    3    0    0  0.30829798839E-01 -0.88842545591E-01  0.96248745129E-01  0.14117218931E+00  0.42688308613E-01 0.  0.
         14    1    1    2    0    0 -0.10669540635E-01  0.11426238263E-02 -0.87613337867E-02  0.13853001707E-01  0.00000000000E+00 0. -1.
     999901    1    3    3    0    0 -0.20160258204E-01  0.87699921765E-01 -0.87487411342E-01  0.88890480898E+00  0.88000000000E+00 0. -1.
        -11    1    4    4    0    0  0.13074318580E-01 -0.45888755372E-03  0.11059130713E-01  0.17138082660E-01  0.51100000000E-03 0. -1.
         11    1    4    4    0    0  0.17755480259E-01 -0.88383658037E-01  0.85189614416E-01  0.12403410665E+00  0.51100000000E-03 0.  1.
</event>
<event>
 8    1  0.2190512E+004  0.1043930E+01  0.7957747E-01            NaN
         13   -1    0    0    0    0  0.00000000000E+00  0.00000000000E+00  0.74505805969E-08  0.10566000000E+00  0.10566000000E+00 0.  1.
     999900   -1    0    0    0    0 -0.00000000000E+00 -0.00000000000E+00 -0.74505805969E-08  0.93827000000E+00  0.93827000000E+00 0.  1.
     999902    2    1    2    0    0  0.12882648692E-01 -0.14710843635E-02  0.26857815117E-02  0.10306883933E+01  0.10306033300E+01 0.  0.
     999903    2    3    3    0    0  0.70143468226E-01 -0.75364859944E-01 -0.86196933368E-01  0.14128453195E+00  0.43948144412E-01 0.  0.
         14    1    1    2    0    0 -0.12882648692E-01  0.14710843635E-02 -0.26857815117E-02  0.13241606732E-01  0.00000000000E+00 0. -1.
     999901    1    3    3    0    0 -0.57260819534E-01  0.73893775580E-01  0.88882714879E-01  0.88940386132E+00  0.88000000000E+00 0. -1.
        -11    1    4    4    0    0  0.11367859048E-01 -0.41847156547E-01 -0.42615380377E-01  0.60800859337E-01  0.51100000000E-03 0. -1.
         11    1    4    4    0    0  0.58775609178E-01 -0.33517703397E-01 -0.43581552990E-01  0.80483672613E-01  0.51100000000E-03 0.  1.
</event>
<event>
 8    1  0.2190512E+004  0.1043930E+01  0.7957747E-01            NaN
         13   -1    0    0    0    0  0.00000000000E+00  0.00000000000E+00  0.74505805969E-08  0.10566000000E+00  0.10566000000E+00 0.  1.
     999900   -1    0    0    0    0 -0.00000000000E+00 -0.00000000000E+00 -0.74505805969E-08  0.93827000000E+00  0.93827000000E+00 0. -1.
     999902    2    1    2    0    0  0.10016133901E-01  0.67591982533E-02  0.65681964699E-02  0.10301767857E+01  0.10300849765E+01 0.  0.
     999903    2    3    3    0    0 -0.17594208623E-01  0.12719936036E+00  0.37038807039E-01  0.14102178132E+00  0.45011511063E-01 0.  0.
         14    1    1    2    0    0 -0.10016133901E-01 -0.67591982533E-02 -0.65681964699E-02  0.13753214323E-01  0.00000000000E+00 0. -1.
     999901    1    3    3    0    0  0.27610342524E-01 -0.12044016210E+00 -0.30470610569E-01  0.88915500436E+00  0.88000000000E+00 0. -1.
        -11    1    4    4    0    0  0.14061227243E-01  0.49067075658E-01  0.69768668011E-02  0.51519256755E-01  0.51100000000E-03 0.  1.
         11    1    4    4    0    0 -0.31655435865E-01  0.78132284698E-01  0.30061940238E-01  0.89502524566E-01  0.51100000000E-03 0. -1.
</event>
<event>
 8    1  0.2190512E+004  0.1043930E+01  0.7957747E-01            NaN
         13   -1    0    0    0    0  0.00000000000E+00  0.00000000000E+00  0.74505805969E-08  0.10566000000E+00  0.10566000000E+00 0. -1.
     999900   -1    0    0    0    0 -0.00000000000E+00 -0.00000000000E+00 -0.74505805969E-08  0.93827000000E+00  0.93827000000E+00 0.  1.
     999902    2    1    2    0    0 -0.21970921224E-01  0.24948324660E-02  0.60146993797E-02  0.10210144556E+01  0.10207572661E+01 0.  0.
     999903    2    3    3    0    0 -0.10271029671E-01  0.17695165197E-01 -0.12311764415E+00  0.13138357720E+00  0.41049691040E-01 0.  0.
         14    1    1    2    0    0  0.21970921224E-01 -0.24948324660E-02 -0.60146993797E-02  0.22915544443E-01  0.00000000000E+00 0. -1.
     999901    1    3    3    0    0 -0.11699891554E-01 -0.15200332731E-01  0.12913234353E+00  0.88963087836E+00  0.88000000000E+00 0. -1.
        -11    1    4    4    0    0  0.47996821888E-04  0.29569048074E-01 -0.70205789475E-01  0.76180344607E-01  0.51100000000E-03 0.  1.
         11    1    4    4    0    0 -0.10319026493E-01 -0.11873882876E-01 -0.52911854679E-01  0.55203232594E-01  0.51100000000E-03 0. -1.
</event>
<event>
 8    1  0.2190512E+004  0.1043930E+01  0.7957747E-01            NaN
         13   -1    0    0    0    0  0.00000000000E+00  0.00000000000E+00  0.74505805969E-08  0.10566000000E+00  0.10566000000E+00 0. -1.
     999900   -1    0    0    0    0 -0.00000000000E+00 -0.00000000000E+00 -0.74505805969E-08  0.93827000000E+00  0.93827000000E+00 0. -1.
     999902    2    1    2    0    0 -0.25802520695E-02  0.21437711577E-03  0.14288025624E-01  0.10294092791E+01  0.10293068603E+01 0.  0.
     999903    2    3    3    0    0  0.10350641239E-01 -0.79907275325E-01  0.10781561512E+00  0.14073943201E+00  0.41122651106E-01 0.  0.
         14    1    1    2    0    0  0.25802520695E-02 -0.21437711577E-03 -0.14288025624E-01  0.14520720868E-01  0.00000000000E+00 0.  1.
     999901    1    3    3    0    0 -0.12930893309E-01  0.80121652441E-01 -0.93527589496E-01  0.88866984712E+00  0.88000000000E+00 0.  1.
        -11    1    4    4    0    0  0.99923186033E-02 -0.49264111782E-01  0.95076024948E-01  0.10754771398E+00  0.51100000000E-03 0. -1.
         11    1    4    4    0    0  0.35832263578E-03 -0.30643163543E-01  0.12739590172E-01  0.33191718030E-01  0.51100000000E-03 0.  1.
</event>
<event>
 8    1  0.2190512E+004  0.1043930E+01  0.7957747E-01            NaN
         13   -1    0    0    0    0  0.00000000000E+00  0.00000000000E+00  0.74505805969E-08  0.10566000000E+00  0.10566000000E+00 0. -1.
     999900   -1    0    0    0    0 -0.00000000000E+00 -0.00000000000E+00 -0.74505805969E-08  0.93827000000E+00  0.93827000000E+00 0.  1.
     999902    2    1    2    0    0  0.99466479486E-02 -0.70853948664E-03 -0.88055640152E-02  0.10306267752E+01  0.10305409132E+01 0.  0.
     999903    2    3    3    0    0  0.30244004362E-02 -0.13166505364E+00  0.18989709966E-01  0.14047504463E+00  0.45031052948E-01 0.  0.
         14    1    1    2    0    0 -0.99466479486E-02  0.70853948664E-03  0.88055640152E-02  0.13303224844E-01  0.00000000000E+00 0.  1.
     999901    1    3    3    0    0  0.69222475124E-02  0.13095651416E+00 -0.27795273981E-01  0.89015173053E+00  0.88000000000E+00 0. -1.
        -11    1    4    4    0    0 -0.11228475906E-01 -0.75280799791E-01  0.29013602137E-01  0.81457520943E-01  0.51100000000E-03 0.  1.
         11    1    4    4    0    0  0.14252876342E-01 -0.56384253851E-01 -0.10023892171E-01  0.59017523683E-01  0.51100000000E-03 0. -1.
</event>
<event>
 8    1  0.2190512E+004  0.1043930E+01  0.7957747E-01            NaN
         13   -1    0    0    0    0  0.00000000000E+00  0.00000000000E+00  0.74505805969E-08  0.10566000000E+00  0.10566000000E+00 0.  1.
     999900   -1    0    0    0    0 -0.00000000000E+00 -0.00000000000E+00 -0.74505805969E-08  0.93827000000E+00  0.93827000000E+00 0.  1.
     999902    2    1    2    0    0  0.12325678182E-01 -0.19651168868E-02 -0.51676941015E-02  0.10304211477E+01  0.10303325932E+01 0.  0.
     999903    2    3    3    0    0  0.47238201069E-01 -0.12444738011E+00 -0.14902791431E-01  0.14119926251E+00  0.44682664249E-01 0.  0.
         14    1    1    2    0    0 -0.12325678182E-01  0.19651168868E-02  0.51676941015E-02  0.13508852259E-01  0.00000000000E+00 0.  1.
     999901    1    3    3    0    0 -0.34912522887E-01  0.12248226322E+00  0.97350973299E-02  0.88922188523E+00  0.88000000000E+00 0.  1.
        -11    1    4    4    0    0  0.87757913188E-02 -0.40817637102E-01 -0.24886504411E-01  0.48607542981E-01  0.51100000000E-03 0.  1.
         11    1    4    4    0    0  0.38462409750E-01 -0.83629743006E-01  0.99837129800E-02  0.92591719526E-01  0.51100000000E-03 0. -1.
</event>
<event>
 8    1  0.2190512E+004  0.1043930E+01  0.7957747E-01            NaN
         13   -1    0    0    0    0  0.00000000000E+00  0.00000000000E+00  0.74505805969E-08  0.10566000000E+00  0.10566000000E+00 0.  1.
     999900   -1    0    0    0    0 -0.00000000000E+00 -0.00000000000E+00 -0.74505805969E-08  0.93827000000E+00  0.93827000000E+00 0. -1.
     999902    2    1    2    0    0  0.47400630942E-02 -0.13757273050E-01 -0.13727076267E-02  0.10293144232E+01  0.10292106522E+01 0.  0.
     999903    2    3    3    0    0  0.11775156208E+00  0.13011507142E-02  0.61241921463E-01  0.13975332532E+00  0.43741234853E-01 0.  0.
         14    1    1    2    0    0 -0.47400630942E-02  0.13757273050E-01  0.13727076267E-02  0.14615576832E-01  0.00000000000E+00 0.  1.
     999901    1    3    3    0    0 -0.11301149899E+00 -0.15058423764E-01 -0.62614629090E-01  0.88956109785E+00  0.88000000000E+00 0. -1.
        -11    1    4    4    0    0  0.28844441183E-01  0.17310844617E-01  0.27016613693E-01  0.43148877911E-01  0.51100000000E-03 0. -1.
         11    1    4    4    0    0  0.88907120902E-01 -0.16009693903E-01  0.34225307770E-01  0.96604447407E-01  0.51100000000E-03 0.  1.
</event>
<event>
 8    1  0.2190512E+004  0.1043930E+01  0.7957747E-01            NaN
         13   -1    0    0    0    0  0.00000000000E+00  0.00000000000E+00  0.74505805969E-08  0.10566000000E+00  0.10566000000E+00 0.  1.
     999900   -1    0    0    0    0 -0.00000000000E+00 -0.00000000000E+00 -0.74505805969E-08  0.93827000000E+00  0.93827000000E+00 0.  1.
     999902    2    1    2    0    0 -0.89648818571E-02  0.22847244136E-02  0.10468851589E-01  0.10299591043E+01  0.10298643458E+01 0.  0.
     999903    2    3    3    0    0 -0.78411101776E-02 -0.51526006300E-01  0.12299291133E+00  0.14116299631E+00  0.45643432779E-01 0.  0.
         14    1    1    2    0    0  0.89648818571E-02 -0.22847244136E-02 -0.10468851589E-01  0.13970895674E-01  0.00000000000E+00 0. -1.
     999901    1    3    3    0    0 -0.11237716794E-02  0.53810730714E-01 -0.11252405974E+00  0.88879610802E+00  0.88000000000E+00 0.  1.
        -11    1    4    4    0    0 -0.13171506530E-02 -0.50311999492E-01  0.62229955256E-01  0.80036620562E-01  0.51100000000E-03 0.  1.
         11    1    4    4    0    0 -0.65239595246E-02 -0.12140068086E-02  0.60762956073E-01  0.61126375749E-01  0.51100000000E-03 0. -1.
</event>
<event>
 8    1  0.2190512E+004  0.1043930E+01  0.7957747E-01            NaN
         13   -1    0    0    0    0  0.00000000000E+00  0.00000000000E+00  0.74505805969E-08  0.10566000000E+00  0.10566000000E+00 0.  1.
     999900   -1    0    0    0    0 -0.00000000000E+00 -0.00000000000E+00 -0.74505805969E-08  0.93827000000E+00  0.93827000000E+00 0.  1.
     999902    2    1    2    0    0 -0.11638023509E-01  0.62784080784E-02  0.40678737868E-02  0.10300949143E+01  0.10300020014E+01 0.  0.
     999903    2    3    3    0    0 -0.87381822962E-01  0.98505314477E-01  0.26791465831E-01  0.14174853644E+00  0.45121890223E-01 0.  0.
         14    1    1    2    0    0  0.11638023509E-01 -0.62784080784E-02 -0.40678737868E-02  0.13835085701E-01  0.00000000000E+00 0. -1.
     999901    1    3    3    0    0  0.75743799452E-01 -0.92226906399E-01 -0.22723592045E-01  0.88834637786E+00  0.88000000000E+00 0.  1.
        -11    1    4    4    0    0 -0.13622461205E-01  0.47177098120E-01  0.13321740720E-01  0.50882019743E-01  0.51100000000E-03 0.  1.
         11    1    4    4    0    0 -0.73759361757E-01  0.51328216357E-01  0.13469725112E-01  0.90866516697E-01  0.51100000000E-03 0. -1.
</event>
<event>
 8    1  0.2190512E+004  0.1043930E+01  0.7957747E-01            NaN
         13   -1    0    0    0    0  0.00000000000E+00  0.00000000000E+00  0.74505805969E-08  0.10566000000E+00  0.10566000000E+00 0.  1.
     999900   -1    0    0    0    0 -0.00000000000E+00 -0.00000000000E+00 -0.74505805969E-08  0.93827000000E+00  0.93827000000E+00 0.  1.
     999902    2    1    2    0    0  0.30881897843E-02  0.34472754849E-02  0.13291541823E-01  0.10298557075E+01  0.10297595315E+01 0.  0.
     999903    2    3    3    0    0 -0.12093435538E+00  0.30636554887E-01 -0.40955321543E-01  0.13908998592E+00  0.45879941303E-01 0.  0.
         14    1    1    2    0    0 -0.30881897843E-02 -0.34472754849E-02 -0.13291541823E-01  0.14074292467E-01  0.00000000000E+00 0. -1.
     999901    1    3    3    0    0  0.12402254516E+00 -0.27189279402E-01  0.54246863366E-01  0.89076572162E+00  0.88000000000E+00 0. -1.
        -11    1    4    4    0    0 -0.49371103861E-01 -0.92641818849E-02 -0.22793068603E-01  0.55164445613E-01  0.51100000000E-03 0. -1.
         11    1    4    4    0    0 -0.71563251515E-01  0.39900736772E-01 -0.18162252941E-01  0.83925540304E-01  0.51100000000E-03 0.  1.
</event>
<event>
 8    1  0.2441588E+004  0.1043930E+01  0.7957747E-01            NaN
         13   -1    0    0    0    0  0.00000000000E+00  0.00000000000E+00  0.74505805969E-08  0.10566000000E+00  0.10566000000E+00 0.  1.
     999900   -1    0    0    0    0 -0.00000000000E+00 -0.00000000000E+00 -0.74505805969E-08  0.93827000000E+00  0.93827000000E+00 0.  1.
     999902    2    1    2    0    0 -0.13538632810E-01 -0.54271072736E-03 -0.55795299707E-02  0.10292766636E+01  0.10291723519E+01 0.  0.
     999903    2    3    3    0    0 -0.68659307495E-01 -0.11227651083E+00 -0.18520366834E-01  0.14040648402E+00  0.45286437010E-01 0.  0.
         14    1    1    2    0    0  0.13538632810E-01  0.54271072736E-03  0.55795299707E-02  0.14653336412E-01  0.00000000000E+00 0. -1.
     999901    1    3    3    0    0  0.55120674685E-01  0.11173380011E+00  0.12940836863E-01  0.88887017957E+00  0.88000000000E+00 0.  1.
        -11    1    4    4    0    0 -0.26241271676E-01 -0.84439258049E-01 -0.10736073816E-01  0.89073660759E-01  0.51100000000E-03 0. -1.
         11    1    4    4    0    0 -0.42418035819E-01 -0.27837252785E-01 -0.77842930183E-02  0.51332823263E-01  0.51100000000E-03 0.  1.
</event>
<event>
 8    1  0.2190512E+004  0.1043930E+01  0.7957747E-01            NaN
         13   -1    0    0    0    0  0.00000000000E+00  0.00000000000E+00  0.74505805969E-08  0.10566000000E+00  0.10566000000E+00 0. -1.
     999900   -1    0    0    0    0 -0.00000000000E+00 -0.00000000000E+00 -0.74505805969E-08  0.93827000000E+00  0.93827000000E+00 0.  1.
     999902    2    1    2    0    0 -0.21950377572E-02  0.14373676029E-01 -0.53745890624E-02  0.10284281627E+01  0.10283113239E+01 0.  0.
     999903    2    3    3    0    0  0.26094086657E-01 -0.11693431424E+00 -0.50671953395E-01  0.13708428172E+00  0.43242551155E-01 0.  0.
         14    1    1    2    0    0  0.21950377572E-02 -0.14373676029E-01  0.53745890624E-02  0.15501837341E-01  0.00000000000E+00 0. -1.
     999901    1    3    3    0    0 -0.28289124414E-01  0.13130799026E+00  0.45297364333E-01  0.89134388094E+00  0.88000000000E+00 0. -1.
        -11    1    4    4    0    0  0.53415857925E-02 -0.14452112964E-02  0.47534223116E-02  0.73128188233E-02  0.51100000000E-03 0. -1.
         11    1    4    4    0    0  0.20752500864E-01 -0.11548910294E+00 -0.55425375707E-01  0.12977146290E+00  0.51100000000E-03 0.  1.
</event>
<event>
 8    1  0.2190512E+004  0.1043930E+01  0.7957747E-01            NaN
         13   -1    0    0    0    0  0.00000000000E+00  0.00000000000E+00  0.74505805969E-08  0.10566000000E+00  0.10566000000E+00 0. -1.
     999900   -1    0    0    0    0 -0.00000000000E+00 -0.00000000000E+00 -0.74505805969E-08  0.93827000000E+00  0.93827000000E+00 0.  1.
     999902    2    1    2    0    0  0.54080879740E-02 -0.65389930046E-02 -0.99170817504E-02  0.10308780134E+01  0.10307953842E+01 0.  0.
     999903    2    3    3    0    0  0.86638725934E-01 -0.32653488030E-01  0.95496445686E-01  0.14048911227E+00  0.45222786480E-01 0.  0.
         14    1    1    2    0    0 -0.54080879740E-02  0.65389930046E-02  0.99170817504E-02  0.13051986649E-01  0.00000000000E+00 0.  1.
     999901    1    3    3    0    0 -0.81230637960E-01  0.26114495025E-01 -0.10541352744E+00  0.89038890108E+00  0.88000000000E+00 0.  1.
        -11    1    4    4    0    0  0.67661582015E-01 -0.16800514143E-01  0.41593167968E-01  0.81182508577E-01  0.51100000000E-03 0.  1.
         11    1    4    4    0    0  0.18977143919E-01 -0.15852973886E-01  0.53903277718E-01  0.59306603697E-01  0.51100000000E-03 0. -1.
</event>
<event>
 8    1  0.2190512E+004  0.1043930E+01  0.7957747E-01            NaN
         13   -1    0    0    0    0  0.00000000000E+00  0.00000000000E+00  0.74505805969E-08  0.10566000000E+00  0.10566000000E+00 0. -1.
     999900   -1    0    0    0    0 -0.00000000000E+00 -0.00000000000E+00 -0.74505805969E-08  0.93827000000E+00  0.93827000000E+00 0.  1.
     999902    2    1    2    0    0  0.68482448284E-02  0.69801463363E-02  0.10585652840E-01  0.10295189991E+01  0.10294181330E+01 0.  0.
     999903    2    3    3    0    0  0.48740374401E-02  0.13192107473E+00  0.18524971428E-01  0.14065614927E+00  0.44878185801E-01 0.  0.
         14    1    1    2    0    0 -0.68482448284E-02 -0.69801463363E-02 -0.10585652840E-01  0.14411000873E-01  0.00000000000E+00 0.  1.
     999901    1    3    3    0    0  0.19742073883E-02 -0.12494092840E+00 -0.79393185883E-02  0.88886284986E+00  0.88000000000E+00 0. -1.
        -11    1    4    4    0    0 -0.15298887984E-01  0.65770674628E-01  0.23035517187E-01  0.71349378326E-01  0.51100000000E-03 0. -1.
         11    1    4    4    0    0  0.20172925424E-01  0.66150400104E-01 -0.45105457585E-02  0.69306770940E-01  0.51100000000E-03 0.  1.
</event>
<event>
 8    1  0.2190512E+004  0.1043930E+01  0.7957747E-01            NaN
         13   -1    0    0    0    0  0.00000000000E+00  0.00000000000E+00  0.74505805969E-08  0.10566000000E+00  0.10566000000E+00 0. -1.
     999900   -1    0    0    0    0 -0.00000000000E+00 -0.00000000000E+00 -0.74505805969E-08  0.93827000000E+00  0.93827000000E+00 0.  1.
     999902    2    1    2    0    0  0.16485847059E-02 -0.80046348801E-02  0.11015789929E-01  0.10302135996E+01  0.10301222846E+01 0.  0.
     999903    2    3    3    0    0 -0.97033234570E-01  0.87122105511E-01  0.21936143146E-01  0.13953607533E+00  0.44535514628E-01 0.  0.
         14    1    1    2    0    0 -0.16485847059E-02  0.80046348801E-02 -0.11015789929E-01  0.13716400360E-01  0.00000000000E+00 0.  1.
     999901    1    3    3    0    0  0.98681819276E-01 -0.95126740391E-01 -0.10920353217E-01  0.89067752431E+00  0.88000000000E+00 0.  1.
        -11    1    4    4    0    0 -0.54284886147E-01  0.21660113223E-01  0.44413888942E-03  0.58450558159E-01  0.51100000000E-03 0.  1.
         11    1    4    4    0    0 -0.42748348423E-01  0.65461992287E-01  0.21492004256E-01  0.81085517172E-01  0.51100000000E-03 0. -1.
</event>
<event>
 8    1  0.2190512E+004  0.1043930E+01  0.7957747E-01            NaN
         13   -1    0    0    0    0  0.00000000000E+00  0.00000000000E+00  0.74505805969E-08  0.10566000000E+00  0.10566000000E+00 0. -1.
     999900   -1    0    0    0    0 -0.00000000000E+00 -0.00000000000E+00 -0.74505805969E-08  0.93827000000E+00  0.93827000000E+00 0. -1.
     999902    2    1    2    0    0  0.31197260989E-02  0.12916473294E-01 -0.28578887733E-02  0.10303382561E+01  0.10302486042E+01 0.  0.
     999903    2    3    3    0    0  0.14026670822E-01 -0.84078875936E-01 -0.10159881050E+00  0.13945283766E+00  0.43113463827E-01 0.  0.
         14    1    1    2    0    0 -0.31197260989E-02 -0.12916473294E-01  0.28578887733E-02  0.13591743874E-01  0.00000000000E+00 0. -1.
     999901    1    3    3    0    0 -0.10906944723E-01  0.96995349230E-01  0.98740921725E-01  0.89088541847E+00  0.88000000000E+00 0.  1.
        -11    1    4    4    0    0  0.71903849868E-03 -0.30848943602E-01 -0.69103984412E-01  0.75682204780E-01  0.51100000000E-03 0.  1.
         11    1    4    4    0    0  0.13307632323E-01 -0.53229932333E-01 -0.32494826086E-01  0.63770632878E-01  0.51100000000E-03 0. -1.
</event>
<event>
 8    1  0.2190512E+004  0.1043930E+01  0.7957747E-01            NaN
         13   -1    0    0    0    0  0.00000000000E+00  0.00000000000E+00  0.74505805969E-08  0.10566000000E+00  0.10566000000E+00 0. -1.
     999900   -1    0    0    0    0 -0.00000000000E+00 -0.00000000000E+00 -0.74505805969E-08  0.93827000000E+00  0.93827000000E+00 0. -1.
     999902    2    1    2    0    0 -0.46164761838E-02 -0.78070531123E-02 -0.11210294906E-01  0.10295101303E+01  0.10294091391E+01 0.  0.
     999903    2    3    3    0    0 -0.12799925209E+00 -0.16083008103E-01 -0.33866365501E-01  0.14057531920E+00  0.44407408964E-01 0.  0.
         14    1    1    2    0    0  0.46164761838E-02  0.78070531123E-02  0.11210294906E-01  0.14419869713E-01  0.00000000000E+00 0. -1.
     999901    1    3    3    0    0  0.12338277591E+00  0.82759549902E-02  0.22656070595E-01  0.88893481108E+00  0.88000000000E+00 0.  1.
        -11    1    4    4    0    0 -0.10179446003E+00 -0.23245681537E-01 -0.41486747430E-01  0.11235606408E+00  0.51100000000E-03 0. -1.
         11    1    4    4    0    0 -0.26204792066E-01  0.71626734342E-02  0.76203819293E-02  0.28219255123E-01  0.51100000000E-03 0.  1.
</event>
<event>
 8    1  0.2190512E+004  0.1043930E+01  0.7957747E-01            NaN
         13   -1    0    0    0    0  0.00000000000E+00  0.00000000000E+00  0.74505805969E-08  0.10566000000E+00  0.10566000000E+00 0.  1.
     999900   -1    0    0    0    0 -0.00000000000E+00 -0.00000000000E+00 -0.74505805969E-08  0.93827000000E+00  0.93827000000E+00 0.  1.
     999902    2    1    2    0    0  0.36765537466E-02 -0.42405683142E-02  0.12871301154E-01  0.10298882814E+01  0.10297925531E+01 0.  0.
     999903    2    3    3    0    0  0.49639704872E-01  0.60432599657E-01 -0.10501936791E+00  0.13848857323E+00  0.45097870001E-01 0.  0.
         14    1    1    2    0    0 -0.36765537466E-02  0.42405683142E-02 -0.12871301154E-01  0.14041718573E-01  0.00000000000E+00 0. -1.
     999901    1    3    3    0    0 -0.45963151126E-01 -0.64673167971E-01  0.11789066906E+00  0.89139970819E+00  0.88000000000E+00 0. -1.
        -11    1    4    4    0    0  0.50922713029E-01  0.29341365473E-01 -0.74584506603E-01  0.94958665619E-01  0.51100000000E-03 0. -1.
         11    1    4    4    0    0 -0.12830081561E-02  0.31091234185E-01 -0.30434861307E-01  0.43529907614E-01  0.51100000000E-03 0.  1.
</event>
<event>
 8    1  0.2190512E+004  0.1043930E+01  0.7957747E-01            NaN
         13   -1    0    0    0    0  0.00000000000E+00  0.00000000000E+00  0.74505805969E-08  0.10566000000E+00  0.10566000000E+00 0.  1.
     999900   -1    0    0    0    0 -0.00000000000E+00 -0.00000000000E+00 -0.74505805969E-08  0.93827000000E+00  0.93827000000E+00 0.  1.
     999902    2    1    2    0    0 -0.46370039045E-03  0.11194242623E-01 -0.82898083338E-02  0.10299927475E+01  0.10298984478E+01 0.  0.
     999903    2    3    3    0    0  0.81920263934E-01  0.29131232841E-01  0.99231386784E-01  0.13944816094E+00  0.45159307967E-01 0.  0.
         14    1    1    2    0    0  0.46370039045E-03 -0.11194242623E-01  0.82898083338E-02  0.13937252533E-01  0.00000000000E+00 0. -1.
     999901    1    3    3    0    0 -0.82383964325E-01 -0.17936990218E-01 -0.10752119512E+00  0.89054458653E+00  0.88000000000E+00 0.  1.
        -11    1    4    4    0    0  0.42144340132E-01  0.32555236775E-01  0.34698977397E-01  0.63563110371E-01  0.51100000000E-03 0.  1.
         11    1    4    4    0    0  0.39775923802E-01 -0.34240039345E-02  0.64532409387E-01  0.75885050567E-01  0.51100000000E-03 0. -1.
</event>
<event>
 7    1  0.2190512E+004  0.1043930E+01  0.7957747E-01            NaN
         13   -1    0    0    0    0  0.00000000000E+00  0.00000000000E+00  0.74505805969E-08  0.10566000000E+00  0.10566000000E+00 0.  1.
     999900   -1    0    0    0    0 -0.00000000000E+00 -0.00000000000E+00 -0.74505805969E-08  0.93827000000E+00  0.93827000000E+00 0. -1.
     999903    2    1    2    0    0 -0.66170833853E-02  0.30310987605E-01 -0.99458030089E-01  0.11329998911E+00  0.44524667554E-01 0.  0.
         14    1    1    2    0    0 -0.79089507788E-02 -0.56550843168E-04 -0.38452175692E-01  0.39257158785E-01  0.00000000000E+00 0. -1.
     999901    1    1    2    0    0  0.14526034164E-01 -0.30254436762E-01  0.13791020578E+00  0.89137285211E+00  0.88000000000E+00 0.  1.
        -11    1    3    3    0    0 -0.11803837745E-01  0.94060807473E-02 -0.87228646700E-01  0.88526283480E-01  0.51100000000E-03 0. -1.
         11    1    3    3    0    0  0.51867543602E-02  0.20904906858E-01 -0.12229383388E-01  0.24773705629E-01  0.51100000000E-03 0.  1.
</event>
<event>
 8    1  0.2190512E+004  0.1043930E+01  0.7957747E-01            NaN
         13   -1    0    0    0    0  0.00000000000E+00  0.00000000000E+00  0.74505805969E-08  0.10566000000E+00  0.10566000000E+00 0. -1.
     999900   -1    0    0    0    0 -0.00000000000E+00 -0.00000000000E+00 -0.74505805969E-08  0.93827000000E+00  0.93827000000E+00 0. -1.
     999902    2    1    2    0    0 -0.37546949327E-04  0.12017933686E-01  0.93989056539E-02  0.10286731469E+01  0.10285599990E+01 0.  0.
     999903    2    3    3    0    0 -0.46222886882E-01 -0.23914391508E-01  0.12136018586E+00  0.13965146779E+00  0.45450900420E-01 0.  0.
         14    1    1    2    0    0  0.37546949327E-04 -0.12017933686E-01 -0.93989056539E-02  0.15256853127E-01  0.00000000000E+00 0.  1.
     999901    1    3    3    0    0  0.46185339933E-01  0.35932325194E-01 -0.11196128021E+00  0.88902167909E+00  0.88000000000E+00 0. -1.
        -11    1    4    4    0    0 -0.47219208519E-01 -0.27413198571E-01  0.73048067557E-01  0.91199881600E-01  0.51100000000E-03 0. -1.
         11    1    4    4    0    0  0.99632163662E-03  0.34988070631E-02  0.48312118308E-01  0.48451586187E-01  0.51100000000E-03 0.  1.
</event>
<event>
 8    1  0.2190512E+004  0.1043930E+01  0.7957747E-01            NaN
         13   -1    0    0    0    0  0.00000000000E+00  0.00000000000E+00  0.74505805969E-08  0.10566000000E+00  0.10566000000E+00 0.  1.
     999900   -1    0    0    0    0 -0.00000000000E+00 -0.00000000000E+00 -0.74505805969E-08  0.93827000000E+00  0.93827000000E+00 0.  1.
     999902    2    1    2    0    0  0.43294730098E-02 -0.31920251908E-03 -0.16675639442E-01  0.10266985410E+01  0.10265539299E+01 0.  0.
     999903    2    3    3    0    0 -0.54798488313E-01  0.11656385658E+00  0.83354364499E-02  0.13665173372E+00  0.44879949279E-01 0.  0.
         14    1    1    2    0    0 -0.43294730098E-02  0.31920251908E-03  0.16675639442E-01  0.17231458951E-01  0.00000000000E+00 0.  1.
     999901    1    3    3    0    0  0.59127961323E-01 -0.11688305910E+00 -0.25011075892E-01  0.89004680733E+00  0.88000000000E+00 0. -1.
        -11    1    4    4    0    0 -0.12939218841E-01  0.33029880064E-02 -0.67352355057E-02  0.14965214074E-01  0.51100000000E-03 0.  1.
         11    1    4    4    0    0 -0.41859269473E-01  0.11326086857E+00  0.15070671956E-01  0.12168651965E+00  0.51100000000E-03 0. -1.
</event>
<event>
 8    1  0.2190512E+004  0.1043930E+01  0.7957747E-01            NaN
         13   -1    0    0    0    0  0.00000000000E+00  0.00000000000E+00  0.74505805969E-08  0.10566000000E+00  0.10566000000E+00 0.  1.
     999900   -1    0    0    0    0 -0.00000000000E+00 -0.00000000000E+00 -0.74505805969E-08  0.93827000000E+00  0.93827000000E+00 0.  1.
     999902    2    1    2    0    0  0.36377335871E-02  0.11529002063E-01 -0.66731136022E-02  0.10301212550E+01  0.10300286979E+01 0.  0.
     999903    2    3    3    0    0 -0.99237930734E-02  0.11205659075E+00 -0.73771712375E-01  0.14175650271E+00  0.44693168550E-01 0.  0.
         14    1    1    2    0    0 -0.36377335871E-02 -0.11529002063E-01  0.66731136022E-02  0.13808745032E-01  0.00000000000E+00 0.  1.
     999901    1    3    3    0    0  0.13561526660E-01 -0.10052758869E+00  0.67098598772E-01  0.88836475226E+00  0.88000000000E+00 0. -1.
        -11    1    4    4    0    0  0.11733474990E-01  0.47993592732E-01 -0.49408751958E-01  0.69875212127E-01  0.51100000000E-03 0. -1.
         11    1    4    4    0    0 -0.21657268063E-01  0.64062998018E-01 -0.24362960416E-01  0.71881290585E-01  0.51100000000E-03 0.  1.
</event>
<event>
 8    1  0.2190512E+004  0.1043930E+01  0.7957747E-01            NaN
         13   -1    0    0    0    0  0.00000000000E+00  0.00000000000E+00  0.74505805969E-08  0.10566000000E+00  0.10566000000E+00 0. -1.
     999900   -1    0    0    0    0 -0.00000000000E+00 -0.00000000000E+00 -0.74505805969E-08  0.93827000000E+00  0.93827000000E+00 0.  1.
     999902    2    1    2    0    0 -0.12001738218E-01  0.41953028236E-02 -0.92581118520E-02  0.10282024789E+01  0.10280821867E+01 0.  0.
     999903    2    3    3    0    0  0.62403829363E-01 -0.80806417374E-01 -0.80873220921E-01  0.13809562866E+00  0.45891282245E-01 0.  0.
         14    1    1    2    0    0  0.12001738218E-01 -0.41953028237E-02  0.92581118520E-02  0.15727521137E-01  0.00000000000E+00 0. -1.
     999901    1    3    3    0    0 -0.74405567581E-01  0.85001720198E-01  0.71615109069E-01  0.89010685020E+00  0.88000000000E+00 0.  1.
        -11    1    4    4    0    0  0.50202974447E-02 -0.33174882173E-01 -0.95184705735E-02  0.34880346854E-01  0.51100000000E-03 0.  1.
         11    1    4    4    0    0  0.57383531918E-01 -0.47631535201E-01 -0.71354750347E-01  0.10321528181E+00  0.51100000000E-03 0. -1.
</event>
<event>
 8    1  0.2190512E+004  0.1043930E+01  0.7957747E-01            NaN
         13   -1    0    0    0    0  0.00000000000E+00  0.00000000000E+00  0.74505805969E-08  0.10566000000E+00  0.10566000000E+00 0.  1.
     999900   -1    0    0    0    0 -0.00000000000E+00 -0.00000000000E+00 -0.74505805969E-08  0.93827000000E+00  0.93827000000E+00 0. -1.
     999902    2    1    2    0    0  0.34906210490E-02 -0.12012842391E-01  0.21893485147E-02  0.10312301549E+01  0.10311519512E+01 0.  0.
     999903    2    3    3    0    0  0.37615375537E-01 -0.12884783551E+00  0.18008699576E-01  0.14271163158E+00  0.45006836531E-01 0.  0.
         14    1    1    2    0    0 -0.34906210490E-02  0.12012842391E-01 -0.21893485147E-02  0.12699845060E-01  0.00000000000E+00 0.  1.
     999901    1    3    3    0    0 -0.34124754488E-01  0.11683499312E+00 -0.15819351061E-01  0.88851852336E+00  0.88000000000E+00 0. -1.
        -11    1    4    4    0    0  0.18507055797E-01 -0.26143259191E-01  0.20818831190E-01  0.38205575097E-01  0.51100000000E-03 0. -1.
         11    1    4    4    0    0  0.19108319740E-01 -0.10270457632E+00 -0.28101316141E-02  0.10450605648E+00  0.51100000000E-03 0.  1.
</event>
<event>
 8    1  0.2190512E+004  0.1043930E+01  0.7957747E-01            NaN
         13   -1    0    0    0    0  0.00000000000E+00  0.00000000000E+00  0.74505805969E-08  0.10566000000E+00  0.10566000000E+00 0.  1.
     999900   -1    0    0    0    0 -0.00000000000E+00 -0.00000000000E+00 -0.74505805969E-08  0.93827000000E+00  0.93827000000E+00 0.  1.
     999902    2    1    2    0    0 -0.67450277838E-02 -0.43354207076E-02  0.10100135722E-01  0.10310341086E+01  0.10309534563E+01 0.  0.
     999903    2    3    3    0    0 -0.14554276257E-01  0.26744976845E-01 -0.12874674169E+00  0.13957158511E+00  0.44467776325E-01 0.  0.
         14    1    1    2    0    0  0.67450277838E-02  0.43354207076E-02 -0.10100135722E-01  0.12895891366E-01  0.00000000000E+00 0. -1.
     999901    1    3    3    0    0  0.78092484730E-02 -0.31080397552E-01  0.13884687741E+00  0.89146252352E+00  0.88000000000E+00 0. -1.
        -11    1    4    4    0    0 -0.25294511684E-01  0.30190151946E-01 -0.75679607067E-01  0.85316596525E-01  0.51100000000E-03 0. -1.
         11    1    4    4    0    0  0.10740235427E-01 -0.34451751013E-02 -0.53067134624E-01  0.54254988588E-01  0.51100000000E-03 0.  1.
</event>
<event>
 8    1  0.2190512E+004  0.1043930E+01  0.7957747E-01            NaN
         13   -1    0    0    0    0  0.00000000000E+00  0.00000000000E+00  0.74505805969E-08  0.10566000000E+00  0.10566000000E+00 0. -1.
     999900   -1    0    0    0    0 -0.00000000000E+00 -0.00000000000E+00 -0.74505805969E-08  0.93827000000E+00  0.93827000000E+00 0. -1.
     999902    2    1    2    0    0 -0.11842007525E-01 -0.37200439141E-02  0.73577481136E-02  0.10295005743E+01  0.10293994483E+01 0.  0.
     999903    2    3    3    0    0  0.90486774217E-01 -0.73925372461E-01  0.61106457204E-01  0.13916979786E+00  0.44513105075E-01 0.  0.
         14    1    1    2    0    0  0.11842007525E-01  0.37200439141E-02 -0.73577481136E-02  0.14429425707E-01  0.00000000000E+00 0.  1.
     999901    1    3    3    0    0 -0.10232878174E+00  0.70205328547E-01 -0.53748709091E-01  0.89033077643E+00  0.88000000000E+00 0. -1.
        -11    1    4    4    0    0  0.22058766958E-01 -0.41060978713E-01  0.37025281129E-01  0.59529200703E-01  0.51100000000E-03 0.  1.
         11    1    4    4    0    0  0.68428007259E-01 -0.32864393748E-01  0.24081176075E-01  0.79640597160E-01  0.51100000000E-03 0. -1.
</event>
<event>
 8    1  0.2190512E+004  0.1043930E+01  0.7957747E-01            NaN
         13   -1    0    0    0    0  0.00000000000E+00  0.00000000000E+00  0.74505805969E-08  0.10566000000E+00  0.10566000000E+00 0. -1.
     999900   -1    0    0    0    0 -0.00000000000E+00 -0.00000000000E+00 -0.74505805969E-08  0.93827000000E+00  0.93827000000E+00 0. -1.
     999902    2    1    2    0    0  0.99751064160E-02 -0.28306071340E-02  0.10375777595E-01  0.10292612630E+01  0.10291567304E+01 0.  0.
     999903    2    3    3    0    0  0.11900562180E+00  0.22586813274E-01  0.56049060065E-01  0.14099342766E+00  0.45443892406E-01 0.  0.
         14    1    1    2    0    0 -0.99751064160E-02  0.28306071340E-02 -0.10375777595E-01  0.14668737009E-01  0.00000000000E+00 0.  1.
     999901    1    3    3    0    0 -0.10903051538E+00 -0.25417420408E-01 -0.45673282470E-01  0.88826783533E+00  0.88000000000E+00 0. -1.
        -11    1    4    4    0    0  0.43121247757E-01  0.26046327579E-03  0.42856809425E-01  0.60798660218E-01  0.51100000000E-03 0.  1.
         11    1    4    4    0    0  0.75884374040E-01  0.22326349998E-01  0.13192250640E-01  0.80194767446E-01  0.51100000000E-03 0. -1.
</event>
<event>
 8    1  0.2190512E+004  0.1043930E+01  0.7957747E-01            NaN
         13   -1    0    0    0    0  0.00000000000E+00  0.00000000000E+00  0.74505805969E-08  0.10566000000E+00  0.10566000000E+00 0.  1.
     999900   -1    0    0    0    0 -0.00000000000E+00 -0.00000000000E+00 -0.74505805969E-08  0.93827000000E+00  0.93827000000E+00 0.  1.
     999902    2    1    2    0    0 -0.57965683467E-03  0.16493836868E-02  0.15693937989E-01  0.10281389849E+01  0.10280177120E+01 0.  0.
     999903    2    3    3    0    0 -0.52812481742E-01  0.10523104431E+00 -0.55499770374E-01  0.13767507629E+00  0.44849428149E-01 0.  0.
         14    1    1    2    0    0  0.57965683467E-03 -0.16493836868E-02 -0.15693937989E-01  0.15791015110E-01  0.00000000000E+00 0. -1.
     999901    1    3    3    0    0  0.52232824907E-01 -0.10358166062E+00  0.71193708363E-01  0.89046390860E+00  0.88000000000E+00 0. -1.
        -11    1    4    4    0    0 -0.18938377194E-01  0.74855202815E-01 -0.19460616225E-01  0.79630020872E-01  0.51100000000E-03 0.  1.
         11    1    4    4    0    0 -0.33874104548E-01  0.30375841492E-01 -0.36039154150E-01  0.58045055415E-01  0.51100000000E-03 0. -1.
</event>
<event>
 8    1  0.2190512E+004  0.1043930E+01  0.7957747E-01            NaN
         13   -1    0    0    0    0  0.00000000000E+00  0.00000000000E+00  0.74505805969E-08  0.10566000000E+00  0.10566000000E+00 0.  1.
     999900   -1    0    0    0    0 -0.00000000000E+00 -0.00000000000E+00 -0.74505805969E-08  0.93827000000E+00  0.93827000000E+00 0. -1.
     999902    2    1    2    0    0  0.11174376052E-01  0.69325913678E-02  0.47316785529E-02  0.10299544397E+01  0.10298596174E+01 0.  0.
     999903    2    3    3    0    0  0.39018817495E-01  0.69563891095E-01 -0.10865166243E+00  0.14003659259E+00  0.37992900021E-01 0.  0.
         14    1    1    2    0    0 -0.11174376052E-01 -0.69325913678E-02 -0.47316785529E-02  0.13975560281E-01  0.00000000000E+00 0.  1.
     999901    1    3    3    0    0 -0.27844441443E-01 -0.62631299727E-01  0.11338334099E+00  0.88991784713E+00  0.88000000000E+00 0. -1.
        -11    1    4    4    0    0  0.20229807615E-01  0.75390914846E-02 -0.15604698229E-01  0.26643024310E-01  0.51100000000E-03 0.  1.
         11    1    4    4    0    0  0.18789009881E-01  0.62024799611E-01 -0.93046964203E-01  0.11339356828E+00  0.51100000000E-03 0. -1.
</event>
<event>
 8    1  0.2190512E+004  0.1043930E+01  0.7957747E-01            NaN
         13   -1    0    0    0    0  0.00000000000E+00  0.00000000000E+00  0.74505805969E-08  0.10566000000E+00  0.10566000000E+00 0.  1.
     999900   -1    0    0    0    0 -0.00000000000E+00 -0.00000000000E+00 -0.74505805969E-08  0.93827000000E+00  0.93827000000E+00 0.  1.
     999902    2    1    2    0    0  0.14958028338E-01 -0.11829068485E-01 -0.68035326312E-02  0.10236825920E+01  0.10234823358E+01 0.  0.
     999903    2    3    3    0    0 -0.77158913493E-01  0.31841515267E-01  0.91606333755E-01  0.13234811348E+00  0.46442682228E-01 0.  0.
         14    1    1    2    0    0 -0.14958028338E-01  0.11829068485E-01  0.68035326312E-02  0.20247407964E-01  0.00000000000E+00 0.  1.
     999901    1    3    3    0    0  0.92116941830E-01 -0.43670583752E-01 -0.98409866386E-01  0.89133447855E+00  0.88000000000E+00 0.  1.
        -11    1    4    4    0    0 -0.32566523237E-01 -0.33851596569E-03  0.61647734911E-01  0.69723721713E-01  0.51100000000E-03 0.  1.
         11    1    4    4    0    0 -0.44592390255E-01  0.32180031233E-01  0.29958598843E-01  0.62624391769E-01  0.51100000000E-03 0. -1.
</event>
<event>
 8    1  0.2190512E+004  0.1043930E+01  0.7957747E-01            NaN
         13   -1    0    0    0    0  0.00000000000E+00  0.00000000000E+00  0.74505805969E-08  0.10566000000E+00  0.10566000000E+00 0.  1.
     999900   -1    0    0    0    0 -0.00000000000E+00 -0.00000000000E+00 -0.74505805969E-08  0.93827000000E+00  0.93827000000E+00 0.  1.
     999902    2    1    2    0    0 -0.81187124767E-02  0.18719923296E-02  0.10678110778E-01  0.10303860014E+01  0.10302969824E+01 0.  0.
     999903    2    3    3    0    0 -0.62603540149E-01 -0.79571240174E-01  0.88985926393E-01  0.14149134481E+00  0.43017671478E-01 0.  0.
         14    1    1    2    0    0  0.81187124767E-02 -0.18719923296E-02 -0.10678110778E-01  0.13543998573E-01  0.00000000000E+00 0. -1.
     999901    1    3    3    0    0  0.54484827673E-01  0.81443232503E-01 -0.78307815615E-01  0.88889465661E+00  0.88000000000E+00 0.  1.
        -11    1    4    4    0    0 -0.41984549387E-01 -0.77977969077E-01  0.78271358354E-01  0.11819446987E+00  0.51100000000E-03 0.  1.
         11    1    4    4    0    0 -0.20618990763E-01 -0.15932710968E-02  0.10714568039E-01  0.23296874943E-01  0.51100000000E-03 0. -1.
</event>
<event>
 7    1  0.2190512E+004  0.1043930E+01  0.7957747E-01            NaN
         13   -1    0    0    0    0  0.00000000000E+00  0.00000000000E+00  0.74505805969E-08  0.10566000000E+00  0.10566000000E+00 0. -1.
     999900   -1    0    0    0    0 -0.00000000000E+00 -0.00000000000E+00 -0.74505805969E-08  0.93827000000E+00  0.93827000000E+00 0.  1.
     999903    2    1    2    0    0  0.51909009506E-01  0.18752820018E-01 -0.70841060113E-01  0.10056817731E+00  0.45269072928E-01 0.  0.
         14    1    1    2    0    0 -0.39350233547E-01 -0.24079085603E-01  0.42615115230E-01  0.62803592969E-01  0.00000000000E+00 0. -1.
     999901    1    1    2    0    0 -0.12558775960E-01  0.53262655848E-02  0.28225944883E-01  0.88055822972E+00  0.88000000000E+00 0. -1.
        -11    1    3    3    0    0  0.14227802222E-01  0.49560763258E-02  0.40439140545E-02  0.15607927809E-01  0.51100000000E-03 0. -1.
         11    1    3    3    0    0  0.37681207284E-01  0.13796743693E-01 -0.74884974167E-01  0.84960249505E-01  0.51100000000E-03 0.  1.
</event>
<event>
 8    1  0.2190512E+004  0.1043930E+01  0.7957747E-01            NaN
         13   -1    0    0    0    0  0.00000000000E+00  0.00000000000E+00  0.74505805969E-08  0.10566000000E+00  0.10566000000E+00 0. -1.
     999900   -1    0    0    0    0 -0.00000000000E+00 -0.00000000000E+00 -0.74505805969E-08  0.93827000000E+00  0.93827000000E+00 0.  1.
     999902    2    1    2    0    0 -0.11004877377E-01  0.73898622068E-02  0.62212367632E-03  0.10306595657E+01  0.10305741292E+01 0.  0.
     999903    2    3    3    0    0 -0.10637898494E+00  0.44153512235E-01 -0.69654894852E-01  0.14196015322E+00  0.45109418585E-01 0.  0.
         14    1    1    2    0    0  0.11004877377E-01 -0.73898622068E-02 -0.62212367632E-03  0.13270434333E-01  0.00000000000E+00 0. -1.
     999901    1    3    3    0    0  0.95374107562E-01 -0.36763650028E-01  0.70277018528E-01  0.88869941245E+00  0.88000000000E+00 0. -1.
        -11    1    4    4    0    0 -0.59937819445E-01  0.33917162825E-01 -0.16862919557E-01  0.70905114843E-01  0.51100000000E-03 0.  1.
         11    1    4    4    0    0 -0.46441165494E-01  0.10236349409E-01 -0.52791975295E-01  0.71055038373E-01  0.51100000000E-03 0. -1.
</event>
<event>
 8    1  0.2190512E+004  0.1043930E+01  0.7957747E-01            NaN
         13   -1    0    0    0    0  0.00000000000E+00  0.00000000000E+00  0.74505805969E-08  0.10566000000E+00  0.10566000000E+00 0. -1.
     999900   -1    0    0    0    0 -0.00000000000E+00 -0.00000000000E+00 -0.74505805969E-08  0.93827000000E+00  0.93827000000E+00 0.  1.
     999902    2    1    2    0    0 -0.26289299004E-02  0.98255069063E-02  0.10146955107E-01  0.10295629350E+01  0.10294626873E+01 0.  0.
     999903    2    3    3    0    0  0.32721795627E-01  0.50393780907E-01 -0.11644041795E+00  0.13887790557E+00  0.46026651638E-01 0.  0.
         14    1    1    2    0    0  0.26289299004E-02 -0.98255069063E-02 -0.10146955107E-01  0.14367064986E-01  0.00000000000E+00 0.  1.
     999901    1    3    3    0    0 -0.35350725527E-01 -0.40568274001E-01  0.12658737306E+00  0.89068502944E+00  0.88000000000E+00 0. -1.
        -11    1    4    4    0    0  0.79782082985E-02  0.49654418545E-01 -0.69250846053E-01  0.85587112866E-01  0.51100000000E-03 0. -1.
         11    1    4    4    0    0  0.24743587328E-01  0.73936236196E-03 -0.47189571897E-01  0.53290792708E-01  0.51100000000E-03 0.  1.
</event>
<event>
 8    1  0.2190512E+004  0.1043930E+01  0.7957747E-01            NaN
         13   -1    0    0    0    0  0.00000000000E+00  0.00000000000E+00  0.74505805969E-08  0.10566000000E+00  0.10566000000E+00 0.  1.
     999900   -1    0    0    0    0 -0.00000000000E+00 -0.00000000000E+00 -0.74505805969E-08  0.93827000000E+00  0.93827000000E+00 0. -1.
     999902    2    1    2    0    0  0.11125374776E-01  0.55003575811E-02  0.77461765762E-02  0.10293001966E+01  0.10291962220E+01 0.  0.
     999903    2    3    3    0    0  0.30068457883E-01  0.37684129821E-01  0.12444984296E+00  0.14081025213E+00  0.44894965107E-01 0.  0.
         14    1    1    2    0    0 -0.11125374776E-01 -0.55003575811E-02 -0.77461765762E-02  0.14629803450E-01  0.00000000000E+00 0.  1.
     999901    1    3    3    0    0 -0.18943083107E-01 -0.32183772240E-01 -0.11670366638E+00  0.88848994442E+00  0.88000000000E+00 0. -1.
        -11    1    4    4    0    0  0.19561433385E-01  0.21509033757E-02  0.13591466095E-01  0.23922063728E-01  0.51100000000E-03 0.  1.
         11    1    4    4    0    0  0.10507024498E-01  0.35533226446E-01  0.11085837686E+00  0.11688818840E+00  0.51100000000E-03 0. -1.
</event>
<event>
 8    1  0.2190512E+004  0.1043930E+01  0.7957747E-01            NaN
         13   -1    0    0    0    0  0.00000000000E+00  0.00000000000E+00  0.74505805969E-08  0.10566000000E+00  0.10566000000E+00 0. -1.
     999900   -1    0    0    0    0 -0.00000000000E+00 -0.00000000000E+00 -0.74505805969E-08  0.93827000000E+00  0.93827000000E+00 0. -1.
     999902    2    1    2    0    0 -0.63635567400E-02 -0.10812800333E-01 -0.72771156904E-02  0.10294259344E+01  0.10293237521E+01 0.  0.
     999903    2    3    3    0    0 -0.96266206907E-03 -0.66483613920E-01 -0.11618269423E+00  0.14095036685E+00  0.44131506175E-01 0.  0.
         14    1    1    2    0    0  0.63635567400E-02  0.10812800333E-01  0.72771156904E-02  0.14504065575E-01  0.00000000000E+00 0. -1.
     999901    1    3    3    0    0 -0.54008946710E-02  0.55670813587E-01  0.10890557854E+00  0.88847556758E+00  0.88000000000E+00 0.  1.
        -11    1    4    4    0    0 -0.42801097885E-02 -0.70693825205E-01 -0.91614348764E-01  0.11579890450E+00  0.51100000000E-03 0.  1.
         11    1    4    4    0    0  0.33174477195E-02  0.42102112845E-02 -0.24568345466E-01  0.25151462350E-01  0.51100000000E-03 0. -1.
</event>
<event>
 8    1  0.2190512E+004  0.1043930E+01  0.7957747E-01            NaN
         13   -1    0    0    0    0  0.00000000000E+00  0.00000000000E+00  0.74505805969E-08  0.10566000000E+00  0.10566000000E+00 0. -1.
     999900   -1    0    0    0    0 -0.00000000000E+00 -0.00000000000E+00 -0.74505805969E-08  0.93827000000E+00  0.93827000000E+00 0.  1.
     999902    2    1    2    0    0  0.11323827617E-01 -0.71563162345E-03  0.63406163135E-02  0.10309321303E+01  0.10308501893E+01 0.  0.
     999903    2    3    3    0    0 -0.27170261133E-01 -0.38150579429E-02  0.13055031366E+00  0.14137074953E+00  0.46792378323E-01 0.  0.
         14    1    1    2    0    0 -0.11323827617E-01  0.71563162345E-03 -0.63406163135E-02  0.12997869662E-01  0.00000000000E+00 0.  1.
     999901    1    3    3    0    0  0.38494088750E-01  0.30994263194E-02 -0.12420969734E+00  0.88956138081E+00  0.88000000000E+00 0.  1.
        -11    1    4    4    0    0 -0.32400527805E-01 -0.41803023496E-02  0.44747604322E-01  0.55406482864E-01  0.51100000000E-03 0.  1.
         11    1    4    4    0    0  0.52302666724E-02  0.36524440674E-03  0.85802709335E-01  0.85964266665E-01  0.51100000000E-03 0. -1.
</event>
<event>
 8    1  0.2190512E+004  0.1043930E+01  0.7957747E-01            NaN
         13   -1    0    0    0    0  0.00000000000E+00  0.00000000000E+00  0.74505805969E-08  0.10566000000E+00  0.10566000000E+00 0.  1.
     999900   -1    0    0    0    0 -0.00000000000E+00 -0.00000000000E+00 -0.74505805969E-08  0.93827000000E+00  0.93827000000E+00 0. -1.
     999902    2    1    2    0    0  0.90032470703E-02 -0.42558550301E-02 -0.15429952685E-01  0.10255655180E+01  0.10254010813E+01 0.  0.
     999903    2    3    3    0    0 -0.58609722077E-01  0.10832902838E+00  0.31391138764E-01  0.13458904008E+00  0.44255261898E-01 0.  0.
         14    1    1    2    0    0 -0.90032470703E-02  0.42558550301E-02  0.15429952685E-01  0.18364482015E-01  0.00000000000E+00 0.  1.
     999901    1    3    3    0    0  0.67612969148E-01 -0.11258488341E+00 -0.46821091448E-01  0.89097647790E+00  0.88000000000E+00 0.  1.
        -11    1    4    4    0    0 -0.30604173134E-01  0.45984105650E-01  0.36244679629E-01  0.66068837647E-01  0.51100000000E-03 0.  1.
         11    1    4    4    0    0 -0.28005548943E-01  0.62344922731E-01 -0.48535408650E-02  0.68520202436E-01  0.51100000000E-03 0. -1.
</event>
<event>
 8    1  0.2190512E+004  0.1043930E+01  0.7957747E-01            NaN
         13   -1    0    0    0    0  0.00000000000E+00  0.00000000000E+00  0.74505805969E-08  0.10566000000E+00  0.10566000000E+00 0.  1.
     999900   -1    0    0    0    0 -0.00000000000E+00 -0.00000000000E+00 -0.74505805969E-08  0.93827000000E+00  0.93827000000E+00 0. -1.
     999902    2    1    2    0    0  0.30475551729E-02  0.95126889420E-02 -0.10554998175E-01  0.10293977314E+01  0.10292951485E+01 0.  0.
     999903    2    3    3    0    0  0.12903242751E-01  0.10397982016E+00  0.80676963475E-01  0.13959750425E+00  0.44725765322E-01 0.  0.
         14    1    1    2    0    0 -0.30475551729E-02 -0.95126889420E-02  0.10554998175E-01  0.14532268574E-01  0.00000000000E+00 0.  1.
     999901    1    3    3    0    0 -0.98556875782E-02 -0.94467131214E-01 -0.91231961651E-01  0.88980022718E+00  0.88000000000E+00 0. -1.
        -11    1    4    4    0    0  0.52241268694E-02  0.37904731904E-01  0.57667262897E-01  0.69208630483E-01  0.51100000000E-03 0. -1.
         11    1    4    4    0    0  0.76791158816E-02  0.66075088253E-01  0.23009700578E-01  0.70388873766E-01  0.51100000000E-03 0.  1.
</event>
<event>
 8    1  0.2190512E+004  0.1043930E+01  0.7957747E-01            NaN
         13   -1    0    0    0    0  0.00000000000E+00  0.00000000000E+00  0.74505805969E-08  0.10566000000E+00  0.10566000000E+00 0.  1.
     999900   -1    0    0    0    0 -0.00000000000E+00 -0.00000000000E+00 -0.74505805969E-08  0.93827000000E+00  0.93827000000E+00 0. -1.
     999902    2    1    2    0    0  0.89910327493E-02  0.48820978009E-02  0.94370814262E-02  0.10300112337E+01  0.10299171858E+01 0.  0.
     999903    2    3    3    0    0  0.98145581637E-01 -0.36965755307E-01 -0.80877317880E-01  0.13992333519E+00  0.45148387814E-01 0.  0.
         14    1    1    2    0    0 -0.89910327493E-02 -0.48820978009E-02 -0.94370814262E-02  0.13918766277E-01  0.00000000000E+00 0. -1.
     999901    1    3    3    0    0 -0.89154548888E-01  0.41847853108E-01  0.90314399306E-01  0.89008789854E+00  0.88000000000E+00 0.  1.
        -11    1    4    4    0    0  0.46154469882E-01 -0.40469703574E-01 -0.51321813868E-01  0.80013884402E-01  0.51100000000E-03 0.  1.
         11    1    4    4    0    0  0.51991111755E-01  0.35039482665E-02 -0.29555504011E-01  0.59909450785E-01  0.51100000000E-03 0. -1.
</event>
<event>
 7    1  0.2190512E+004  0.1043930E+01  0.7957747E-01            NaN
         13   -1    0    0    0    0  0.00000000000E+00  0.00000000000E+00  0.74505805969E-08  0.10566000000E+00  0.10566000000E+00 0. -1.
     999900   -1    0    0    0    0 -0.00000000000E+00 -0.00000000000E+00 -0.74505805969E-08  0.93827000000E+00  0.93827000000E+00 0. -1.
     999903    2    1    2    0    0 -0.47480257694E-01 -0.85018779972E-01  0.63265775292E-01  0.12441163923E+00  0.44644482695E-01 0.  0.
         14    1    1    2    0    0  0.95905703878E-02 -0.11248567001E-01  0.25030458651E-01  0.29069454075E-01  0.00000000000E+00 0. -1.
     999901    1    1    2    0    0  0.37889687306E-01  0.96267346973E-01 -0.88296233943E-01  0.89044890669E+00  0.88000000000E+00 0. -1.
        -11    1    3    3    0    0 -0.41363692089E-01 -0.89972024942E-01  0.56439965026E-01  0.11398092414E+00  0.51100000000E-03 0.  1.
         11    1    3    3    0    0 -0.61165656052E-02  0.49532449700E-02  0.68258102658E-02  0.10430715091E-01  0.51100000000E-03 0. -1.
</event>
<event>
 7    1  0.2190512E+004  0.1043930E+01  0.7957747E-01            NaN
         13   -1    0    0    0    0  0.00000000000E+00  0.00000000000E+00  0.74505805969E-08  0.10566000000E+00  0.10566000000E+00 0. -1.
     999900   -1    0    0    0    0 -0.00000000000E+00 -0.00000000000E+00 -0.74505805969E-08  0.93827000000E+00  0.93827000000E+00 0.  1.
     999902    2    1    2    0    0 -0.10714662943E-01  0.11207542268E-01 -0.98104424325E-02  0.10255817634E+01  0.10254176201E+01 0.  0.
         14    1    1    2    0    0  0.10714662943E-01 -0.11207542268E-01  0.98104424325E-02  0.18348236602E-01  0.00000000000E+00 0.  1.
     999901    1    3    3    0    0 -0.62619427511E-01  0.36699106623E-01 -0.12759329118E+00  0.89215921510E+00  0.88000000000E+00 0.  1.
        -11    1    3    3    0    0  0.28221499397E-01 -0.11180633863E-01  0.86403291925E-01  0.91581928229E-01  0.51100000000E-03 0. -1.
         11    1    3    3    0    0  0.23683265171E-01 -0.14310930492E-01  0.31379556821E-01  0.41840620072E-01  0.51100000000E-03 0.  1.
</event>
<event>
 8    1  0.2190512E+004  0.1043930E+01  0.7957747E-01            NaN
         13   -1    0    0    0    0  0.00000000000E+00  0.00000000000E+00  0.74505805969E-08  0.10566000000E+00  0.10566000000E+00 0.  1.
     999900   -1    0    0    0    0 -0.00000000000E+00 -0.00000000000E+00 -0.74505805969E-08  0.93827000000E+00  0.93827000000E+00 0.  1.
     999902    2    1    2    0    0  0.58950666679E-02  0.13170399891E-01  0.10861030921E-02  0.10294596557E+01  0.10293579513E+01 0.  0.
     999903    2    3    3    0    0 -0.43106762910E-01 -0.84556865328E-03  0.12449289814E+00  0.13938838679E+00  0.45516290369E-01 0.  0.
         14    1    1    2    0    0 -0.58950666679E-02 -0.13170399891E-01 -0.10861030921E-02  0.14470344303E-01  0.00000000000E+00 0. -1.
     999901    1    3    3    0    0  0.49001829578E-01  0.14015968545E-01 -0.12340679505E+00  0.89007126891E+00  0.88000000000E+00 0.  1.
        -11    1    4    4    0    0 -0.33136362622E-02 -0.18339193203E-01  0.29138428682E-01  0.34592128291E-01  0.51100000000E-03 0. -1.
         11    1    4    4    0    0 -0.39793126648E-01  0.17493624550E-01  0.95354469457E-01  0.10479625850E+00  0.51100000000E-03 0.  1.
</event>
<event>
 8    1  0.2190512E+004  0.1043930E+01  0.7957747E-01            NaN
         13   -1    0    0    0    0  0.00000000000E+00  0.00000000000E+00  0.74505805969E-08  0.10566000000E+00  0.10566000000E+00 0.  1.
     999900   -1    0    0    0    0 -0.00000000000E+00 -0.00000000000E+00 -0.74505805969E-08  0.93827000000E+00  0.93827000000E+00 0.  1.
     999902    2    1    2    0    0 -0.99829569339E-02 -0.22027582296E-02  0.80343596968E-02  0.10309275960E+01  0.10308455974E+01 0.  0.
     999903    2    3    3    0    0 -0.10539432705E+00  0.50955304239E-01  0.66960929709E-01  0.14221985454E+00  0.45147687785E-01 0.  0.
         14    1    1    2    0    0  0.99829569339E-02  0.22027582296E-02 -0.80343596968E-02  0.13002403958E-01  0.00000000000E+00 0. -1.
     999901    1    3    3    0    0  0.95411370119E-01 -0.53158062469E-01 -0.58926570013E-01  0.88870774150E+00  0.88000000000E+00 0.  1.
        -11    1    4    4    0    0 -0.51578896984E-01  0.26275920926E-01  0.58695063995E-01  0.82438936753E-01  0.51100000000E-03 0. -1.
         11    1    4    4    0    0 -0.53815430069E-01  0.24679383314E-01  0.82658657142E-02  0.59780917785E-01  0.51100000000E-03 0.  1.
</event>
<event>
 8    1  0.2190512E+004  0.1043930E+01  0.7957747E-01            NaN
         13   -1    0    0    0    0  0.00000000000E+00  0.00000000000E+00  0.74505805969E-08  0.10566000000E+00  0.10566000000E+00 0.  1.
     999900   -1    0    0    0    0 -0.00000000000E+00 -0.00000000000E+00 -0.74505805969E-08  0.93827000000E+00  0.93827000000E+00 0.  1.
     999902    2    1    2    0    0 -0.44757749402E-02 -0.49032411004E-02  0.11250405982E-01  0.10308668469E+01  0.10307840754E+01 0.  0.
     999903    2    3    3    0    0  0.52189827873E-02 -0.13387313411E+00  0.23898494921E-02  0.14136938703E+00  0.45059276403E-01 0.  0.
         14    1    1    2    0    0  0.44757749402E-02  0.49032411004E-02 -0.11250405982E-01  0.13063153117E-01  0.00000000000E+00 0. -1.
     999901    1    3    3    0    0 -0.96947577275E-02  0.12896989301E+00  0.88605564902E-02  0.88949745986E+00  0.88000000000E+00 0. -1.
        -11    1    4    4    0    0  0.50986591760E-03 -0.80126259254E-01  0.23386778737E-01  0.83472629801E-01  0.51100000000E-03 0.  1.
         11    1    4    4    0    0  0.47091168697E-02 -0.53746874855E-01 -0.20996929245E-01  0.57896757225E-01  0.51100000000E-03 0. -1.
</event>
<event>
 8    1  0.2190512E+004  0.1043930E+01  0.7957747E-01            NaN
         13   -1    0    0    0    0  0.00000000000E+00  0.00000000000E+00  0.74505805969E-08  0.10566000000E+00  0.10566000000E+00 0.  1.
     999900   -1    0    0    0    0 -0.00000000000E+00 -0.00000000000E+00 -0.74505805969E-08  0.93827000000E+00  0.93827000000E+00 0.  1.
     999902    2    1    2    0    0  0.48259693713E-02 -0.10575336464E-01  0.81878237745E-02  0.10297114143E+01  0.10296132422E+01 0.  0.
     999903    2    3    3    0    0 -0.37992437568E-01  0.12202648031E+00 -0.24902288449E-01  0.13813325545E+00  0.46117080136E-01 0.  0.
         14    1    1    2    0    0 -0.48259693713E-02  0.10575336464E-01 -0.81878237745E-02  0.14218585720E-01  0.00000000000E+00 0. -1.
     999901    1    3    3    0    0  0.42818406939E-01 -0.13260181678E+00  0.33090112224E-01  0.89157815884E+00  0.88000000000E+00 0. -1.
        -11    1    4    4    0    0 -0.42905714245E-01  0.10186897067E+00 -0.33746107441E-01  0.11557356267E+00  0.51100000000E-03 0.  1.
         11    1    4    4    0    0  0.49132766773E-02  0.20157509641E-01  0.88438189917E-02  0.22559692772E-01  0.51100000000E-03 0. -1.
</event>
<event>
 8    1  0.2190512E+004  0.1043930E+01  0.7957747E-01            NaN
         13   -1    0    0    0    0  0.00000000000E+00  0.00000000000E+00  0.74505805969E-08  0.10566000000E+00  0.10566000000E+00 0. -1.
     999900   -1    0    0    0    0 -0.00000000000E+00 -0.00000000000E+00 -0.74505805969E-08  0.93827000000E+00  0.93827000000E+00 0. -1.
     999902    2    1    2    0    0  0.73471068433E-02  0.11207697334E-01 -0.46324859692E-02  0.10297507058E+01  0.10296530793E+01 0.  0.
     999903    2    3    3    0    0 -0.91166340854E-01  0.91789658491E-01  0.16197315662E-01  0.14035077746E+00  0.51955217154E-01 0.  0.
         14    1    1    2    0    0 -0.73471068433E-02 -0.11207697334E-01  0.46324859692E-02  0.14179294226E-01  0.00000000000E+00 0.  1.
     999901    1    3    3    0    0  0.98513447697E-01 -0.80581961157E-01 -0.20829801631E-01  0.88939992831E+00  0.88000000000E+00 0.  1.
        -11    1    4    4    0    0 -0.16171913711E-01  0.82995922134E-02  0.21300985565E-01  0.28007269253E-01  0.51100000000E-03 0. -1.
         11    1    4    4    0    0 -0.74994427143E-01  0.83490066278E-01 -0.51036699038E-02  0.11234350821E+00  0.51100000000E-03 0.  1.
</event>
<event>
 8    1  0.2190512E+004  0.1043930E+01  0.7957747E-01            NaN
         13   -1    0    0    0    0  0.00000000000E+00  0.00000000000E+00  0.74505805969E-08  0.10566000000E+00  0.10566000000E+00 0. -1.
     999900   -1    0    0    0    0 -0.00000000000E+00 -0.00000000000E+00 -0.74505805969E-08  0.93827000000E+00  0.93827000000E+00 0. -1.
     999902    2    1    2    0    0  0.78529596661E-02  0.12913597098E-01  0.13585575378E-01  0.10236076521E+01  0.10234058958E+01 0.  0.
     999903    2    3    3    0    0 -0.61240403202E-01 -0.89042635474E-01  0.62238841419E-01  0.13369973190E+00  0.48197168092E-01 0.  0.
         14    1    1    2    0    0 -0.78529596661E-02 -0.12913597098E-01 -0.13585575378E-01  0.20322347893E-01  0.00000000000E+00 0.  1.
     999901    1    3    3    0    0  0.69093362868E-01  0.10195623257E+00 -0.48653266041E-01  0.88990792021E+00  0.88000000000E+00 0.  1.
        -11    1    4    4    0    0 -0.16836363548E-01 -0.41347227837E-01  0.15873113031E-02  0.44674792283E-01  0.51100000000E-03 0.  1.
         11    1    4    4    0    0 -0.44404039654E-01 -0.47695407637E-01  0.60651530116E-01  0.89024939616E-01  0.51100000000E-03 0. -1.
</event>
<event>
 8    1  0.2190512E+004  0.1043930E+01  0.7957747E-01            NaN
         13   -1    0    0    0    0  0.00000000000E+00  0.00000000000E+00  0.74505805969E-08  0.10566000000E+00  0.10566000000E+00 0. -1.
     999900   -1    0    0    0    0 -0.00000000000E+00 -0.00000000000E+00 -0.74505805969E-08  0.93827000000E+00  0.93827000000E+00 0.  1.
     999902    2    1    2    0    0  0.16686816815E-02  0.14509164768E-01  0.22903821930E-03  0.10293233981E+01  0.10292197555E+01 0.  0.
     999903    2    3    3    0    0 -0.12118103148E+00 -0.41206471729E-01 -0.30195782980E-01  0.13852490577E+00  0.43526411599E-01 0.  0.
         14    1    1    2    0    0 -0.16686816815E-02 -0.14509164768E-01 -0.22903821930E-03  0.14606601909E-01  0.00000000000E+00 0. -1.
     999901    1    3    3    0    0  0.12284971316E+00  0.55715636497E-01  0.30424821199E-01  0.89079849232E+00  0.88000000000E+00 0. -1.
        -11    1    4    4    0    0 -0.69923243029E-01 -0.27156777285E-01  0.43407265211E-02  0.75138894695E-01  0.51100000000E-03 0. -1.
         11    1    4    4    0    0 -0.51257788449E-01 -0.14049694444E-01 -0.34536509501E-01  0.63386011077E-01  0.51100000000E-03 0.  1.
</event>
<event>
 8    1  0.2190512E+004  0.1043930E+01  0.7957747E-01            NaN
         13   -1    0    0    0    0  0.00000000000E+00  0.00000000000E+00  0.74505805969E-08  0.10566000000E+00  0.10566000000E+00 0. -1.
     999900   -1    0    0    0    0 -0.00000000000E+00 -0.00000000000E+00 -0.74505805969E-08  0.93827000000E+00  0.93827000000E+00 0. -1.
     999902    2    1    2    0    0  0.15391932546E-02  0.14814142507E-02  0.10083893711E-01  0.10336223030E+01  0.10335709055E+01 0.  0.
     999903    2    3    3    0    0 -0.20774980657E-01  0.12405622490E+00  0.52826816056E-01  0.14381925519E+00  0.45516578438E-01 0.  0.
         14    1    1    2    0    0 -0.15391932546E-02 -0.14814142507E-02 -0.10083893711E-01  0.10307696951E-01  0.00000000000E+00 0.  1.
     999901    1    3    3    0    0  0.22314173911E-01 -0.12257481065E+00 -0.42742922345E-01  0.88980304786E+00  0.88000000000E+00 0.  1.
        -11    1    4    4    0    0  0.11388629625E-01  0.66188803681E-01  0.21077913330E-01  0.70393168481E-01  0.51100000000E-03 0. -1.
         11    1    4    4    0    0 -0.32163610282E-01  0.57867421217E-01  0.31748902725E-01  0.73426086713E-01  0.51100000000E-03 0.  1.
</event>
<event>
 8    1  0.2190512E+004  0.1043930E+01  0.7957747E-01            NaN
         13   -1    0    0    0    0  0.00000000000E+00  0.00000000000E+00  0.74505805969E-08  0.10566000000E+00  0.10566000000E+00 0.  1.
     999900   -1    0    0    0    0 -0.00000000000E+00 -0.00000000000E+00 -0.74505805969E-08  0.93827000000E+00  0.93827000000E+00 0.  1.
     999902    2    1    2    0    0 -0.29701483740E-02 -0.49347931498E-02 -0.11879310538E-01  0.10307280311E+01  0.10306434796E+01 0.  0.
     999903    2    3    3    0    0  0.10449815086E+00  0.66789120989E-01  0.45154246679E-01  0.13946680009E+00  0.45071411319E-01 0.  0.
         14    1    1    2    0    0  0.29701483740E-02  0.49347931498E-02  0.11879310538E-01  0.13201968931E-01  0.00000000000E+00 0.  1.
     999901    1    3    3    0    0 -0.10746829923E+00 -0.71723914139E-01 -0.57033557217E-01  0.89126123098E+00  0.88000000000E+00 0. -1.
        -11    1    4    4    0    0  0.46498866914E-01  0.13453154352E-01 -0.47756651549E-03  0.48410961332E-01  0.51100000000E-03 0.  1.
         11    1    4    4    0    0  0.57999283946E-01  0.53335966637E-01  0.45631813194E-01  0.91055838757E-01  0.51100000000E-03 0. -1.
</event>
<event>
 8    1  0.2190512E+004  0.1043930E+01  0.7957747E-01            NaN
         13   -1    0    0    0    0  0.00000000000E+00  0.00000000000E+00  0.74505805969E-08  0.10566000000E+00  0.10566000000E+00 0. -1.
     999900   -1    0    0    0    0 -0.00000000000E+00 -0.00000000000E+00 -0.74505805969E-08  0.93827000000E+00  0.93827000000E+00 0.  1.
     999902    2    1    2    0    0 -0.19798104991E-02  0.11688726747E-01 -0.86622152230E-02  0.10292473587E+01  0.10291426264E+01 0.  0.
     999903    2    3    3    0    0 -0.68354651537E-01 -0.63221371546E-01  0.91196427583E-01  0.13796239256E+00  0.45249675689E-01 0.  0.
         14    1    1    2    0    0  0.19798104991E-02 -0.11688726747E-01  0.86622152230E-02  0.14682641286E-01  0.00000000000E+00 0.  1.
     999901    1    3    3    0    0  0.66374841038E-01  0.74910098293E-01 -0.99858642806E-01  0.89128496615E+00  0.88000000000E+00 0.  1.
        -11    1    4    4    0    0 -0.47044273889E-01 -0.54946006912E-01  0.41836219664E-01  0.83562897137E-01  0.51100000000E-03 0. -1.
         11    1    4    4    0    0 -0.21310377648E-01 -0.82753646347E-02  0.49360207920E-01  0.54399495422E-01  0.51100000000E-03 0.  1.
</event>
<event>
 8    1  0.2190512E+004  0.1043930E+01  0.7957747E-01            NaN
         13   -1    0    0    0    0  0.00000000000E+00  0.00000000000E+00  0.74505805969E-08  0.10566000000E+00  0.10566000000E+00 0.  1.
     999900   -1    0    0    0    0 -0.00000000000E+00 -0.00000000000E+00 -0.74505805969E-08  0.93827000000E+00  0.93827000000E+00 0. -1.
     999902    2    1    2    0    0 -0.75941544818E-02  0.19125347718E-02  0.11385969469E-01  0.10301108368E+01  0.10300181390E+01 0.  0.
     999903    2    3    3    0    0  0.13955228500E-01  0.11308479120E+00 -0.66608699236E-01  0.13943310894E+00  0.44966150069E-01 0.  0.
         14    1    1    2    0    0  0.75941544818E-02 -0.19125347718E-02 -0.11385969469E-01  0.13819163227E-01  0.00000000000E+00 0.  1.
     999901    1    3    3    0    0 -0.21549382982E-01 -0.11117225643E+00  0.77994668706E-01  0.89067772783E+00  0.88000000000E+00 0. -1.
        -11    1    4    4    0    0 -0.16906962807E-02  0.84500492013E-01 -0.65318525011E-01  0.10681742571E+00  0.51100000000E-03 0.  1.
         11    1    4    4    0    0  0.15645924781E-01  0.28584299188E-01 -0.12901742250E-02  0.32615683234E-01  0.51100000000E-03 0. -1.
</event>
<event>
 8    1  0.2190512E+004  0.1043930E+01  0.7957747E-01            NaN
         13   -1    0    0    0    0  0.00000000000E+00  0.00000000000E+00  0.74505805969E-08  0.10566000000E+00  0.10566000000E+00 0. -1.
     999900   -1    0    0    0    0 -0.00000000000E+00 -0.00000000000E+00 -0.74505805969E-08  0.93827000000E+00  0.93827000000E+00 0.  1.
     999902    2    1    2    0    0 -0.25710311022E-02  0.83718629114E-02  0.11300779860E-01  0.10296329403E+01  0.10295336740E+01 0.  0.
     999903    2    3    3    0    0 -0.13239458093E+00  0.10055969079E-01  0.11381553055E-02  0.14004861649E+00  0.44529451030E-01 0.  0.
         14    1    1    2    0    0  0.25710311022E-02 -0.83718629114E-02 -0.11300779860E-01  0.14297059662E-01  0.00000000000E+00 0.  1.
     999901    1    3    3    0    0  0.12982354983E+00 -0.16841061679E-02  0.10162624554E-01  0.88958432385E+00  0.88000000000E+00 0.  1.
        -11    1    4    4    0    0 -0.95360449654E-01  0.12272552123E-01  0.20331457817E-01  0.98274412701E-01  0.51100000000E-03 0.  1.
         11    1    4    4    0    0 -0.37034131275E-01 -0.22165830433E-02 -0.19193302511E-01  0.41774203786E-01  0.51100000000E-03 0. -1.
</event>
<event>
 7    1  0.2190512E+004  0.1043930E+01  0.7957747E-01            NaN
         13   -1    0    0    0    0  0.00000000000E+00  0.00000000000E+00  0.74505805969E-08  0.10566000000E+00  0.10566000000E+00 0. -1.
     999900   -1    0    0    0    0 -0.00000000000E+00 -0.00000000000E+00 -0.74505805969E-08  0.93827000000E+00  0.93827000000E+00 0. -1.
     999903    2    1    2    0    0  0.26515762272E-01 -0.85292988877E-01 -0.63110791375E-01  0.11805743880E+00  0.44459051584E-01 0.  0.
         14    1    1    2    0    0  0.35336713157E-02 -0.29836351275E-01 -0.16545361363E-01  0.34299324672E-01  0.00000000000E+00 0.  1.
     999901    1    1    2    0    0 -0.30049433587E-01  0.11512934015E+00  0.79656152738E-01  0.89157323653E+00  0.88000000000E+00 0.  1.
        -11    1    3    3    0    0  0.16512194956E-01 -0.64017218195E-01 -0.20210048678E-01  0.69134390836E-01  0.51100000000E-03 0.  1.
         11    1    3    3    0    0  0.10003567315E-01 -0.21275770682E-01 -0.42900742698E-01  0.48923047964E-01  0.51100000000E-03 0. -1.
</event>
<event>
 8    1  0.2190512E+004  0.1043930E+01  0.7957747E-01            NaN
         13   -1    0    0    0    0  0.00000000000E+00  0.00000000000E+00  0.74505805969E-08  0.10566000000E+00  0.10566000000E+00 0.  1.
     999900   -1    0    0    0    0 -0.00000000000E+00 -0.00000000000E+00 -0.74505805969E-08  0.93827000000E+00  0.93827000000E+00 0.  1.
     999902    2    1    2    0    0 -0.44829539392E-02  0.37695634166E-02 -0.12297770754E-01  0.10303086326E+01  0.10302185869E+01 0.  0.
     999903    2    3    3    0    0 -0.85746425893E-01  0.98609909438E-01  0.26559808543E-01  0.14064107976E+00  0.44700403722E-01 0.  0.
         14    1    1    2    0    0  0.44829539392E-02 -0.37695634166E-02  0.12297770754E-01  0.13621367402E-01  0.00000000000E+00 0.  1.
     999901    1    3    3    0    0  0.81263471954E-01 -0.94840346022E-01 -0.38857579297E-01  0.88966755284E+00  0.88000000000E+00 0.  1.
        -11    1    4    4    0    0 -0.33843215109E-01  0.21643168183E-01  0.25909124776E-01  0.47805165051E-01  0.51100000000E-03 0.  1.
         11    1    4    4    0    0 -0.51903210784E-01  0.76966741255E-01  0.65068376657E-03  0.92835914707E-01  0.51100000000E-03 0. -1.
</event>
<event>
 8    1  0.2190512E+004  0.1043930E+01  0.7957747E-01            NaN
         13   -1    0    0    0    0  0.00000000000E+00  0.00000000000E+00  0.74505805969E-08  0.10566000000E+00  0.10566000000E+00 0. -1.
     999900   -1    0    0    0    0 -0.00000000000E+00 -0.00000000000E+00 -0.74505805969E-08  0.93827000000E+00  0.93827000000E+00 0.  1.
     999902    2    1    2    0    0 -0.14416628829E-02 -0.14301300101E-01 -0.87252108204E-02  0.10271152779E+01  0.10269776332E+01 0.  0.
     999903    2    3    3    0    0 -0.80550288606E-01 -0.51718611300E-01  0.87258319275E-01  0.13758109197E+00  0.46382958453E-01 0.  0.
         14    1    1    2    0    0  0.14416628829E-02  0.14301300101E-01  0.87252108204E-02  0.16814722130E-01  0.00000000000E+00 0. -1.
     999901    1    3    3    0    0  0.79108625723E-01  0.37417311199E-01 -0.95983530095E-01  0.88953418590E+00  0.88000000000E+00 0. -1.
        -11    1    4    4    0    0 -0.38582835777E-01  0.61548493992E-03  0.24460852059E-01  0.45690353936E-01  0.51100000000E-03 0. -1.
         11    1    4    4    0    0 -0.41967452829E-01 -0.52334096240E-01  0.62797467216E-01  0.91890738031E-01  0.51100000000E-03 0.  1.
</event>
<event>
 8    1  0.2190512E+004  0.1043930E+01  0.7957747E-01            NaN
         13   -1    0    0    0    0  0.00000000000E+00  0.00000000000E+00  0.74505805969E-08  0.10566000000E+00  0.10566000000E+00 0.  1.
     999900   -1    0    0    0    0 -0.00000000000E+00 -0.00000000000E+00 -0.74505805969E-08  0.93827000000E+00  0.93827000000E+00 0.  1.
     999902    2    1    2    0    0 -0.13161298971E-01  0.45087069553E-02  0.45059622769E-02  0.10293063231E+01  0.10292024363E+01 0.  0.
     999903    2    3    3    0    0  0.50738180340E-01 -0.29237793798E-01 -0.11630626987E+00  0.13811747378E+00  0.46044289792E-01 0.  0.
         14    1    1    2    0    0  0.13161298971E-01 -0.45087069553E-02 -0.45059622769E-02  0.14623676865E-01  0.00000000000E+00 0.  1.
     999901    1    3    3    0    0 -0.63899479311E-01  0.33746500753E-01  0.12081223215E+00  0.89118884935E+00  0.88000000000E+00 0. -1.
        -11    1    4    4    0    0  0.18965542104E-01 -0.35118209782E-01 -0.47105142702E-01  0.61742497808E-01  0.51100000000E-03 0. -1.
         11    1    4    4    0    0  0.31772638236E-01  0.58804159846E-02 -0.69201127171E-01  0.76374975976E-01  0.51100000000E-03 0.  1.
</event>
<event>
 8    1  0.2190512E+004  0.1043930E+01  0.7957747E-01            NaN
         13   -1    0    0    0    0  0.00000000000E+00  0.00000000000E+00  0.74505805969E-08  0.10566000000E+00  0.10566000000E+00 0. -1.
     999900   -1    0    0    0    0 -0.00000000000E+00 -0.00000000000E+00 -0.74505805969E-08  0.93827000000E+00  0.93827000000E+00 0.  1.
     999902    2    1    2    0    0 -0.89042425895E-02  0.31697065839E-02  0.10089974176E-01  0.10301046553E+01  0.10300118741E+01 0.  0.
     999903    2    3    3    0    0 -0.43926139938E-01 -0.12480512976E+00  0.11492623348E-01  0.14015743250E+00  0.44790616316E-01 0.  0.
         14    1    1    2    0    0  0.89042425895E-02 -0.31697065839E-02 -0.10089974176E-01  0.13825344654E-01  0.00000000000E+00 0.  1.
     999901    1    3    3    0    0  0.35021897348E-01  0.12797483634E+00 -0.14026491711E-02  0.88994722285E+00  0.88000000000E+00 0. -1.
        -11    1    4    4    0    0 -0.13083910744E-01 -0.25564116022E-01 -0.15701518387E-01  0.32733951014E-01  0.51100000000E-03 0. -1.
         11    1    4    4    0    0 -0.30842229194E-01 -0.99241013733E-01  0.27194141735E-01  0.10742348148E+00  0.51100000000E-03 0.  1.
</event>
<event>
 8    1  0.2190512E+004  0.1043930E+01  0.7957747E-01            NaN
         13   -1    0    0    0    0  0.00000000000E+00  0.00000000000E+00  0.74505805969E-08  0.10566000000E+00  0.10566000000E+00 0. -1.
     999900   -1    0    0    0    0 -0.00000000000E+00 -0.00000000000E+00 -0.74505805969E-08  0.93827000000E+00  0.93827000000E+00 0. -1.
     999902    2    1    2    0    0  0.12254761675E-01 -0.13211819552E-01 -0.20967394153E-01  0.10162828848E+01  0.10159067571E+01 0.  0.
     999903    2    3    3    0    0 -0.75878979425E-01  0.85267469490E-01 -0.28067840108E-01  0.12638618126E+00  0.46448921340E-01 0.  0.
         14    1    1    2    0    0 -0.12254761675E-01  0.13211819552E-01  0.20967394153E-01  0.27647115169E-01  0.00000000000E+00 0. -1.
     999901    1    3    3    0    0  0.88133741100E-01 -0.98479289043E-01  0.71004459550E-02  0.88989670357E+00  0.88000000000E+00 0.  1.
        -11    1    4    4    0    0 -0.75711077331E-01  0.80831243246E-01 -0.14009928459E-01  0.11163510349E+00  0.51100000000E-03 0. -1.
         11    1    4    4    0    0 -0.16790209408E-03  0.44362262445E-02 -0.14057911650E-01  0.14751077769E-01  0.51100000000E-03 0.  1.
</event>
<event>
 8    1  0.2190512E+004  0.1043930E+01  0.7957747E-01            NaN
         13   -1    0    0    0    0  0.00000000000E+00  0.00000000000E+00  0.74505805969E-08  0.10566000000E+00  0.10566000000E+00 0. -1.
     999900   -1    0    0    0    0 -0.00000000000E+00 -0.00000000000E+00 -0.74505805969E-08  0.93827000000E+00  0.93827000000E+00 0. -1.
     999902    2    1    2    0    0  0.21708650459E-02 -0.13530497975E-01 -0.39776656290E-02  0.10296608425E+01  0.10295619660E+01 0.  0.
     999903    2    3    3    0    0  0.57838477952E-01 -0.96560125481E-01  0.71391076044E-01  0.14080019577E+00  0.45374684853E-01 0.  0.
         14    1    1    2    0    0 -0.21708650459E-02  0.13530497975E-01  0.39776656290E-02  0.14269157451E-01  0.00000000000E+00 0. -1.
     999901    1    3    3    0    0 -0.55667612906E-01  0.83029627506E-01 -0.75368741673E-01  0.88886064678E+00  0.88000000000E+00 0. -1.
        -11    1    4    4    0    0  0.32264818938E-01 -0.35017748189E-01  0.53849727134E-01  0.71884041781E-01  0.51100000000E-03 0.  1.
         11    1    4    4    0    0  0.25573659013E-01 -0.61542377292E-01  0.17541348910E-01  0.68916153989E-01  0.51100000000E-03 0. -1.
</event>
<event>
 8    1  0.2190512E+004  0.1043930E+01  0.7957747E-01            NaN
         13   -1    0    0    0    0  0.00000000000E+00  0.00000000000E+00  0.74505805969E-08  0.10566000000E+00  0.10566000000E+00 0.  1.
     999900   -1    0    0    0    0 -0.00000000000E+00 -0.00000000000E+00 -0.74505805969E-08  0.93827000000E+00  0.93827000000E+00 0. -1.
     999902    2    1    2    0    0  0.10066018396E-01  0.83830410413E-03 -0.90542453777E-02  0.10303650879E+01  0.10302757920E+01 0.  0.
     999903    2    3    3    0    0 -0.72291359877E-01 -0.10244269146E-01 -0.11111512147E+00  0.14057748203E+00  0.45656023392E-01 0.  0.
         14    1    1    2    0    0 -0.10066018396E-01 -0.83830410413E-03  0.90542453777E-02  0.13564912070E-01  0.00000000000E+00 0.  1.
     999901    1    3    3    0    0  0.82357378272E-01  0.11082573250E-01  0.10206087609E+00  0.88978760590E+00  0.88000000000E+00 0. -1.
        -11    1    4    4    0    0 -0.48757458156E-01  0.10516673883E-01 -0.89520392967E-01  0.10247952007E+00  0.51100000000E-03 0. -1.
         11    1    4    4    0    0 -0.23533901721E-01 -0.20760943029E-01 -0.21594728500E-01  0.38097961962E-01  0.51100000000E-03 0.  1.
</event>
<event>
 8    1  0.2190512E+004  0.1043930E+01  0.7957747E-01            NaN
         13   -1    0    0    0    0  0.00000000000E+00  0.00000000000E+00  0.74505805969E-08  0.10566000000E+00  0.10566000000E+00 0. -1.
     999900   -1    0    0    0    0 -0.00000000000E+00 -0.00000000000E+00 -0.74505805969E-08  0.93827000000E+00  0.93827000000E+00 0.  1.
     999902    2    1    2    0    0  0.17462136711E-02  0.13162785042E-01 -0.15081708152E-02  0.10305665142E+01  0.10304798676E+01 0.  0.
     999903    2    3    3    0    0 -0.56140470334E-01 -0.79055015574E-01 -0.89364808363E-01  0.13951445084E+00  0.45571538527E-01 0.  0.
         14    1    1    2    0    0 -0.17462136711E-02 -0.13162785042E-01  0.15081708152E-02  0.13363485752E-01  0.00000000000E+00 0. -1.
     999901    1    3    3    0    0  0.57886684005E-01  0.92217800615E-01  0.87856637548E-01  0.89105206340E+00  0.88000000000E+00 0. -1.
        -11    1    4    4    0    0 -0.24095016888E-01 -0.29624785191E-01 -0.79290079172E-02  0.39004205209E-01  0.51100000000E-03 0.  1.
         11    1    4    4    0    0 -0.32045453446E-01 -0.49430230383E-01 -0.81435800446E-01  0.10051024563E+00  0.51100000000E-03 0. -1.
</event>
<event>
 8    1  0.2190512E+004  0.1043930E+01  0.7957747E-01            NaN
         13   -1    0    0    0    0  0.00000000000E+00  0.00000000000E+00  0.74505805969E-08  0.10566000000E+00  0.10566000000E+00 0.  1.
     999900   -1    0    0    0    0 -0.00000000000E+00 -0.00000000000E+00 -0.74505805969E-08  0.93827000000E+00  0.93827000000E+00 0.  1.
     999902    2    1    2    0    0 -0.51093008116E-02 -0.12242314593E-01 -0.55294126222E-02  0.10295580264E+01  0.10294577097E+01 0.  0.
     999903    2    3    3    0    0  0.11406322667E+00  0.63926375578E-01  0.21215355065E-02  0.13823188088E+00  0.44794539911E-01 0.  0.
         14    1    1    2    0    0  0.51093008116E-02  0.12242314593E-01  0.55294126222E-02  0.14371973606E-01  0.00000000000E+00 0.  1.
     999901    1    3    3    0    0 -0.11917252748E+00 -0.76168690171E-01 -0.76509481286E-02  0.89132614551E+00  0.88000000000E+00 0. -1.
        -11    1    4    4    0    0  0.94910826804E-01  0.45540684491E-01 -0.15436338488E-01  0.10639812336E+00  0.51100000000E-03 0.  1.
         11    1    4    4    0    0  0.19152399867E-01  0.18385691087E-01  0.17557873995E-01  0.31833757517E-01  0.51100000000E-03 0. -1.
</event>
<event>
 8    1  0.2190512E+004  0.1043930E+01  0.7957747E-01            NaN
         13   -1    0    0    0    0  0.00000000000E+00  0.00000000000E+00  0.74505805969E-08  0.10566000000E+00  0.10566000000E+00 0.  1.
     999900   -1    0    0    0    0 -0.00000000000E+00 -0.00000000000E+00 -0.74505805969E-08  0.93827000000E+00  0.93827000000E+00 0.  1.
     999902    2    1    2    0    0 -0.72979902775E-02 -0.88897451492E-02  0.91482192029E-02  0.10292338051E+01  0.10291288779E+01 0.  0.
     999903    2    3    3    0    0 -0.25774481748E-01  0.97847150014E-02 -0.12739292454E+00  0.13831652488E+00  0.46286491272E-01 0.  0.
         14    1    1    2    0    0  0.72979902775E-02  0.88897451492E-02 -0.91482192029E-02  0.14696194932E-01  0.00000000000E+00 0. -1.
     999901    1    3    3    0    0  0.18476491470E-01 -0.18674460151E-01  0.13654114375E+00  0.89091728019E+00  0.88000000000E+00 0. -1.
        -11    1    4    4    0    0 -0.39897302553E-02  0.15924639104E-01 -0.11060576606E-01  0.19801756336E-01  0.51100000000E-03 0.  1.
         11    1    4    4    0    0 -0.21784751492E-01 -0.61399241030E-02 -0.11633234794E+00  0.11851476855E+00  0.51100000000E-03 0. -1.
</event>
<event>
 8    1  0.2190512E+004  0.1043930E+01  0.7957747E-01            NaN
         13   -1    0    0    0    0  0.00000000000E+00  0.00000000000E+00  0.74505805969E-08  0.10566000000E+00  0.10566000000E+00 0.  1.
     999900   -1    0    0    0    0 -0.00000000000E+00 -0.00000000000E+00 -0.74505805969E-08  0.93827000000E+00  0.93827000000E+00 0. -1.
     999902    2    1    2    0    0  0.11486452603E-02 -0.13671075547E-01  0.18880785676E-02  0.10300814429E+01  0.10299883478E+01 0.  0.
     999903    2    3    3    0    0  0.10634825374E+00  0.77365655514E-01  0.67226817306E-02  0.13913923525E+00  0.44934803985E-01 0.  0.
         14    1    1    2    0    0 -0.11486452603E-02  0.13671075547E-01 -0.18880785676E-02  0.13848557081E-01  0.00000000000E+00 0. -1.
     999901    1    3    3    0    0 -0.10519960848E+00 -0.91036731061E-01 -0.48346031630E-02  0.89094220767E+00  0.88000000000E+00 0.  1.
        -11    1    4    4    0    0  0.54508983875E-01  0.21205928019E-01 -0.13605573031E-01  0.60052422472E-01  0.51100000000E-03 0.  1.
         11    1    4    4    0    0  0.51839269862E-01  0.56159727494E-01  0.20328254762E-01  0.79086812774E-01  0.51100000000E-03 0. -1.
</event>
<event>
 8    1  0.2190512E+004  0.1043930E+01  0.7957747E-01            NaN
         13   -1    0    0    0    0  0.00000000000E+00  0.00000000000E+00  0.74505805969E-08  0.10566000000E+00  0.10566000000E+00 0. -1.
     999900   -1    0    0    0    0 -0.00000000000E+00 -0.00000000000E+00 -0.74505805969E-08  0.93827000000E+00  0.93827000000E+00 0. -1.
     999902    2    1    2    0    0  0.77443160998E-02 -0.10498534763E-01 -0.58247304073E-02  0.10296429027E+01  0.10295437757E+01 0.  0.
     999903    2    3    3    0    0 -0.11640119736E+00  0.59001952107E-01 -0.29138073021E-02  0.13821096497E+00  0.45423688369E-01 0.  0.
         14    1    1    2    0    0 -0.77443160998E-02  0.10498534763E-01  0.58247304073E-02  0.14287097268E-01  0.00000000000E+00 0. -1.
     999901    1    3    3    0    0  0.12414551346E+00 -0.69500486870E-01 -0.29109231052E-02  0.89143193776E+00  0.88000000000E+00 0.  1.
        -11    1    4    4    0    0 -0.82456352006E-01  0.34661193556E-01 -0.22260911008E-01  0.92175146351E-01  0.51100000000E-03 0. -1.
         11    1    4    4    0    0 -0.33944845358E-01  0.24340758551E-01  0.19347103706E-01  0.46035818620E-01  0.51100000000E-03 0.  1.
</event>
<event>
 8    1  0.2190512E+004  0.1043930E+01  0.7957747E-01            NaN
         13   -1    0    0    0    0  0.00000000000E+00  0.00000000000E+00  0.74505805969E-08  0.10566000000E+00  0.10566000000E+00 0. -1.
     999900   -1    0    0    0    0 -0.00000000000E+00 -0.00000000000E+00 -0.74505805969E-08  0.93827000000E+00  0.93827000000E+00 0.  1.
     999902    2    1    2    0    0  0.65100457546E-03  0.19065209977E-02  0.14080580988E-01  0.10297060276E+01  0.10296077806E+01 0.  0.
     999903    2    3    3    0    0 -0.59169748948E-01  0.15558847358E-01 -0.11424151139E+00  0.13828498908E+00  0.48254309205E-01 0.  0.
         14    1    1    2    0    0 -0.65100457546E-03 -0.19065209977E-02 -0.14080580988E-01  0.14223972378E-01  0.00000000000E+00 0.  1.
     999901    1    3    3    0    0  0.59820753524E-01 -0.13652326360E-01  0.12832209238E+00  0.89142103854E+00  0.88000000000E+00 0. -1.
        -11    1    4    4    0    0 -0.55070194928E-02  0.22013077608E-01 -0.23546774168E-01  0.32704962073E-01  0.51100000000E-03 0. -1.
         11    1    4    4    0    0 -0.53662729456E-01 -0.64542302506E-02 -0.90694737226E-01  0.10558002700E+00  0.51100000000E-03 0.  1.
</event>
<event>
 8    1  0.2190512E+004  0.1043930E+01  0.7957747E-01            NaN
         13   -1    0    0    0    0  0.00000000000E+00  0.00000000000E+00  0.74505805969E-08  0.10566000000E+00  0.10566000000E+00 0. -1.
     999900   -1    0    0    0    0 -0.00000000000E+00 -0.00000000000E+00 -0.74505805969E-08  0.93827000000E+00  0.93827000000E+00 0.  1.
     999902    2    1    2    0    0  0.35159817247E-02 -0.12080471943E-01  0.67233771142E-02  0.10296645267E+01  0.10295657015E+01 0.  0.
     999903    2    3    3    0    0 -0.93024735402E-01  0.77024097494E-01  0.52040722248E-01  0.13875858542E+00  0.44265056930E-01 0.  0.
         14    1    1    2    0    0 -0.35159817247E-02  0.12080471943E-01 -0.67233771142E-02  0.14265473342E-01  0.00000000000E+00 0.  1.
     999901    1    3    3    0    0  0.96540717127E-01 -0.89104569437E-01 -0.45317345134E-01  0.89090594124E+00  0.88000000000E+00 0.  1.
        -11    1    4    4    0    0 -0.58479260600E-01  0.71023417174E-01  0.27733990537E-01  0.96091545203E-01  0.51100000000E-03 0.  1.
         11    1    4    4    0    0 -0.34545474803E-01  0.60006803195E-02  0.24306731711E-01  0.42667040219E-01  0.51100000000E-03 0. -1.
</event>
<event>
 8    1  0.2190512E+004  0.1043930E+01  0.7957747E-01            NaN
         13   -1    0    0    0    0  0.00000000000E+00  0.00000000000E+00  0.74505805969E-08  0.10566000000E+00  0.10566000000E+00 0. -1.
     999900   -1    0    0    0    0 -0.00000000000E+00 -0.00000000000E+00 -0.74505805969E-08  0.93827000000E+00  0.93827000000E+00 0.  1.
     999902    2    1    2    0    0 -0.10101517073E-01  0.79459432426E-02 -0.69476511864E-03  0.10310590498E+01  0.10309787111E+01 0.  0.
     999903    2    3    3    0    0  0.10113038503E-01  0.37280759310E-01  0.12794699072E+00  0.14099283817E+00  0.44904558985E-01 0.  0.
         14    1    1    2    0    0  0.10101517073E-01 -0.79459432426E-02  0.69476511864E-03  0.12870950228E-01  0.00000000000E+00 0.  1.
     999901    1    3    3    0    0 -0.20214555576E-01 -0.29334816068E-01 -0.12864175584E+00  0.89006621160E+00  0.88000000000E+00 0.  1.
        -11    1    4    4    0    0  0.19412079860E-01  0.89008009897E-03  0.63379386189E-01  0.66293504975E-01  0.51100000000E-03 0. -1.
         11    1    4    4    0    0 -0.92990413568E-02  0.36390679211E-01  0.64567604533E-01  0.74699333195E-01  0.51100000000E-03 0.  1.
</event>
<event>
 8    1  0.2190512E+004  0.1043930E+01  0.7957747E-01            NaN
         13   -1    0    0    0    0  0.00000000000E+00  0.00000000000E+00  0.74505805969E-08  0.10566000000E+00  0.10566000000E+00 0. -1.
     999900   -1    0    0    0    0 -0.00000000000E+00 -0.00000000000E+00 -0.74505805969E-08  0.93827000000E+00  0.93827000000E+00 0.  1.
     999902    2    1    2    0    0 -0.13958066530E-01 -0.19104836083E-01 -0.59432910247E-02  0.10195344043E+01  0.10192424915E+01 0.  0.
     999903    2    3    3    0    0  0.19727765818E-01 -0.47999835716E-01  0.11115123803E+00  0.13066951856E+00  0.45019511233E-01 0.  0.
         14    1    1    2    0    0  0.13958066530E-01  0.19104836083E-01  0.59432910247E-02  0.24395595734E-01  0.00000000000E+00 0.  1.
     999901    1    3    3    0    0 -0.33685832348E-01  0.28894999633E-01 -0.11709452906E+00  0.88886488571E+00  0.88000000000E+00 0.  1.
        -11    1    4    4    0    0  0.27079910594E-01 -0.44848663733E-01  0.63384252673E-01  0.82234717756E-01  0.51100000000E-03 0. -1.
         11    1    4    4    0    0 -0.73521447764E-02 -0.31511719833E-02  0.47766985360E-01  0.48434800805E-01  0.51100000000E-03 0.  1.
</event>
<event>
 8    1  0.2190512E+004  0.1043930E+01  0.7957747E-01            NaN
         13   -1    0    0    0    0  0.00000000000E+00  0.00000000000E+00  0.74505805969E-08  0.10566000000E+00  0.10566000000E+00 0.  1.
     999900   -1    0    0    0    0 -0.00000000000E+00 -0.00000000000E+00 -0.74505805969E-08  0.93827000000E+00  0.93827000000E+00 0.  1.
     999902    2    1    2    0    0 -0.98286881282E-02  0.34905394799E-02  0.93713161963E-02  0.10299082831E+01  0.10298128292E+01 0.  0.
     999903    2    3    3    0    0 -0.15093927903E-01  0.13233177203E+00  0.19827536281E-02  0.14048016531E+00  0.44623099225E-01 0.  0.
         14    1    1    2    0    0  0.98286881282E-02 -0.34905394799E-02 -0.93713161963E-02  0.14021716850E-01  0.00000000000E+00 0. -1.
     999901    1    3    3    0    0  0.52652397745E-02 -0.12884123255E+00  0.73885625682E-02  0.88942811784E+00  0.88000000000E+00 0. -1.
        -11    1    4    4    0    0 -0.19086607809E-01  0.57821180501E-01  0.19300569623E-01  0.63877700499E-01  0.51100000000E-03 0.  1.
         11    1    4    4    0    0  0.39926799062E-02  0.74510591528E-01 -0.17317815995E-01  0.76602464807E-01  0.51100000000E-03 0. -1.
</event>
<event>
 8    1  0.2190512E+004  0.1043930E+01  0.7957747E-01            NaN
         13   -1    0    0    0    0  0.00000000000E+00  0.00000000000E+00  0.74505805969E-08  0.10566000000E+00  0.10566000000E+00 0. -1.
     999900   -1    0    0    0    0 -0.00000000000E+00 -0.00000000000E+00 -0.74505805969E-08  0.93827000000E+00  0.93827000000E+00 0.  1.
     999902    2    1    2    0    0  0.15362193903E-02  0.52503950695E-02 -0.16975882186E-01  0.10260944402E+01  0.10259394197E+01 0.  0.
     999903    2    3    3    0    0 -0.16418512302E-01  0.11437727737E+00  0.56204182200E-01  0.13615827917E+00  0.45038181196E-01 0.  0.
         14    1    1    2    0    0 -0.15362193903E-02 -0.52503950695E-02  0.16975882186E-01  0.17835559828E-01  0.00000000000E+00 0. -1.
     999901    1    3    3    0    0  0.17954731692E-01 -0.10912688230E+00 -0.73180064386E-01  0.88993616100E+00  0.88000000000E+00 0.  1.
        -11    1    4    4    0    0  0.26888828600E-02  0.54479947778E-01  0.44605600840E-02  0.54730727367E-01  0.51100000000E-03 0.  1.
         11    1    4    4    0    0 -0.19107395162E-01  0.59897329593E-01  0.51743622116E-01  0.81427551805E-01  0.51100000000E-03 0. -1.
</event>
<event>
 8    1  0.2190512E+004  0.1043930E+01  0.7957747E-01            NaN
         13   -1    0    0    0    0  0.00000000000E+00  0.00000000000E+00  0.74505805969E-08  0.10566000000E+00  0.10566000000E+00 0.  1.
     999900   -1    0    0    0    0 -0.00000000000E+00 -0.00000000000E+00 -0.74505805969E-08  0.93827000000E+00  0.93827000000E+00 0.  1.
     999902    2    1    2    0    0  0.12706759695E-01 -0.41410144781E-02 -0.30497356544E-02  0.10302219502E+01  0.10301307470E+01 0.  0.
     999903    2    3    3    0    0  0.93972376405E-01 -0.85665381559E-01 -0.44256627058E-01  0.14176917663E+00  0.44390148457E-01 0.  0.
         14    1    1    2    0    0 -0.12706759695E-01  0.41410144781E-02  0.30497356544E-02  0.13708049840E-01  0.00000000000E+00 0.  1.
     999901    1    3    3    0    0 -0.81265616710E-01  0.81524367081E-01  0.41206891403E-01  0.88845277353E+00  0.88000000000E+00 0.  1.
        -11    1    4    4    0    0  0.39709548454E-01 -0.62956102687E-01 -0.34876279648E-01  0.82200578508E-01  0.51100000000E-03 0.  1.
         11    1    4    4    0    0  0.54262827951E-01 -0.22709278872E-01 -0.93803474095E-02  0.59568598126E-01  0.51100000000E-03 0. -1.
</event>
<event>
 8    1  0.2190512E+004  0.1043930E+01  0.7957747E-01            NaN
         13   -1    0    0    0    0  0.00000000000E+00  0.00000000000E+00  0.74505805969E-08  0.10566000000E+00  0.10566000000E+00 0. -1.
     999900   -1    0    0    0    0 -0.00000000000E+00 -0.00000000000E+00 -0.74505805969E-08  0.93827000000E+00  0.93827000000E+00 0. -1.
     999902    2    1    2    0    0 -0.12078208753E-01 -0.83535818471E-02  0.30533957835E-02  0.10289303773E+01  0.10288210401E+01 0.  0.
     999903    2    3    3    0    0  0.10744553643E+00  0.25027761179E-01 -0.66458298946E-01  0.13750897555E+00  0.48177595732E-01 0.  0.
         14    1    1    2    0    0  0.12078208753E-01  0.83535818471E-02 -0.30533957835E-02  0.14999622734E-01  0.00000000000E+00 0.  1.
     999901    1    3    3    0    0 -0.11952374518E+00 -0.33381343026E-01  0.69511694729E-01  0.89142140171E+00  0.88000000000E+00 0.  1.
        -11    1    4    4    0    0  0.77695959939E-01  0.12137758757E-01 -0.20509064961E-01  0.81270352805E-01  0.51100000000E-03 0. -1.
         11    1    4    4    0    0  0.29749576492E-01  0.12890002423E-01 -0.45949233985E-01  0.56238622749E-01  0.51100000000E-03 0.  1.
</event>
<event>
 8    1  0.2190512E+004  0.1043930E+01  0.7957747E-01            NaN
         13   -1    0    0    0    0  0.00000000000E+00  0.00000000000E+00  0.74505805969E-08  0.10566000000E+00  0.10566000000E+00 0. -1.
     999900   -1    0    0    0    0 -0.00000000000E+00 -0.00000000000E+00 -0.74505805969E-08  0.93827000000E+00  0.93827000000E+00 0. -1.
     999902    2    1    2    0    0  0.13148147033E-01 -0.55568723575E-02 -0.12683241693E-02  0.10295995692E+01  0.10294998357E+01 0.  0.
     999903    2    3    3    0    0 -0.85160396257E-01 -0.56754637678E-01 -0.82206622718E-01  0.13896115265E+00  0.45594858685E-01 0.  0.
         14    1    1    2    0    0 -0.13148147033E-01  0.55568723575E-02  0.12683241693E-02  0.14330430802E-01  0.00000000000E+00 0.  1.
     999901    1    3    3    0    0  0.98308543290E-01  0.51197765320E-01  0.80938298549E-01  0.89063841655E+00  0.88000000000E+00 0.  1.
        -11    1    4    4    0    0 -0.72745862918E-01 -0.62663160917E-01 -0.61236955748E-01  0.11388089470E+00  0.51100000000E-03 0.  1.
         11    1    4    4    0    0 -0.12414533340E-01  0.59085232398E-02 -0.20969666971E-01  0.25080257949E-01  0.51100000000E-03 0. -1.
</event>
<event>
 8    1  0.2190512E+004  0.1043930E+01  0.7957747E-01            NaN
         13   -1    0    0    0    0  0.00000000000E+00  0.00000000000E+00  0.74505805969E-08  0.10566000000E+00  0.10566000000E+00 0. -1.
     999900   -1    0    0    0    0 -0.00000000000E+00 -0.00000000000E+00 -0.74505805969E-08  0.93827000000E+00  0.93827000000E+00 0. -1.
     999902    2    1    2    0    0 -0.80186727097E-02 -0.10684948061E-01  0.42576325877E-02  0.10299087781E+01  0.10298133310E+01 0.  0.
     999903    2    3    3    0    0 -0.48522039799E-01 -0.59950419892E-01 -0.10958686725E+00  0.14028628539E+00  0.41503243295E-01 0.  0.
         14    1    1    2    0    0  0.80186727097E-02  0.10684948061E-01 -0.42576325877E-02  0.14021221856E-01  0.00000000000E+00 0.  1.
     999901    1    3    3    0    0  0.40503367089E-01  0.49265471831E-01  0.11384449984E+00  0.88962249275E+00  0.88000000000E+00 0.  1.
        -11    1    4    4    0    0 -0.48034602318E-01 -0.31166376231E-01 -0.59950763256E-01  0.82903686066E-01  0.51100000000E-03 0.  1.
         11    1    4    4    0    0 -0.48743748062E-03 -0.28784043661E-01 -0.49636103997E-01  0.57382599329E-01  0.51100000000E-03 0. -1.
</event>
<event>
 8    1  0.2190512E+004  0.1043930E+01  0.7957747E-01            NaN
         13   -1    0    0    0    0  0.00000000000E+00  0.00000000000E+00  0.74505805969E-08  0.10566000000E+00  0.10566000000E+00 0.  1.
     999900   -1    0    0    0    0 -0.00000000000E+00 -0.00000000000E+00 -0.74505805969E-08  0.93827000000E+00  0.93827000000E+00 0. -1.
     999902    2    1    2    0    0 -0.39284158112E-02 -0.13990157937E-01  0.81125507449E-02  0.10272875708E+01  0.10271527553E+01 0.  0.
     999903    2    3    3    0    0  0.12593616936E+00 -0.23774901510E-02 -0.29864459608E-01  0.13687086058E+00  0.44454193442E-01 0.  0.
         14    1    1    2    0    0  0.39284158112E-02  0.13990157937E-01 -0.81125507449E-02  0.16642429194E-01  0.00000000000E+00 0. -1.
     999901    1    3    3    0    0 -0.12986458518E+00 -0.11612667786E-01  0.37977010353E-01  0.89041671023E+00  0.88000000000E+00 0.  1.
        -11    1    4    4    0    0  0.42593607761E-01 -0.11974512514E-01  0.77641849792E-02  0.44923802838E-01  0.51100000000E-03 0. -1.
         11    1    4    4    0    0  0.83342561603E-01  0.95970223635E-02 -0.37628644588E-01  0.91947057741E-01  0.51100000000E-03 0.  1.
</event>
<event>
 8    1  0.2190512E+004  0.1043930E+01  0.7957747E-01            NaN
         13   -1    0    0    0    0  0.00000000000E+00  0.00000000000E+00  0.74505805969E-08  0.10566000000E+00  0.10566000000E+00 0.  1.
     999900   -1    0    0    0    0 -0.00000000000E+00 -0.00000000000E+00 -0.74505805969E-08  0.93827000000E+00  0.93827000000E+00 0.  1.
     999902    2    1    2    0    0 -0.11701964137E-02 -0.12856454766E-01  0.32511042032E-03  0.10310163063E+01  0.10309354298E+01 0.  0.
     999903    2    3    3    0    0 -0.44215231464E-01  0.11089126658E+00  0.55692422764E-01  0.13959501819E+00  0.46187265049E-01 0.  0.
         14    1    1    2    0    0  0.11701964137E-02  0.12856454766E-01 -0.32511042032E-03  0.12913693723E-01  0.00000000000E+00 0.  1.
     999901    1    3    3    0    0  0.43045035050E-01 -0.12374772135E+00 -0.55367312344E-01  0.89142128809E+00  0.88000000000E+00 0.  1.
        -11    1    4    4    0    0 -0.18026918763E-01  0.23510492150E-01 -0.49692808006E-02  0.30044432328E-01  0.51100000000E-03 0.  1.
         11    1    4    4    0    0 -0.26188312700E-01  0.87380774429E-01  0.60661703565E-01  0.10955058586E+00  0.51100000000E-03 0. -1.
</event>
<event>
 8    1  0.2190512E+004  0.1043930E+01  0.7957747E-01            NaN
         13   -1    0    0    0    0  0.00000000000E+00  0.00000000000E+00  0.74505805969E-08  0.10566000000E+00  0.10566000000E+00 0.  1.
     999900   -1    0    0    0    0 -0.00000000000E+00 -0.00000000000E+00 -0.74505805969E-08  0.93827000000E+00  0.93827000000E+00 0. -1.
     999902    2    1    2    0    0 -0.37322163072E-02  0.11776306489E-01 -0.61745254169E-02  0.10301192941E+01  0.10300267106E+01 0.  0.
     999903    2    3    3    0    0 -0.20159947193E-01 -0.12935283508E+00 -0.13197910454E-01  0.13869535855E+00  0.43859300376E-01 0.  0.
         14    1    1    2    0    0  0.37322163072E-02 -0.11776306489E-01  0.61745254169E-02  0.13810705891E-01  0.00000000000E+00 0. -1.
     999901    1    3    3    0    0  0.16427730886E-01  0.14112914157E+00  0.70233850367E-02  0.89142393555E+00  0.88000000000E+00 0. -1.
        -11    1    4    4    0    0 -0.25267294436E-02 -0.88889201513E-01  0.88275463183E-02  0.89363645865E-01  0.51100000000E-03 0.  1.
         11    1    4    4    0    0 -0.17633217749E-01 -0.40463633569E-01 -0.22025456772E-01  0.49331712689E-01  0.51100000000E-03 0. -1.
</event>
<event>
 8    1  0.2190512E+004  0.1043930E+01  0.7957747E-01            NaN
         13   -1    0    0    0    0  0.00000000000E+00  0.00000000000E+00  0.74505805969E-08  0.10566000000E+00  0.10566000000E+00 0. -1.
     999900   -1    0    0    0    0 -0.00000000000E+00 -0.00000000000E+00 -0.74505805969E-08  0.93827000000E+00  0.93827000000E+00 0.  1.
     999902    2    1    2    0    0  0.35400823026E-02  0.35673312452E-02 -0.13850273059E-01  0.10291960902E+01  0.10290906199E+01 0.  0.
     999903    2    3    3    0    0 -0.22672934251E-01 -0.22393335146E-01 -0.12942055790E+00  0.14087319327E+00  0.45607591118E-01 0.  0.
         14    1    1    2    0    0 -0.35400823026E-02 -0.35673312452E-02  0.13850273059E-01  0.14733909825E-01  0.00000000000E+00 0. -1.
     999901    1    3    3    0    0  0.26213016554E-01  0.25960666392E-01  0.11557028484E+00  0.88832289691E+00  0.88000000000E+00 0. -1.
        -11    1    4    4    0    0 -0.36388287562E-01 -0.19735718692E-01 -0.10236108713E+00  0.11041584734E+00  0.51100000000E-03 0.  1.
         11    1    4    4    0    0  0.13715353311E-01 -0.26576164544E-02 -0.27059470766E-01  0.30457345926E-01  0.51100000000E-03 0. -1.
</event>
<event>
 8    1  0.2190512E+004  0.1043930E+01  0.7957747E-01            NaN
         13   -1    0    0    0    0  0.00000000000E+00  0.00000000000E+00  0.74505805969E-08  0.10566000000E+00  0.10566000000E+00 0.  1.
     999900   -1    0    0    0    0 -0.00000000000E+00 -0.00000000000E+00 -0.74505805969E-08  0.93827000000E+00  0.93827000000E+00 0.  1.
     999902    2    1    2    0    0 -0.13590295602E-01 -0.19751078494E-02 -0.28210043581E-02  0.10299101836E+01  0.10298147557E+01 0.  0.
     999903    2    3    3    0    0  0.11523006420E+00 -0.27532089552E-01  0.54484100903E-01  0.13832074924E+00  0.46131646079E-01 0.  0.
         14    1    1    2    0    0  0.13590295602E-01  0.19751078494E-02  0.28210043581E-02  0.14019816373E-01  0.00000000000E+00 0. -1.
     999901    1    3    3    0    0 -0.12882035980E+00  0.25556981703E-01 -0.57305105261E-01  0.89158943438E+00  0.88000000000E+00 0.  1.
        -11    1    4    4    0    0  0.72934433704E-01 -0.16876015131E-01  0.91691339078E-02  0.75422580465E-01  0.51100000000E-03 0. -1.
         11    1    4    4    0    0  0.42295630495E-01 -0.10656074421E-01  0.45314966995E-01  0.62898168780E-01  0.51100000000E-03 0.  1.
</event>
<event>
 8    1  0.2190512E+004  0.1043930E+01  0.7957747E-01            NaN
         13   -1    0    0    0    0  0.00000000000E+00  0.00000000000E+00  0.74505805969E-08  0.10566000000E+00  0.10566000000E+00 0.  1.
     999900   -1    0    0    0    0 -0.00000000000E+00 -0.00000000000E+00 -0.74505805969E-08  0.93827000000E+00  0.93827000000E+00 0. -1.
     999902    2    1    2    0    0 -0.13451203034E-01  0.12280395212E-01  0.52553331460E-02  0.10249731676E+01  0.10247978497E+01 0.  0.
     999903    2    3    3    0    0  0.35528591842E-01 -0.11837575959E+00 -0.23148949788E-01  0.13352667204E+00  0.44926573128E-01 0.  0.
         14    1    1    2    0    0  0.13451203034E-01 -0.12280395212E-01 -0.52553331460E-02  0.18956832439E-01  0.00000000000E+00 0. -1.
     999901    1    3    3    0    0 -0.48979794876E-01  0.13065615480E+00  0.28404282934E-01  0.89144649552E+00  0.88000000000E+00 0. -1.
        -11    1    4    4    0    0  0.40126960506E-01 -0.64930997356E-01 -0.35496762016E-02  0.76413799142E-01  0.51100000000E-03 0. -1.
         11    1    4    4    0    0 -0.45983686640E-02 -0.53444762231E-01 -0.19599273586E-01  0.57112872896E-01  0.51100000000E-03 0.  1.
</event>
<event>
 8    1  0.2190512E+004  0.1043930E+01  0.7957747E-01            NaN
         13   -1    0    0    0    0  0.00000000000E+00  0.00000000000E+00  0.74505805969E-08  0.10566000000E+00  0.10566000000E+00 0. -1.
     999900   -1    0    0    0    0 -0.00000000000E+00 -0.00000000000E+00 -0.74505805969E-08  0.93827000000E+00  0.93827000000E+00 0.  1.
     999902    2    1    2    0    0  0.91204561680E-02 -0.25814441179E-02  0.11368183618E-02  0.10343833288E+01  0.10343392732E+01 0.  0.
     999903    2    3    3    0    0  0.53396652845E-01 -0.44746176946E-01 -0.11784035598E+00  0.14427445105E+00  0.45555952884E-01 0.  0.
         14    1    1    2    0    0 -0.91204561680E-02  0.25814441179E-02 -0.11368183618E-02  0.95466711704E-02  0.00000000000E+00 0.  1.
     999901    1    3    3    0    0 -0.44276196677E-01  0.42164732828E-01  0.11897717434E+00  0.89010887778E+00  0.88000000000E+00 0. -1.
        -11    1    4    4    0    0  0.20717660820E-02 -0.77928943792E-02 -0.53308465289E-01  0.53917297874E-01  0.51100000000E-03 0.  1.
         11    1    4    4    0    0  0.51324886763E-01 -0.36953282567E-01 -0.64531890687E-01  0.90357153177E-01  0.51100000000E-03 0. -1.
</event>
<event>
 8    1  0.2190512E+004  0.1043930E+01  0.7957747E-01            NaN
         13   -1    0    0    0    0  0.00000000000E+00  0.00000000000E+00  0.74505805969E-08  0.10566000000E+00  0.10566000000E+00 0.  1.
     999900   -1    0    0    0    0 -0.00000000000E+00 -0.00000000000E+00 -0.74505805969E-08  0.93827000000E+00  0.93827000000E+00 0. -1.
     999902    2    1    2    0    0 -0.10878502303E-02  0.15702321569E-02  0.13309572257E-01  0.10304840430E+01  0.10303963165E+01 0.  0.
     999903    2    3    3    0    0 -0.12377938497E+00 -0.12542498127E-02 -0.46811257131E-01  0.13993606305E+00  0.45474153779E-01 0.  0.
         14    1    1    2    0    0  0.10878502303E-02 -0.15702321569E-02 -0.13309572257E-01  0.13445957044E-01  0.00000000000E+00 0. -1.
     999901    1    3    3    0    0  0.12269153474E+00  0.28244819696E-02  0.60120829388E-01  0.89054797991E+00  0.88000000000E+00 0.  1.
        -11    1    4    4    0    0 -0.51407585686E-01  0.21456919978E-01 -0.15079984354E-01  0.57713138280E-01  0.51100000000E-03 0.  1.
         11    1    4    4    0    0 -0.72371799280E-01 -0.22711169790E-01 -0.31731272777E-01  0.82222924767E-01  0.51100000000E-03 0. -1.
</event>
<event>
 8    1  0.2190512E+004  0.1043930E+01  0.7957747E-01            NaN
         13   -1    0    0    0    0  0.00000000000E+00  0.00000000000E+00  0.74505805969E-08  0.10566000000E+00  0.10566000000E+00 0. -1.
     999900   -1    0    0    0    0 -0.00000000000E+00 -0.00000000000E+00 -0.74505805969E-08  0.93827000000E+00  0.93827000000E+00 0.  1.
     999902    2    1    2    0    0  0.75144067710E-02  0.99827505523E-02 -0.12613946367E-01  0.10261751905E+01  0.10260215828E+01 0.  0.
     999903    2    3    3    0    0  0.10883615809E-01 -0.12039557052E+00  0.40261685441E-01  0.13499300339E+00  0.44593285987E-01 0.  0.
         14    1    1    2    0    0 -0.75144067710E-02 -0.99827505523E-02  0.12613946367E-01  0.17754809508E-01  0.00000000000E+00 0. -1.
     999901    1    3    3    0    0 -0.33692090377E-02  0.13037832107E+00 -0.52875631808E-01  0.89118218711E+00  0.88000000000E+00 0.  1.
        -11    1    4    4    0    0 -0.75457216503E-02 -0.51778477058E-01  0.36581893076E-01  0.63847040837E-01  0.51100000000E-03 0. -1.
         11    1    4    4    0    0  0.18429337459E-01 -0.68617093462E-01  0.36797923654E-02  0.71145962550E-01  0.51100000000E-03 0.  1.
</event>
<event>
 8    1  0.2190512E+004  0.1043930E+01  0.7957747E-01            NaN
         13   -1    0    0    0    0  0.00000000000E+00  0.00000000000E+00  0.74505805969E-08  0.10566000000E+00  0.10566000000E+00 0.  1.
     999900   -1    0    0    0    0 -0.00000000000E+00 -0.00000000000E+00 -0.74505805969E-08  0.93827000000E+00  0.93827000000E+00 0.  1.
     999902    2    1    2    0    0  0.23789810382E-02 -0.78068453673E-02  0.10689626505E-01  0.10304810409E+01  0.10303932750E+01 0.  0.
     999903    2    3    3    0    0 -0.92494519856E-02  0.12698142760E+00  0.36302665317E-01  0.13977394724E+00  0.44822288005E-01 0.  0.
         14    1    1    2    0    0 -0.23789810382E-02  0.78068453673E-02 -0.10689626505E-01  0.13448959075E-01  0.00000000000E+00 0. -1.
     999901    1    3    3    0    0  0.11628433024E-01 -0.13478827296E+00 -0.25613038812E-01  0.89070709368E+00  0.88000000000E+00 0.  1.
        -11    1    4    4    0    0  0.11587241004E-01  0.10346143216E-01  0.97647521325E-02  0.18355335430E-01  0.51100000000E-03 0. -1.
         11    1    4    4    0    0 -0.20836692990E-01  0.11663528438E+00  0.26537913184E-01  0.12141861181E+00  0.51100000000E-03 0.  1.
</event>
<event>
 8    1  0.2190512E+004  0.1043930E+01  0.7957747E-01            NaN
         13   -1    0    0    0    0  0.00000000000E+00  0.00000000000E+00  0.74505805969E-08  0.10566000000E+00  0.10566000000E+00 0.  1.
     999900   -1    0    0    0    0 -0.00000000000E+00 -0.00000000000E+00 -0.74505805969E-08  0.93827000000E+00  0.93827000000E+00 0.  1.
     999902    2    1    2    0    0 -0.44146941623E-02 -0.62416209789E-02 -0.10334206061E-01  0.10310753055E+01  0.10309951709E+01 0.  0.
     999903    2    3    3    0    0 -0.45694774769E-01  0.92128952658E-01 -0.85643455988E-01  0.14143925743E+00  0.45765769200E-01 0.  0.
         14    1    1    2    0    0  0.44146941623E-02  0.62416209789E-02  0.10334206061E-01  0.12854694547E-01  0.00000000000E+00 0.  1.
     999901    1    3    3    0    0  0.41280080607E-01 -0.98370573637E-01  0.75309249927E-01  0.88963604802E+00  0.88000000000E+00 0.  1.
        -11    1    4    4    0    0 -0.13706771066E-01  0.41017309537E-01 -0.64265072594E-01  0.77463255361E-01  0.51100000000E-03 0. -1.
         11    1    4    4    0    0 -0.31988003704E-01  0.51111643121E-01 -0.21378383394E-01  0.63976002072E-01  0.51100000000E-03 0.  1.
</event>
<event>
 8    1  0.2190512E+004  0.1043930E+01  0.7957747E-01            NaN
         13   -1    0    0    0    0  0.00000000000E+00  0.00000000000E+00  0.74505805969E-08  0.10566000000E+00  0.10566000000E+00 0. -1.
     999900   -1    0    0    0    0 -0.00000000000E+00 -0.00000000000E+00 -0.74505805969E-08  0.93827000000E+00  0.93827000000E+00 0.  1.
     999902    2    1    2    0    0 -0.80059778351E-02 -0.62946718126E-03 -0.11451797685E-01  0.10299430210E+01  0.10298480427E+01 0.  0.
     999903    2    3    3    0    0 -0.41218507590E-01  0.48368326114E-01 -0.11678591189E+00  0.14168679028E+00  0.48966692616E-01 0.  0.
         14    1    1    2    0    0  0.80059778351E-02  0.62946718126E-03  0.11451797685E-01  0.13986978953E-01  0.00000000000E+00 0. -1.
     999901    1    3    3    0    0  0.33212529755E-01 -0.48997793295E-01  0.10533411420E+00  0.88825623077E+00  0.88000000000E+00 0. -1.
        -11    1    4    4    0    0 -0.20035906242E-01  0.34861536542E-01 -0.26962440011E-01  0.48414858890E-01  0.51100000000E-03 0. -1.
         11    1    4    4    0    0 -0.21182601348E-01  0.13506789571E-01 -0.89823471876E-01  0.93271931390E-01  0.51100000000E-03 0.  1.
</event>
<event>
 8    1  0.2190512E+004  0.1043930E+01  0.7957747E-01            NaN
         13   -1    0    0    0    0  0.00000000000E+00  0.00000000000E+00  0.74505805969E-08  0.10566000000E+00  0.10566000000E+00 0.  1.
     999900   -1    0    0    0    0 -0.00000000000E+00 -0.00000000000E+00 -0.74505805969E-08  0.93827000000E+00  0.93827000000E+00 0. -1.
     999902    2    1    2    0    0 -0.96434462094E-02 -0.30243851517E-02  0.72866320449E-02  0.10314705471E+01  0.10313952935E+01 0.  0.
     999903    2    3    3    0    0  0.57776380261E-02  0.76236903713E-01 -0.10822172179E+00  0.14025657639E+00  0.45983905494E-01 0.  0.
         14    1    1    2    0    0  0.96434462094E-02  0.30243851517E-02 -0.72866320449E-02  0.12459452913E-01  0.00000000000E+00 0. -1.
     999901    1    3    3    0    0 -0.15421084236E-01 -0.79261288865E-01  0.11550835384E+00  0.89121397069E+00  0.88000000000E+00 0.  1.
        -11    1    4    4    0    0  0.21561598115E-01  0.27715337917E-01 -0.62750464011E-01  0.71909139362E-01  0.51100000000E-03 0.  1.
         11    1    4    4    0    0 -0.15783960089E-01  0.48521565796E-01 -0.45471257784E-01  0.68347437032E-01  0.51100000000E-03 0. -1.
</event>
<event>
 8    1  0.2190512E+004  0.1043930E+01  0.7957747E-01            NaN
         13   -1    0    0    0    0  0.00000000000E+00  0.00000000000E+00  0.74505805969E-08  0.10566000000E+00  0.10566000000E+00 0. -1.
     999900   -1    0    0    0    0 -0.00000000000E+00 -0.00000000000E+00 -0.74505805969E-08  0.93827000000E+00  0.93827000000E+00 0.  1.
     999902    2    1    2    0    0 -0.17953280893E-02  0.82047187386E-02  0.10241655349E-01  0.10306849210E+01  0.10305998129E+01 0.  0.
     999903    2    3    3    0    0  0.10613271939E+00 -0.78744918997E-01 -0.65695673785E-06  0.13977886095E+00  0.45532555103E-01 0.  0.
         14    1    1    2    0    0  0.17953280893E-02 -0.82047187386E-02 -0.10241655349E-01  0.13245078966E-01  0.00000000000E+00 0. -1.
     999901    1    3    3    0    0 -0.10792804748E+00  0.86949637735E-01  0.10242312305E-01  0.89090606009E+00  0.88000000000E+00 0. -1.
        -11    1    4    4    0    0  0.35634596380E-01 -0.92782829730E-02  0.14829447140E-01  0.39699932211E-01  0.51100000000E-03 0. -1.
         11    1    4    4    0    0  0.70498123013E-01 -0.69466636024E-01 -0.14830104097E-01  0.10007892874E+00  0.51100000000E-03 0.  1.
</event>
<event>
 8    1  0.2190512E+004  0.1043930E+01  0.7957747E-01            NaN
         13   -1    0    0    0    0  0.00000000000E+00  0.00000000000E+00  0.74505805969E-08  0.10566000000E+00  0.10566000000E+00 0. -1.
     999900   -1    0    0    0    0 -0.00000000000E+00 -0.00000000000E+00 -0.74505805969E-08  0.93827000000E+00  0.93827000000E+00 0. -1.
     999902    2    1    2    0    0 -0.94750493570E-02 -0.79915738984E-02 -0.45488011479E-02  0.10307264624E+01  0.10306418907E+01 0.  0.
     999903    2    3    3    0    0  0.10042663521E+00 -0.32552255665E-01  0.77833273644E-01  0.13973352548E+00  0.48190053437E-01 0.  0.
         14    1    1    2    0    0  0.94750493570E-02  0.79915738984E-02  0.45488011479E-02  0.13203537616E-01  0.00000000000E+00 0.  1.
     999901    1    3    3    0    0 -0.10990168456E+00  0.24560681767E-01 -0.82382074792E-01  0.89099293690E+00  0.88000000000E+00 0. -1.
        -11    1    4    4    0    0  0.34631764969E-01 -0.30316362798E-01  0.50835409470E-01  0.68577991915E-01  0.51100000000E-03 0.  1.
         11    1    4    4    0    0  0.65794870237E-01 -0.22358928671E-02  0.26997864174E-01  0.71155533569E-01  0.51100000000E-03 0. -1.
</event>
<event>
 8    1  0.2190512E+004  0.1043930E+01  0.7957747E-01            NaN
         13   -1    0    0    0    0  0.00000000000E+00  0.00000000000E+00  0.74505805969E-08  0.10566000000E+00  0.10566000000E+00 0.  1.
     999900   -1    0    0    0    0 -0.00000000000E+00 -0.00000000000E+00 -0.74505805969E-08  0.93827000000E+00  0.93827000000E+00 0.  1.
     999902    2    1    2    0    0 -0.50782140022E-03  0.16211861502E-01  0.58919760824E-02  0.10266731834E+01  0.10265281428E+01 0.  0.
     999903    2    3    3    0    0  0.58425719449E-01 -0.10858812221E+00 -0.32581367837E-01  0.13508561265E+00  0.44515528043E-01 0.  0.
         14    1    1    2    0    0  0.50782140022E-03 -0.16211861502E-01 -0.58919760824E-02  0.17256816569E-01  0.00000000000E+00 0. -1.
     999901    1    3    3    0    0 -0.58933540849E-01  0.12479998372E+00  0.38473343919E-01  0.89158757078E+00  0.88000000000E+00 0. -1.
        -11    1    4    4    0    0  0.42469299417E-02 -0.53200321801E-01 -0.92524597154E-02  0.54168069796E-01  0.51100000000E-03 0. -1.
         11    1    4    4    0    0  0.54178789507E-01 -0.55387800413E-01 -0.23328908121E-01  0.80917542858E-01  0.51100000000E-03 0.  1.
</event>
<event>
 8    1  0.2190512E+004  0.1043930E+01  0.7957747E-01            NaN
         13   -1    0    0    0    0  0.00000000000E+00  0.00000000000E+00  0.74505805969E-08  0.10566000000E+00  0.10566000000E+00 0.  1.
     999900   -1    0    0    0    0 -0.00000000000E+00 -0.00000000000E+00 -0.74505805969E-08  0.93827000000E+00  0.93827000000E+00 0.  1.
     999902    2    1    2    0    0  0.11215038329E-01 -0.11296119164E-01 -0.22547751486E-02  0.10278532029E+01  0.10277274655E+01 0.  0.
     999903    2    3    3    0    0 -0.10247119692E-01  0.42304774926E-01 -0.12216637223E+00  0.13784619668E+00  0.46714601487E-01 0.  0.
         14    1    1    2    0    0 -0.11215038329E-01  0.11296119164E-01  0.22547751486E-02  0.16076797065E-01  0.00000000000E+00 0.  1.
     999901    1    3    3    0    0  0.21462158021E-01 -0.53600894090E-01  0.11991159708E+00  0.89000700626E+00  0.88000000000E+00 0. -1.
        -11    1    4    4    0    0  0.23240165284E-02  0.21117596241E-01 -0.10660521487E+00  0.10870274551E+00  0.51100000000E-03 0. -1.
         11    1    4    4    0    0 -0.12571136220E-01  0.21187178685E-01 -0.15561157358E-01  0.29143451165E-01  0.51100000000E-03 0.  1.
</event>
<event>
 8    1  0.2190512E+004  0.1043930E+01  0.7957747E-01            NaN
         13   -1    0    0    0    0  0.00000000000E+00  0.00000000000E+00  0.74505805969E-08  0.10566000000E+00  0.10566000000E+00 0. -1.
     999900   -1    0    0    0    0 -0.00000000000E+00 -0.00000000000E+00 -0.74505805969E-08  0.93827000000E+00  0.93827000000E+00 0.  1.
     999902    2    1    2    0    0  0.11938063663E-01  0.67930888343E-02  0.67598634419E-02  0.10286212060E+01  0.10285072806E+01 0.  0.
     999903    2    3    3    0    0  0.12300345264E+00 -0.15838865460E-01 -0.47938604656E-01  0.13966696174E+00  0.42755483433E-01 0.  0.
         14    1    1    2    0    0 -0.11938063663E-01 -0.67930888343E-02 -0.67598634419E-02  0.15308793998E-01  0.00000000000E+00 0.  1.
     999901    1    3    3    0    0 -0.11106538898E+00  0.22631954294E-01  0.54698468098E-01  0.88895424426E+00  0.88000000000E+00 0. -1.
        -11    1    4    4    0    0  0.35619677021E-01 -0.14726014401E-01 -0.33540652625E-01  0.51096510553E-01  0.51100000000E-03 0.  1.
         11    1    4    4    0    0  0.87383775620E-01 -0.11128510585E-02 -0.14397952031E-01  0.88570451183E-01  0.51100000000E-03 0. -1.
</event>
<event>
 7    1  0.2190512E+004  0.1043930E+01  0.7957747E-01            NaN
         13   -1    0    0    0    0  0.00000000000E+00  0.00000000000E+00  0.74505805969E-08  0.10566000000E+00  0.10566000000E+00 0.  1.
     999900   -1    0    0    0    0 -0.00000000000E+00 -0.00000000000E+00 -0.74505805969E-08  0.93827000000E+00  0.93827000000E+00 0. -1.
     999903    2    1    2    0    0 -0.64942894883E-01 -0.41871484315E-01 -0.52576346823E-01  0.10385804966E+00  0.45292620149E-01 0.  0.
         14    1    1    2    0    0  0.31660299616E-01  0.82113298032E-03 -0.42908139571E-01  0.53330641029E-01  0.00000000000E+00 0. -1.
     999901    1    1    2    0    0  0.33282595267E-01  0.41050351335E-01  0.95484486394E-01  0.88674130931E+00  0.88000000000E+00 0.  1.
        -11    1    3    3    0    0 -0.27600769253E-01 -0.34904529936E-01 -0.48223898049E-01  0.65619617017E-01  0.51100000000E-03 0. -1.
         11    1    3    3    0    0 -0.37342125630E-01 -0.69669543794E-02 -0.43524487741E-02  0.38238432646E-01  0.51100000000E-03 0.  1.
</event>
<event>
 8    1  0.2190512E+004  0.1043930E+01  0.7957747E-01            NaN
         13   -1    0    0    0    0  0.00000000000E+00  0.00000000000E+00  0.74505805969E-08  0.10566000000E+00  0.10566000000E+00 0. -1.
     999900   -1    0    0    0    0 -0.00000000000E+00 -0.00000000000E+00 -0.74505805969E-08  0.93827000000E+00  0.93827000000E+00 0. -1.
     999902    2    1    2    0    0  0.73075445556E-02  0.10198407431E-01 -0.52827498992E-02  0.10303169486E+01  0.10302270135E+01 0.  0.
     999903    2    3    3    0    0 -0.94013673642E-01 -0.91472207717E-01 -0.11781689050E-02  0.13867814796E+00  0.44994499928E-01 0.  0.
         14    1    1    2    0    0 -0.73075445556E-02 -0.10198407431E-01  0.52827498992E-02  0.13613051387E-01  0.00000000000E+00 0. -1.
     999901    1    3    3    0    0  0.10132121820E+00  0.10167061515E+00 -0.41045809943E-02  0.89163880065E+00  0.88000000000E+00 0.  1.
        -11    1    4    4    0    0 -0.47107481494E-02 -0.11370790347E-01  0.12963427453E-01  0.17882885494E-01  0.51100000000E-03 0. -1.
         11    1    4    4    0    0 -0.89302925493E-01 -0.80101417370E-01 -0.14141596358E-01  0.12079526247E+00  0.51100000000E-03 0.  1.
</event>
<event>
 8    1  0.2190512E+004  0.1043930E+01  0.7957747E-01            NaN
         13   -1    0    0    0    0  0.00000000000E+00  0.00000000000E+00  0.74505805969E-08  0.10566000000E+00  0.10566000000E+00 0. -1.
     999900   -1    0    0    0    0 -0.00000000000E+00 -0.00000000000E+00 -0.74505805969E-08  0.93827000000E+00  0.93827000000E+00 0. -1.
     999902    2    1    2    0    0 -0.12287677067E-01 -0.60932335742E-03  0.56506048970E-02  0.10303916242E+01  0.10303026796E+01 0.  0.
     999903    2    3    3    0    0  0.94441291397E-02 -0.12812132001E+00 -0.33219154405E-01  0.14008693545E+00  0.44906269577E-01 0.  0.
         14    1    1    2    0    0  0.12287677067E-01  0.60932335742E-03 -0.56506048970E-02  0.13538375765E-01  0.00000000000E+00 0. -1.
     999901    1    3    3    0    0 -0.21731806207E-01  0.12751199665E+00  0.38869759302E-01  0.89030468879E+00  0.88000000000E+00 0.  1.
        -11    1    4    4    0    0 -0.15055659746E-01 -0.40639945106E-01 -0.21823375030E-01  0.48526269662E-01  0.51100000000E-03 0.  1.
         11    1    4    4    0    0  0.24499788886E-01 -0.87481374902E-01 -0.11395779375E-01  0.91560665784E-01  0.51100000000E-03 0. -1.
</event>
<event>
 8    1  0.2190512E+004  0.1043930E+01  0.7957747E-01            NaN
         13   -1    0    0    0    0  0.00000000000E+00  0.00000000000E+00  0.74505805969E-08  0.10566000000E+00  0.10566000000E+00 0. -1.
     999900   -1    0    0    0    0 -0.00000000000E+00 -0.00000000000E+00 -0.74505805969E-08  0.93827000000E+00  0.93827000000E+00 0.  1.
     999902    2    1    2    0    0 -0.27958547796E-02  0.12956354666E-02  0.13751386315E-01  0.10298375871E+01  0.10297411615E+01 0.  0.
     999903    2    3    3    0    0  0.12459797457E+00  0.17796262813E-01 -0.38477549711E-01  0.13897883276E+00  0.44645625602E-01 0.  0.
         14    1    1    2    0    0  0.27958547796E-02 -0.12956354666E-02 -0.13751386315E-01  0.14092412881E-01  0.00000000000E+00 0.  1.
     999901    1    3    3    0    0 -0.12739382935E+00 -0.16500627346E-01  0.52228936027E-01  0.89085875436E+00  0.88000000000E+00 0. -1.
        -11    1    4    4    0    0  0.42962141513E-01  0.24204012264E-01 -0.20575846330E-02  0.49356606332E-01  0.51100000000E-03 0. -1.
         11    1    4    4    0    0  0.81635833061E-01 -0.64077494512E-02 -0.36419965078E-01  0.89622226428E-01  0.51100000000E-03 0.  1.
</event>
<event>
 8    1  0.2190512E+004  0.1043930E+01  0.7957747E-01            NaN
         13   -1    0    0    0    0  0.00000000000E+00  0.00000000000E+00  0.74505805969E-08  0.10566000000E+00  0.10566000000E+00 0.  1.
     999900   -1    0    0    0    0 -0.00000000000E+00 -0.00000000000E+00 -0.74505805969E-08  0.93827000000E+00  0.93827000000E+00 0.  1.
     999902    2    1    2    0    0 -0.98369242400E-02  0.10348900920E-01  0.85774984252E-03  0.10296261347E+01  0.10295267731E+01 0.  0.
     999903    2    3    3    0    0 -0.69877349918E-01 -0.10560457818E+00 -0.36841887745E-01  0.13919291162E+00  0.44521578892E-01 0.  0.
         14    1    1    2    0    0  0.98369242400E-02 -0.10348900920E-01 -0.85774984252E-03  0.14303865336E-01  0.00000000000E+00 0.  1.
     999901    1    3    3    0    0  0.60040425678E-01  0.11595347910E+00  0.37699637587E-01  0.89043322305E+00  0.88000000000E+00 0. -1.
        -11    1    4    4    0    0 -0.15770707093E-01 -0.43714115197E-01 -0.32803132463E-01  0.56885373252E-01  0.51100000000E-03 0.  1.
         11    1    4    4    0    0 -0.54106642825E-01 -0.61890462986E-01 -0.40387552817E-02  0.82307538365E-01  0.51100000000E-03 0. -1.
</event>
<event>
 8    1  0.2190512E+004  0.1043930E+01  0.7957747E-01            NaN
         13   -1    0    0    0    0  0.00000000000E+00  0.00000000000E+00  0.74505805969E-08  0.10566000000E+00  0.10566000000E+00 0.  1.
     999900   -1    0    0    0    0 -0.00000000000E+00 -0.00000000000E+00 -0.74505805969E-08  0.93827000000E+00  0.93827000000E+00 0. -1.
     999902    2    1    2    0    0 -0.22259811170E-02  0.12198683652E-01  0.73801156252E-02  0.10294998586E+01  0.10293987225E+01 0.  0.
     999903    2    3    3    0    0 -0.12556475796E+00 -0.30017509323E-01  0.28131034949E-01  0.13965421945E+00  0.45214893291E-01 0.  0.
         14    1    1    2    0    0  0.22259811170E-02 -0.12198683652E-01 -0.73801156252E-02  0.14430141421E-01  0.00000000000E+00 0. -1.
     999901    1    3    3    0    0  0.12333877684E+00  0.42216192975E-01 -0.20750919324E-01  0.88984563913E+00  0.88000000000E+00 0. -1.
        -11    1    4    4    0    0 -0.47156078561E-01 -0.33243111993E-01  0.53911986570E-02  0.57949343259E-01  0.51100000000E-03 0. -1.
         11    1    4    4    0    0 -0.78408679400E-01  0.32256026700E-02  0.22739836292E-01  0.81704876192E-01  0.51100000000E-03 0.  1.
</event>
<event>
 8    1  0.2190512E+004  0.1043930E+01  0.7957747E-01            NaN
         13   -1    0    0    0    0  0.00000000000E+00  0.00000000000E+00  0.74505805969E-08  0.10566000000E+00  0.10566000000E+00 0.  1.
     999900   -1    0    0    0    0 -0.00000000000E+00 -0.00000000000E+00 -0.74505805969E-08  0.93827000000E+00  0.93827000000E+00 0. -1.
     999902    2    1    2    0    0  0.46809936392E-02  0.41878333603E-02 -0.12036011240E-01  0.10303537260E+01  0.10302642794E+01 0.  0.
     999903    2    3    3    0    0 -0.54619993447E-01  0.97734670506E-01 -0.73439656136E-01  0.14128790985E+00  0.45094133459E-01 0.  0.
         14    1    1    2    0    0 -0.46809936392E-02 -0.41878333603E-02  0.12036011240E-01  0.13576274020E-01  0.00000000000E+00 0.  1.
     999901    1    3    3    0    0  0.59300987086E-01 -0.93546837146E-01  0.61403644896E-01  0.88906581613E+00  0.88000000000E+00 0.  1.
        -11    1    4    4    0    0 -0.35385685699E-01  0.30779984929E-01 -0.12028998985E-01  0.48420162765E-01  0.51100000000E-03 0. -1.
         11    1    4    4    0    0 -0.19234307747E-01  0.66954685577E-01 -0.61410657152E-01  0.92867747082E-01  0.51100000000E-03 0.  1.
</event>
<event>
 8    1  0.2190512E+004  0.1043930E+01  0.7957747E-01            NaN
         13   -1    0    0    0    0  0.00000000000E+00  0.00000000000E+00  0.74505805969E-08  0.10566000000E+00  0.10566000000E+00 0.  1.
     999900   -1    0    0    0    0 -0.00000000000E+00 -0.00000000000E+00 -0.74505805969E-08  0.93827000000E+00  0.93827000000E+00 0.  1.
     999902    2    1    2    0    0 -0.13981413300E-02 -0.11062136428E-01  0.82674363530E-02  0.10300492160E+01  0.10299556841E+01 0.  0.
     999903    2    3    3    0    0 -0.11511857384E+00 -0.53040623515E-01 -0.39764638259E-01  0.14044165623E+00  0.45574538535E-01 0.  0.
         14    1    1    2    0    0  0.13981413300E-02  0.11062136428E-01 -0.82674363530E-02  0.13880784033E-01  0.00000000000E+00 0.  1.
     999901    1    3    3    0    0  0.11372043251E+00  0.41978487088E-01  0.48032074612E-01  0.88960755974E+00  0.88000000000E+00 0. -1.
        -11    1    4    4    0    0 -0.18894990571E-01 -0.23029955329E-01  0.48980980846E-02  0.30193575426E-01  0.51100000000E-03 0.  1.
         11    1    4    4    0    0 -0.96223583270E-01 -0.30010668186E-01 -0.44662736344E-01  0.11024808080E+00  0.51100000000E-03 0. -1.
</event>
<event>
 8    1  0.2190512E+004  0.1043930E+01  0.7957747E-01            NaN
         13   -1    0    0    0    0  0.00000000000E+00  0.00000000000E+00  0.74505805969E-08  0.10566000000E+00  0.10566000000E+00 0.  1.
     999900   -1    0    0    0    0 -0.00000000000E+00 -0.00000000000E+00 -0.74505805969E-08  0.93827000000E+00  0.93827000000E+00 0.  1.
     999902    2    1    2    0    0 -0.43348439458E-02  0.11401219642E-01 -0.57664623332E-02  0.10304381221E+01  0.10303497914E+01 0.  0.
     999903    2    3    3    0    0 -0.69858597713E-01  0.51919077723E-01 -0.97356705462E-01  0.14233687125E+00  0.56618393765E-01 0.  0.
         14    1    1    2    0    0  0.43348439458E-02 -0.11401219642E-01  0.57664623332E-02  0.13491877897E-01  0.00000000000E+00 0.  1.
     999901    1    3    3    0    0  0.65523753767E-01 -0.40517858082E-01  0.91590243129E-01  0.88810125085E+00  0.88000000000E+00 0. -1.
        -11    1    4    4    0    0 -0.96169121296E-02  0.39025915846E-01 -0.25136726543E-01  0.47409105126E-01  0.51100000000E-03 0.  1.
         11    1    4    4    0    0 -0.60241685583E-01  0.12893161877E-01 -0.72219978919E-01  0.94927766124E-01  0.51100000000E-03 0. -1.
</event>
<event>
 8    1  0.2190512E+004  0.1043930E+01  0.7957747E-01            NaN
         13   -1    0    0    0    0  0.00000000000E+00  0.00000000000E+00  0.74505805969E-08  0.10566000000E+00  0.10566000000E+00 0.  1.
     999900   -1    0    0    0    0 -0.00000000000E+00 -0.00000000000E+00 -0.74505805969E-08  0.93827000000E+00  0.93827000000E+00 0.  1.
     999902    2    1    2    0    0 -0.36401179505E-02 -0.16065670613E-02 -0.13178011717E-01  0.10301644085E+01  0.10300724329E+01 0.  0.
     999903    2    3    3    0    0  0.97864287101E-01  0.82632723990E-01 -0.35062006169E-01  0.14006423908E+00  0.44531573381E-01 0.  0.
         14    1    1    2    0    0  0.36401179505E-02  0.16065670613E-02  0.13178011717E-01  0.13765591496E-01  0.00000000000E+00 0.  1.
     999901    1    3    3    0    0 -0.10150440505E+00 -0.84239291051E-01  0.21883994453E-01  0.89010016943E+00  0.88000000000E+00 0. -1.
        -11    1    4    4    0    0  0.29258276326E-01  0.20317914802E-01 -0.31110493471E-01  0.47296810891E-01  0.51100000000E-03 0.  1.
         11    1    4    4    0    0  0.68606010776E-01  0.62314809187E-01 -0.39515126983E-02  0.92767428186E-01  0.51100000000E-03 0. -1.
</event>
<event>
 8    1  0.2190512E+004  0.1043930E+01  0.7957747E-01            NaN
         13   -1    0    0    0    0  0.00000000000E+00  0.00000000000E+00  0.74505805969E-08  0.10566000000E+00  0.10566000000E+00 0.  1.
     999900   -1    0    0    0    0 -0.00000000000E+00 -0.00000000000E+00 -0.74505805969E-08  0.93827000000E+00  0.93827000000E+00 0. -1.
     999902    2    1    2    0    0  0.13068750088E-01 -0.74947721009E-02  0.34200872303E-02  0.10284813485E+01  0.10283653161E+01 0.  0.
     999903    2    3    3    0    0  0.68987216566E-01  0.10004243791E+00 -0.49192030865E-01  0.13861666133E+00  0.45022188589E-01 0.  0.
         14    1    1    2    0    0 -0.13068750088E-01  0.74947721009E-02 -0.34200872303E-02  0.15448651539E-01  0.00000000000E+00 0.  1.
     999901    1    3    3    0    0 -0.55918466477E-01 -0.10753721001E+00  0.52612118095E-01  0.88986468713E+00  0.88000000000E+00 0.  1.
        -11    1    4    4    0    0  0.46484118103E-02  0.42497839664E-01 -0.22203562486E-01  0.48176066844E-01  0.51100000000E-03 0. -1.
         11    1    4    4    0    0  0.64338804756E-01  0.57544598247E-01 -0.26988468379E-01  0.90440594487E-01  0.51100000000E-03 0.  1.
</event>
<event>
 8    1  0.2190512E+004  0.1043930E+01  0.7957747E-01            NaN
         13   -1    0    0    0    0  0.00000000000E+00  0.00000000000E+00  0.74505805969E-08  0.10566000000E+00  0.10566000000E+00 0.  1.
     999900   -1    0    0    0    0 -0.00000000000E+00 -0.00000000000E+00 -0.74505805969E-08  0.93827000000E+00  0.93827000000E+00 0.  1.
     999902    2    1    2    0    0  0.10232889439E-01  0.10062130346E-01  0.30733761485E-02  0.10292533473E+01  0.10291487010E+01 0.  0.
     999903    2    3    3    0    0 -0.33258408387E-01 -0.10851297715E+00  0.64223306213E-01  0.13813558682E+00  0.45558965600E-01 0.  0.
         14    1    1    2    0    0 -0.10232889439E-01 -0.10062130346E-01 -0.30733761485E-02  0.14676652695E-01  0.00000000000E+00 0. -1.
     999901    1    3    3    0    0  0.43491297826E-01  0.11857510750E+00 -0.61149930065E-01  0.89111776048E+00  0.88000000000E+00 0. -1.
        -11    1    4    4    0    0 -0.28776760745E-01 -0.48260118654E-01  0.51854645605E-01  0.76461143095E-01  0.51100000000E-03 0. -1.
         11    1    4    4    0    0 -0.44816476422E-02 -0.60252858496E-01  0.12368660608E-01  0.61674443725E-01  0.51100000000E-03 0.  1.
</event>
<event>
 8    1  0.2190512E+004  0.1043930E+01  0.7957747E-01            NaN
         13   -1    0    0    0    0  0.00000000000E+00  0.00000000000E+00  0.74505805969E-08  0.10566000000E+00  0.10566000000E+00 0.  1.
     999900   -1    0    0    0    0 -0.00000000000E+00 -0.00000000000E+00 -0.74505805969E-08  0.93827000000E+00  0.93827000000E+00 0. -1.
     999902    2    1    2    0    0  0.89759217297E-02 -0.30227887249E-02 -0.95687598797E-02  0.10304665091E+01  0.10303785521E+01 0.  0.
     999903    2    3    3    0    0 -0.33120421010E-01 -0.38830330831E-01 -0.12358511752E+00  0.14139170234E+00  0.45973637410E-01 0.  0.
         14    1    1    2    0    0 -0.89759217297E-02  0.30227887249E-02  0.95687598797E-02  0.13463490937E-01  0.00000000000E+00 0.  1.
     999901    1    3    3    0    0  0.42096342740E-01  0.35807542106E-01  0.11401635764E+00  0.88907480673E+00  0.88000000000E+00 0.  1.
        -11    1    4    4    0    0  0.94833118891E-02 -0.13830246126E-01 -0.50194247214E-01  0.52923836659E-01  0.51100000000E-03 0.  1.
         11    1    4    4    0    0 -0.42603732900E-01 -0.25000084705E-01 -0.73390870308E-01  0.88467865679E-01  0.51100000000E-03 0. -1.
</event>
<event>
 7    1  0.2190512E+004  0.1043930E+01  0.7957747E-01            NaN
         13   -1    0    0    0    0  0.00000000000E+00  0.00000000000E+00  0.74505805969E-08  0.10566000000E+00  0.10566000000E+00 0.  1.
     999900   -1    0    0    0    0 -0.00000000000E+00 -0.00000000000E+00 -0.74505805969E-08  0.93827000000E+00  0.93827000000E+00 0.  1.
     999903    2    1    2    0    0  0.69427981713E-01 -0.14815752021E-01 -0.88078807701E-01  0.12292222166E+00  0.48085809331E-01 0.  0.
         14    1    1    2    0    0  0.78540223786E-02 -0.28212950506E-01 -0.10467598350E-01  0.31100271044E-01  0.00000000000E+00 0. -1.
     999901    1    1    2    0    0 -0.77282004091E-01  0.43028702527E-01  0.98546406052E-01  0.88990750730E+00  0.88000000000E+00 0. -1.
        -11    1    3    3    0    0 -0.20289896448E-02 -0.14022664882E-01 -0.16889325720E-01  0.22051357637E-01  0.51100000000E-03 0.  1.
         11    1    3    3    0    0  0.71456971357E-01 -0.79308713868E-03 -0.71189481982E-01  0.10087086402E+00  0.51100000000E-03 0. -1.
</event>
<event>
 8    1  0.2190512E+004  0.1043930E+01  0.7957747E-01            NaN
         13   -1    0    0    0    0  0.00000000000E+00  0.00000000000E+00  0.74505805969E-08  0.10566000000E+00  0.10566000000E+00 0.  1.
     999900   -1    0    0    0    0 -0.00000000000E+00 -0.00000000000E+00 -0.74505805969E-08  0.93827000000E+00  0.93827000000E+00 0. -1.
     999902    2    1    2    0    0  0.10536938064E-01 -0.46650921741E-02  0.70277395883E-02  0.10304326198E+01  0.10303442166E+01 0.  0.
     999903    2    3    3    0    0  0.64428274553E-01 -0.10280806585E+00 -0.56175560493E-01  0.14108961702E+00  0.45056469775E-01 0.  0.
         14    1    1    2    0    0 -0.10536938064E-01  0.46650921741E-02 -0.70277395883E-02  0.13497380208E-01  0.00000000000E+00 0. -1.
     999901    1    3    3    0    0 -0.53891336489E-01  0.98142973681E-01  0.63203300082E-01  0.88934300277E+00  0.88000000000E+00 0. -1.
        -11    1    4    4    0    0  0.34476498517E-01 -0.33450144404E-01 -0.42849044894E-01  0.64372687375E-01  0.51100000000E-03 0.  1.
         11    1    4    4    0    0  0.29951776037E-01 -0.69357921451E-01 -0.13326515600E-01  0.76716929649E-01  0.51100000000E-03 0. -1.
</event>
<event>
 8    1  0.2190512E+004  0.1043930E+01  0.7957747E-01            NaN
         13   -1    0    0    0    0  0.00000000000E+00  0.00000000000E+00  0.74505805969E-08  0.10566000000E+00  0.10566000000E+00 0.  1.
     999900   -1    0    0    0    0 -0.00000000000E+00 -0.00000000000E+00 -0.74505805969E-08  0.93827000000E+00  0.93827000000E+00 0.  1.
     999902    2    1    2    0    0  0.10630770531E-02  0.12822400270E-01 -0.13967820860E-01  0.10249393681E+01  0.10247634186E+01 0.  0.
     999903    2    3    3    0    0 -0.67679750422E-01 -0.10607163762E+00 -0.10840355428E-01  0.13428166187E+00  0.45632340323E-01 0.  0.
         14    1    1    2    0    0 -0.10630770531E-02 -0.12822400270E-01  0.13967820860E-01  0.18990631930E-01  0.00000000000E+00 0.  1.
     999901    1    3    3    0    0  0.68742827475E-01  0.11889403789E+00 -0.31274654326E-02  0.89065770620E+00  0.88000000000E+00 0.  1.
        -11    1    4    4    0    0 -0.25293882909E-01 -0.16688092576E-01 -0.17737164506E-01  0.35116108442E-01  0.51100000000E-03 0. -1.
         11    1    4    4    0    0 -0.42385867512E-01 -0.89383545047E-01  0.68968090779E-02  0.99165553426E-01  0.51100000000E-03 0.  1.
</event>
<event>
 8    1  0.2190512E+004  0.1043930E+01  0.7957747E-01            NaN
         13   -1    0    0    0    0  0.00000000000E+00  0.00000000000E+00  0.74505805969E-08  0.10566000000E+00  0.10566000000E+00 0.  1.
     999900   -1    0    0    0    0 -0.00000000000E+00 -0.00000000000E+00 -0.74505805969E-08  0.93827000000E+00  0.93827000000E+00 0. -1.
     999902    2    1    2    0    0  0.41997956302E-02  0.52397304309E-02  0.11992297024E-01  0.10301856104E+01  0.10300939198E+01 0.  0.
     999903    2    3    3    0    0  0.11558726034E+00  0.24537985719E-02 -0.64625115966E-01  0.13985693135E+00  0.44912356363E-01 0.  0.
         14    1    1    2    0    0 -0.41997956302E-02 -0.52397304309E-02 -0.11992297024E-01  0.13744389628E-01  0.00000000000E+00 0.  1.
     999901    1    3    3    0    0 -0.11138746471E+00  0.27859318591E-02  0.76617412990E-01  0.89032867902E+00  0.88000000000E+00 0.  1.
        -11    1    4    4    0    0  0.48960202753E-01  0.67725252557E-02 -0.52296557244E-01  0.71959430046E-01  0.51100000000E-03 0. -1.
         11    1    4    4    0    0  0.66627057585E-01 -0.43187266838E-02 -0.12328558722E-01  0.67897501307E-01  0.51100000000E-03 0.  1.
</event>
<event>
 8    1  0.2190512E+004  0.1043930E+01  0.7957747E-01            NaN
         13   -1    0    0    0    0  0.00000000000E+00  0.00000000000E+00  0.74505805969E-08  0.10566000000E+00  0.10566000000E+00 0.  1.
     999900   -1    0    0    0    0 -0.00000000000E+00 -0.00000000000E+00 -0.74505805969E-08  0.93827000000E+00  0.93827000000E+00 0.  1.
     999902    2    1    2    0    0 -0.29127068358E-02 -0.15957230099E-02  0.11084969485E-01  0.10323581920E+01  0.10322933351E+01 0.  0.
     999903    2    3    3    0    0 -0.70037215919E-01 -0.10181887934E+00  0.56474277160E-01  0.14297044185E+00  0.44484912705E-01 0.  0.
         14    1    1    2    0    0  0.29127068358E-02  0.15957230099E-02 -0.11084969485E-01  0.11571808049E-01  0.00000000000E+00 0. -1.
     999901    1    3    3    0    0  0.67124509083E-01  0.10022315633E+00 -0.45389307675E-01  0.88938775010E+00  0.88000000000E+00 0.  1.
        -11    1    4    4    0    0 -0.37780971000E-01 -0.21541634802E-01  0.28680824427E-01  0.52098892603E-01  0.51100000000E-03 0. -1.
         11    1    4    4    0    0 -0.32256244919E-01 -0.80277244534E-01  0.27793452733E-01  0.90871549244E-01  0.51100000000E-03 0.  1.
</event>
<event>
 8    1  0.2190512E+004  0.1043930E+01  0.7957747E-01            NaN
         13   -1    0    0    0    0  0.00000000000E+00  0.00000000000E+00  0.74505805969E-08  0.10566000000E+00  0.10566000000E+00 0.  1.
     999900   -1    0    0    0    0 -0.00000000000E+00 -0.00000000000E+00 -0.74505805969E-08  0.93827000000E+00  0.93827000000E+00 0. -1.
     999902    2    1    2    0    0  0.10043662846E-01  0.65346231152E-02  0.68411786632E-02  0.10301322397E+01  0.10300398309E+01 0.  0.
     999903    2    3    3    0    0  0.13305944184E+00  0.87402797845E-02  0.12987864007E-01  0.14155161395E+00  0.45683336639E-01 0.  0.
         14    1    1    2    0    0 -0.10043662846E-01 -0.65346231152E-02 -0.68411786632E-02  0.13797760257E-01  0.00000000000E+00 0. -1.
     999901    1    3    3    0    0 -0.12301577899E+00 -0.22056566693E-02 -0.61466853440E-02  0.88858062580E+00  0.88000000000E+00 0. -1.
        -11    1    4    4    0    0  0.90140657149E-01  0.47089583062E-02  0.30125505983E-01  0.95159442996E-01  0.51100000000E-03 0.  1.
         11    1    4    4    0    0  0.42918784688E-01  0.40313214784E-02 -0.17137641975E-01  0.46392170950E-01  0.51100000000E-03 0. -1.
</event>
<event>
 8    1  0.2190512E+004  0.1043930E+01  0.7957747E-01            NaN
         13   -1    0    0    0    0  0.00000000000E+00  0.00000000000E+00  0.74505805969E-08  0.10566000000E+00  0.10566000000E+00 0.  1.
     999900   -1    0    0    0    0 -0.00000000000E+00 -0.00000000000E+00 -0.74505805969E-08  0.93827000000E+00  0.93827000000E+00 0.  1.
     999902    2    1    2    0    0 -0.10053487380E-01 -0.10788864802E-01 -0.10270062326E-02  0.10291473428E+01  0.10290411684E+01 0.  0.
     999903    2    3    3    0    0  0.63535029130E-01 -0.11357220590E+00 -0.23548444513E-01  0.13982912070E+00  0.45412640071E-01 0.  0.
         14    1    1    2    0    0  0.10053487380E-01  0.10788864802E-01  0.10270062326E-02  0.14782657204E-01  0.00000000000E+00 0.  1.
     999901    1    3    3    0    0 -0.73588516510E-01  0.10278334109E+00  0.22521438280E-01  0.88931822210E+00  0.88000000000E+00 0.  1.
        -11    1    4    4    0    0  0.29591568600E-01 -0.35069178574E-01 -0.28735571380E-01  0.54143350484E-01  0.51100000000E-03 0. -1.
         11    1    4    4    0    0  0.33943460530E-01 -0.78503027322E-01  0.51871268675E-02  0.85685770217E-01  0.51100000000E-03 0.  1.
</event>
<event>
 8    1  0.2190512E+004  0.1043930E+01  0.7957747E-01            NaN
         13   -1    0    0    0    0  0.00000000000E+00  0.00000000000E+00  0.74505805969E-08  0.10566000000E+00  0.10566000000E+00 0. -1.
     999900   -1    0    0    0    0 -0.00000000000E+00 -0.00000000000E+00 -0.74505805969E-08  0.93827000000E+00  0.93827000000E+00 0. -1.
     999902    2    1    2    0    0 -0.14367174576E-01 -0.44423876965E-04  0.20402235962E-02  0.10294186186E+01  0.10293163324E+01 0.  0.
     999903    2    3    3    0    0  0.37266012310E-01 -0.60274056648E-01  0.11099070985E+00  0.13915809315E+00  0.44992439791E-01 0.  0.
         14    1    1    2    0    0  0.14367174576E-01  0.44423876965E-04 -0.20402235962E-02  0.14511381434E-01  0.00000000000E+00 0.  1.
     999901    1    3    3    0    0 -0.51633186886E-01  0.60229632771E-01 -0.10895048626E+00  0.89026052541E+00  0.88000000000E+00 0. -1.
        -11    1    4    4    0    0  0.11622027658E-01 -0.29041658222E-01  0.14373649337E-01  0.34428946476E-01  0.51100000000E-03 0.  1.
         11    1    4    4    0    0  0.25643984652E-01 -0.31232398426E-01  0.96617060516E-01  0.10472914668E+00  0.51100000000E-03 0. -1.
</event>
<event>
 8    1  0.2190512E+004  0.1043930E+01  0.7957747E-01            NaN
         13   -1    0    0    0    0  0.00000000000E+00  0.00000000000E+00  0.74505805969E-08  0.10566000000E+00  0.10566000000E+00 0.  1.
     999900   -1    0    0    0    0 -0.00000000000E+00 -0.00000000000E+00 -0.74505805969E-08  0.93827000000E+00  0.93827000000E+00 0.  1.
     999902    2    1    2    0    0 -0.95768402350E-02  0.82790589827E-03  0.85382515980E-02  0.10310729771E+01  0.10309928133E+01 0.  0.
     999903    2    3    3    0    0  0.12167233086E+00 -0.11471091878E-01 -0.49264935836E-01  0.13937862436E+00  0.45427139245E-01 0.  0.
         14    1    1    2    0    0  0.95768402350E-02 -0.82790589827E-03 -0.85382515980E-02  0.12857022883E-01  0.00000000000E+00 0. -1.
     999901    1    3    3    0    0 -0.13124917110E+00  0.12298997776E-01  0.57803187434E-01  0.89169435276E+00  0.88000000000E+00 0. -1.
        -11    1    4    4    0    0  0.44797834114E-01 -0.15003185319E-01 -0.39925531831E-01  0.61856695062E-01  0.51100000000E-03 0. -1.
         11    1    4    4    0    0  0.76874496746E-01  0.35320934411E-02 -0.93394040059E-02  0.77521929299E-01  0.51100000000E-03 0.  1.
</event>
<event>
 8    1  0.2190512E+004  0.1043930E+01  0.7957747E-01            NaN
         13   -1    0    0    0    0  0.00000000000E+00  0.00000000000E+00  0.74505805969E-08  0.10566000000E+00  0.10566000000E+00 0.  1.
     999900   -1    0    0    0    0 -0.00000000000E+00 -0.00000000000E+00 -0.74505805969E-08  0.93827000000E+00  0.93827000000E+00 0. -1.
     999902    2    1    2    0    0  0.13333560722E-01 -0.15116992955E-02  0.11869441432E-02  0.10304586262E+01  0.10303705655E+01 0.  0.
     999903    2    3    3    0    0  0.10639703551E+00 -0.34242144214E-01 -0.74836867757E-01  0.14168885152E+00  0.44523255321E-01 0.  0.
         14    1    1    2    0    0 -0.13333560722E-01  0.15116992955E-02 -0.11869441432E-02  0.13471373823E-01  0.00000000000E+00 0. -1.
     999901    1    3    3    0    0 -0.93063474788E-01  0.32730444919E-01  0.76023811900E-01  0.88876977465E+00  0.88000000000E+00 0.  1.
        -11    1    4    4    0    0  0.74185909416E-01 -0.10013410135E-01 -0.28076064558E-01  0.79952136059E-01  0.51100000000E-03 0.  1.
         11    1    4    4    0    0  0.32211126094E-01 -0.24228734080E-01 -0.46760803199E-01  0.61736715463E-01  0.51100000000E-03 0. -1.
</event>
<event>
 8    1  0.2190512E+004  0.1043930E+01  0.7957747E-01            NaN
         13   -1    0    0    0    0  0.00000000000E+00  0.00000000000E+00  0.74505805969E-08  0.10566000000E+00  0.10566000000E+00 0. -1.
     999900   -1    0    0    0    0 -0.00000000000E+00 -0.00000000000E+00 -0.74505805969E-08  0.93827000000E+00  0.93827000000E+00 0.  1.
     999902    2    1    2    0    0  0.12192445849E-01 -0.53767648010E-02 -0.43357025363E-02  0.10299170184E+01  0.10298216842E+01 0.  0.
     999903    2    3    3    0    0  0.55792221284E-01 -0.93329195147E-01 -0.78415114126E-01  0.14136520249E+00  0.44856211707E-01 0.  0.
         14    1    1    2    0    0 -0.12192445849E-01  0.53767648010E-02  0.43357025363E-02  0.14012981552E-01  0.00000000000E+00 0. -1.
     999901    1    3    3    0    0 -0.43599775436E-01  0.87952430346E-01  0.74079411590E-01  0.88855181596E+00  0.88000000000E+00 0. -1.
        -11    1    4    4    0    0  0.22427342831E-02 -0.43606294283E-01 -0.21123462355E-01  0.48507736919E-01  0.51100000000E-03 0.  1.
         11    1    4    4    0    0  0.53549487001E-01 -0.49722900864E-01 -0.57291651771E-01  0.92857465570E-01  0.51100000000E-03 0. -1.
</event>
<event>
 8    1  0.2190512E+004  0.1043930E+01  0.7957747E-01            NaN
         13   -1    0    0    0    0  0.00000000000E+00  0.00000000000E+00  0.74505805969E-08  0.10566000000E+00  0.10566000000E+00 0. -1.
     999900   -1    0    0    0    0 -0.00000000000E+00 -0.00000000000E+00 -0.74505805969E-08  0.93827000000E+00  0.93827000000E+00 0.  1.
     999902    2    1    2    0    0 -0.85299227887E-02 -0.36226894628E-02 -0.17167152895E-01  0.10244211661E+01  0.10242353884E+01 0.  0.
     999903    2    3    3    0    0 -0.67778669542E-01 -0.15623670643E-01 -0.11030009370E+00  0.13744417530E+00  0.43436661064E-01 0.  0.
         14    1    1    2    0    0  0.85299227887E-02  0.36226894628E-02  0.17167152895E-01  0.19508833903E-01  0.00000000000E+00 0. -1.
     999901    1    3    3    0    0  0.59248746753E-01  0.12000981180E-01  0.93132940805E-01  0.88697699080E+00  0.88000000000E+00 0. -1.
        -11    1    4    4    0    0 -0.16644020099E-01  0.14783668350E-01 -0.25481240843E-01  0.33839843540E-01  0.51100000000E-03 0.  1.
         11    1    4    4    0    0 -0.51134649443E-01 -0.30407338993E-01 -0.84818852858E-01  0.10360433176E+00  0.51100000000E-03 0. -1.
</event>
<event>
 8    1  0.2190512E+004  0.1043930E+01  0.7957747E-01            NaN
         13   -1    0    0    0    0  0.00000000000E+00  0.00000000000E+00  0.74505805969E-08  0.10566000000E+00  0.10566000000E+00 0.  1.
     999900   -1    0    0    0    0 -0.00000000000E+00 -0.00000000000E+00 -0.74505805969E-08  0.93827000000E+00  0.93827000000E+00 0.  1.
     999902    2    1    2    0    0 -0.18006524426E-01  0.10294437025E-01  0.14193153049E-01  0.10187972336E+01  0.10184871856E+01 0.  0.
     999903    2    3    3    0    0  0.48175815417E-01 -0.26464883431E-01 -0.10570037121E+00  0.12744668136E+00  0.45263549024E-01 0.  0.
         14    1    1    2    0    0  0.18006524426E-01 -0.10294437025E-01 -0.14193153049E-01  0.25132766442E-01  0.00000000000E+00 0. -1.
     999901    1    3    3    0    0 -0.66182339844E-01  0.36759320456E-01  0.11989352425E+00  0.89135055220E+00  0.88000000000E+00 0. -1.
        -11    1    4    4    0    0  0.31708465745E-01 -0.10783277904E-01 -0.97786064046E-01  0.10336382987E+00  0.51100000000E-03 0.  1.
         11    1    4    4    0    0  0.16467349672E-01 -0.15681605527E-01 -0.79143071594E-02  0.24082851491E-01  0.51100000000E-03 0. -1.
</event>
<event>
 8    1  0.2190512E+004  0.1043930E+01  0.7957747E-01            NaN
         13   -1    0    0    0    0  0.00000000000E+00  0.00000000000E+00  0.74505805969E-08  0.10566000000E+00  0.10566000000E+00 0. -1.
     999900   -1    0    0    0    0 -0.00000000000E+00 -0.00000000000E+00 -0.74505805969E-08  0.93827000000E+00  0.93827000000E+00 0. -1.
     999902    2    1    2    0    0 -0.90568322793E-02 -0.46960052766E-02 -0.10324074323E-01  0.10294156903E+01  0.10293133625E+01 0.  0.
     999903    2    3    3    0    0  0.57861701756E-01 -0.63257672434E-01  0.98561417323E-01  0.13825711327E+00  0.45289808272E-01 0.  0.
         14    1    1    2    0    0  0.90568322793E-02  0.46960052766E-02  0.10324074323E-01  0.14514309736E-01  0.00000000000E+00 0. -1.
     999901    1    3    3    0    0 -0.66918534035E-01  0.58561667157E-01 -0.10888549165E+00  0.89115857699E+00  0.88000000000E+00 0. -1.
        -11    1    4    4    0    0  0.22362798489E-01 -0.56565502491E-01  0.62213461070E-01  0.87008773624E-01  0.51100000000E-03 0.  1.
         11    1    4    4    0    0  0.35498903267E-01 -0.66921699428E-02  0.36347956253E-01  0.51248339646E-01  0.51100000000E-03 0. -1.
</event>
<event>
 8    1  0.2190512E+004  0.1043930E+01  0.7957747E-01            NaN
         13   -1    0    0    0    0  0.00000000000E+00  0.00000000000E+00  0.74505805969E-08  0.10566000000E+00  0.10566000000E+00 0. -1.
     999900   -1    0    0    0    0 -0.00000000000E+00 -0.00000000000E+00 -0.74505805969E-08  0.93827000000E+00  0.93827000000E+00 0. -1.
     999902    2    1    2    0    0  0.20528830025E-02 -0.24137886577E-02 -0.11939830492E-01  0.10315768524E+01  0.10315028852E+01 0.  0.
     999903    2    3    3    0    0 -0.82906541680E-01  0.10434088617E+00  0.94572229920E-02  0.14080611961E+00  0.44456822551E-01 0.  0.
         14    1    1    2    0    0 -0.20528830025E-02  0.24137886577E-02  0.11939830492E-01  0.12353147635E-01  0.00000000000E+00 0. -1.
     999901    1    3    3    0    0  0.84959424683E-01 -0.10675467483E+00 -0.21397053484E-01  0.89077073276E+00  0.88000000000E+00 0.  1.
        -11    1    4    4    0    0 -0.23203241579E-01  0.55848191230E-01  0.18776132563E-01  0.63326259628E-01  0.51100000000E-03 0.  1.
         11    1    4    4    0    0 -0.59703300101E-01  0.48492694943E-01 -0.93189095708E-02  0.77479859979E-01  0.51100000000E-03 0. -1.
</event>
<event>
 8    1  0.2190512E+004  0.1043930E+01  0.7957747E-01            NaN
         13   -1    0    0    0    0  0.00000000000E+00  0.00000000000E+00  0.74505805969E-08  0.10566000000E+00  0.10566000000E+00 0. -1.
     999900   -1    0    0    0    0 -0.00000000000E+00 -0.00000000000E+00 -0.74505805969E-08  0.93827000000E+00  0.93827000000E+00 0. -1.
     999902    2    1    2    0    0  0.90875717940E-02  0.16907517999E-02 -0.99576810284E-02  0.10303433148E+01  0.10302537301E+01 0.  0.
     999903    2    3    3    0    0 -0.46099055777E-01 -0.84027765819E-01 -0.88561476098E-01  0.14097736948E+00  0.53345058677E-01 0.  0.
         14    1    1    2    0    0 -0.90875717940E-02 -0.16907517999E-02  0.99576810284E-02  0.13586685182E-01  0.00000000000E+00 0. -1.
     999901    1    3    3    0    0  0.55186627571E-01  0.85718517619E-01  0.78603795069E-01  0.88936594534E+00  0.88000000000E+00 0.  1.
        -11    1    4    4    0    0  0.10026819498E-01 -0.30741908910E-02 -0.13649829234E-01  0.17221112566E-01  0.51100000000E-03 0. -1.
         11    1    4    4    0    0 -0.56125875275E-01 -0.80953574928E-01 -0.74911646864E-01  0.12375625692E+00  0.51100000000E-03 0.  1.
</event>
<event>
 8    1  0.2190512E+004  0.1043930E+01  0.7957747E-01            NaN
         13   -1    0    0    0    0  0.00000000000E+00  0.00000000000E+00  0.74505805969E-08  0.10566000000E+00  0.10566000000E+00 0. -1.
     999900   -1    0    0    0    0 -0.00000000000E+00 -0.00000000000E+00 -0.74505805969E-08  0.93827000000E+00  0.93827000000E+00 0.  1.
     999902    2    1    2    0    0 -0.12371212943E-01  0.70537437651E-03 -0.56391219698E-02  0.10303158838E+01  0.10302259346E+01 0.  0.
     999903    2    3    3    0    0  0.56455443635E-01 -0.36738433511E-01  0.11284200204E+00  0.13892543954E+00  0.45055862163E-01 0.  0.
         14    1    1    2    0    0  0.12371212943E-01 -0.70537437651E-03  0.56391219698E-02  0.13614116177E-01  0.00000000000E+00 0. -1.
     999901    1    3    3    0    0 -0.68826656578E-01  0.37443807888E-01 -0.11848112401E+00  0.89139044428E+00  0.88000000000E+00 0.  1.
        -11    1    4    4    0    0  0.26237654739E-01 -0.52269606964E-02  0.79810453552E-01  0.84176631326E-01  0.51100000000E-03 0.  1.
         11    1    4    4    0    0  0.30217788896E-01 -0.31511472815E-01  0.33031548488E-01  0.54748808218E-01  0.51100000000E-03 0. -1.
</event>
<event>
 8    1  0.2309295E+004  0.1043930E+01  0.7957747E-01            NaN
         13   -1    0    0    0    0  0.00000000000E+00  0.00000000000E+00  0.74505805969E-08  0.10566000000E+00  0.10566000000E+00 0. -1.
     999900   -1    0    0    0    0 -0.00000000000E+00 -0.00000000000E+00 -0.74505805969E-08  0.93827000000E+00  0.93827000000E+00 0.  1.
     999902    2    1    2    0    0  0.11921755138E-01  0.18927143020E-03 -0.71010170789E-02  0.10300523737E+01  0.10299588846E+01 0.  0.
     999903    2    3    3    0    0 -0.23629995346E-01 -0.12675566392E+00  0.27821965689E-01  0.13954770871E+00  0.45542575852E-01 0.  0.
         14    1    1    2    0    0 -0.11921755138E-01 -0.18927143020E-03  0.71010170789E-02  0.13877626338E-01  0.00000000000E+00 0.  1.
     999901    1    3    3    0    0  0.35551750483E-01  0.12694493535E+00 -0.34922982768E-01  0.89050466495E+00  0.88000000000E+00 0.  1.
        -11    1    4    4    0    0 -0.94603669695E-02 -0.44976608219E-01  0.32694732614E-01  0.56405677833E-01  0.51100000000E-03 0. -1.
         11    1    4    4    0    0 -0.14169628376E-01 -0.81779055703E-01 -0.48727669245E-02  0.83142030877E-01  0.51100000000E-03 0.  1.
</event>
<event>
 8    1  0.2190512E+004  0.1043930E+01  0.7957747E-01            NaN
         13   -1    0    0    0    0  0.00000000000E+00  0.00000000000E+00  0.74505805969E-08  0.10566000000E+00  0.10566000000E+00 0.  1.
     999900   -1    0    0    0    0 -0.00000000000E+00 -0.00000000000E+00 -0.74505805969E-08  0.93827000000E+00  0.93827000000E+00 0. -1.
     999902    2    1    2    0    0 -0.11578867912E-01 -0.54016330724E-02  0.58699580215E-02  0.10298692664E+01  0.10297732768E+01 0.  0.
     999903    2    3    3    0    0 -0.63548233978E-01 -0.73576475766E-01 -0.90882104558E-01  0.14042585292E+00  0.44810572538E-01 0.  0.
         14    1    1    2    0    0  0.11578867912E-01  0.54016330724E-02 -0.58699580215E-02  0.14060733592E-01  0.00000000000E+00 0.  1.
     999901    1    3    3    0    0  0.51969366066E-01  0.68174842694E-01  0.96752062580E-01  0.88944341349E+00  0.88000000000E+00 0.  1.
        -11    1    4    4    0    0 -0.34528059188E-01 -0.10318145180E-01 -0.20593724539E-01  0.41509199012E-01  0.51100000000E-03 0. -1.
         11    1    4    4    0    0 -0.29020174790E-01 -0.63258330586E-01 -0.70288380019E-01  0.98916653907E-01  0.51100000000E-03 0.  1.
</event>
<event>
 8    1  0.2190512E+004  0.1043930E+01  0.7957747E-01            NaN
         13   -1    0    0    0    0  0.00000000000E+00  0.00000000000E+00  0.74505805969E-08  0.10566000000E+00  0.10566000000E+00 0. -1.
     999900   -1    0    0    0    0 -0.00000000000E+00 -0.00000000000E+00 -0.74505805969E-08  0.93827000000E+00  0.93827000000E+00 0. -1.
     999902    2    1    2    0    0 -0.51862996317E-02  0.11572462610E-01 -0.71269474880E-02  0.10293830768E+01  0.10292802853E+01 0.  0.
     999903    2    3    3    0    0 -0.35000845671E-01  0.95543504439E-01 -0.87133241090E-01  0.14127213211E+00  0.44855246852E-01 0.  0.
         14    1    1    2    0    0  0.51862996317E-02 -0.11572462610E-01  0.71269474880E-02  0.14546923222E-01  0.00000000000E+00 0. -1.
     999901    1    3    3    0    0  0.29814546039E-01 -0.83971041829E-01  0.80006293602E-01  0.88811094467E+00  0.88000000000E+00 0. -1.
        -11    1    4    4    0    0 -0.10613202529E-01  0.58890650224E-01 -0.24386719176E-01  0.64619826252E-01  0.51100000000E-03 0.  1.
         11    1    4    4    0    0 -0.24387643141E-01  0.36652854215E-01 -0.62746521914E-01  0.76652305858E-01  0.51100000000E-03 0. -1.
</event>
<event>
 8    1  0.2190512E+004  0.1043930E+01  0.7957747E-01            NaN
         13   -1    0    0    0    0  0.00000000000E+00  0.00000000000E+00  0.74505805969E-08  0.10566000000E+00  0.10566000000E+00 0.  1.
     999900   -1    0    0    0    0 -0.00000000000E+00 -0.00000000000E+00 -0.74505805969E-08  0.93827000000E+00  0.93827000000E+00 0.  1.
     999902    2    1    2    0    0 -0.88888627847E-02 -0.88937175260E-02 -0.14212013506E-01  0.10249539250E+01  0.10247782477E+01 0.  0.
     999903    2    3    3    0    0 -0.11042017817E+00 -0.67379445517E-01  0.40690520078E-03  0.13706716358E+00  0.45328096535E-01 0.  0.
         14    1    1    2    0    0  0.88888627847E-02  0.88937175260E-02  0.14212013506E-01  0.18976074961E-01  0.00000000000E+00 0. -1.
     999901    1    3    3    0    0  0.10153131539E+00  0.58485727991E-01 -0.14618918707E-01  0.88788676145E+00  0.88000000000E+00 0. -1.
        -11    1    4    4    0    0 -0.70649308156E-01 -0.43030418383E-01 -0.21604338216E-01  0.85498246765E-01  0.51100000000E-03 0. -1.
         11    1    4    4    0    0 -0.39770870015E-01 -0.24349027134E-01  0.22011243416E-01  0.51568916819E-01  0.51100000000E-03 0.  1.
</event>
<event>
 8    1  0.2190512E+004  0.1043930E+01  0.7957747E-01            NaN
         13   -1    0    0    0    0  0.00000000000E+00  0.00000000000E+00  0.74505805969E-08  0.10566000000E+00  0.10566000000E+00 0. -1.
     999900   -1    0    0    0    0 -0.00000000000E+00 -0.00000000000E+00 -0.74505805969E-08  0.93827000000E+00  0.93827000000E+00 0.  1.
     999902    2    1    2    0    0 -0.69385345184E-02 -0.12053324417E-01  0.43586670634E-02  0.10293552318E+01  0.10292520436E+01 0.  0.
     999903    2    3    3    0    0  0.62186499545E-02  0.42460321422E-01  0.12456337330E+00  0.13941477280E+00  0.45594894493E-01 0.  0.
         14    1    1    2    0    0  0.69385345184E-02  0.12053324417E-01 -0.43586670634E-02  0.14574768243E-01  0.00000000000E+00 0.  1.
     999901    1    3    3    0    0 -0.13157184473E-01 -0.54513645839E-01 -0.12020470624E+00  0.88994045896E+00  0.88000000000E+00 0.  1.
        -11    1    4    4    0    0  0.21104063347E-01  0.51646974890E-02  0.54243960361E-01  0.58435639353E-01  0.51100000000E-03 0. -1.
         11    1    4    4    0    0 -0.14885413393E-01  0.37295623933E-01  0.70319412942E-01  0.80979133448E-01  0.51100000000E-03 0.  1.
</event>
<event>
 8    1  0.2190512E+004  0.1043930E+01  0.7957747E-01            NaN
         13   -1    0    0    0    0  0.00000000000E+00  0.00000000000E+00  0.74505805969E-08  0.10566000000E+00  0.10566000000E+00 0.  1.
     999900   -1    0    0    0    0 -0.00000000000E+00 -0.00000000000E+00 -0.74505805969E-08  0.93827000000E+00  0.93827000000E+00 0. -1.
     999902    2    1    2    0    0  0.11822269125E-01  0.80085922715E-03 -0.61637200340E-02  0.10305733961E+01  0.10304868393E+01 0.  0.
     999903    2    3    3    0    0 -0.11948410933E+00 -0.33080642835E-01  0.43203219846E-01  0.13881871238E+00  0.45092520337E-01 0.  0.
         14    1    1    2    0    0 -0.11822269125E-01 -0.80085922715E-03  0.61637200340E-02  0.13356603888E-01  0.00000000000E+00 0.  1.
     999901    1    3    3    0    0  0.13130637845E+00  0.33881502062E-01 -0.49366939880E-01  0.89175468373E+00  0.88000000000E+00 0. -1.
        -11    1    4    4    0    0 -0.58264363280E-01 -0.15003922906E-01 -0.26444675797E-02  0.60225476841E-01  0.51100000000E-03 0.  1.
         11    1    4    4    0    0 -0.61219746045E-01 -0.18076719928E-01  0.45847687426E-01  0.78593235539E-01  0.51100000000E-03 0. -1.
</event>
<event>
 8    1  0.2190512E+004  0.1043930E+01  0.7957747E-01            NaN
         13   -1    0    0    0    0  0.00000000000E+00  0.00000000000E+00  0.74505805969E-08  0.10566000000E+00  0.10566000000E+00 0. -1.
     999900   -1    0    0    0    0 -0.00000000000E+00 -0.00000000000E+00 -0.74505805969E-08  0.93827000000E+00  0.93827000000E+00 0.  1.
     999902    2    1    2    0    0  0.97872591799E-02  0.31697023218E-02  0.87819764536E-02  0.10304037084E+01  0.10303149235E+01 0.  0.
     999903    2    3    3    0    0  0.91243585522E-01  0.22630716773E-01  0.97145680945E-01  0.14202202887E+00  0.43536560699E-01 0.  0.
         14    1    1    2    0    0 -0.97872591799E-02 -0.31697023218E-02 -0.87819764536E-02  0.13526291639E-01  0.00000000000E+00 0. -1.
     999901    1    3    3    0    0 -0.81456326342E-01 -0.19461014452E-01 -0.88363704491E-01  0.88838167949E+00  0.88000000000E+00 0. -1.
        -11    1    4    4    0    0  0.34669406150E-01  0.28628336364E-01  0.30192828510E-01  0.54161031934E-01  0.51100000000E-03 0.  1.
         11    1    4    4    0    0  0.56574179372E-01 -0.59976195907E-02  0.66952852434E-01  0.87860996935E-01  0.51100000000E-03 0. -1.
</event>
<event>
 8    1  0.2190512E+004  0.1043930E+01  0.7957747E-01            NaN
         13   -1    0    0    0    0  0.00000000000E+00  0.00000000000E+00  0.74505805969E-08  0.10566000000E+00  0.10566000000E+00 0. -1.
     999900   -1    0    0    0    0 -0.00000000000E+00 -0.00000000000E+00 -0.74505805969E-08  0.93827000000E+00  0.93827000000E+00 0. -1.
     999902    2    1    2    0    0 -0.18131555107E-02 -0.11964720839E-01 -0.42033674098E-02  0.10311194428E+01  0.10310398610E+01 0.  0.
     999903    2    3    3    0    0  0.98347480831E-01 -0.33476332480E-01 -0.84850327997E-01  0.14151344309E+00  0.45095283472E-01 0.  0.
         14    1    1    2    0    0  0.18131555107E-02  0.11964720839E-01  0.42033674098E-02  0.12810557179E-01  0.00000000000E+00 0.  1.
     999901    1    3    3    0    0 -0.10016063634E+00  0.21511611641E-01  0.80646960587E-01  0.88960599973E+00  0.88000000000E+00 0. -1.
        -11    1    4    4    0    0  0.55953303743E-01 -0.35572458019E-01 -0.31704037351E-01  0.73495435740E-01  0.51100000000E-03 0.  1.
         11    1    4    4    0    0  0.42394177088E-01  0.20961255388E-02 -0.53146290646E-01  0.68018007348E-01  0.51100000000E-03 0. -1.
</event>
<event>
 8    1  0.2190512E+004  0.1043930E+01  0.7957747E-01            NaN
         13   -1    0    0    0    0  0.00000000000E+00  0.00000000000E+00  0.74505805969E-08  0.10566000000E+00  0.10566000000E+00 0. -1.
     999900   -1    0    0    0    0 -0.00000000000E+00 -0.00000000000E+00 -0.74505805969E-08  0.93827000000E+00  0.93827000000E+00 0. -1.
     999902    2    1    2    0    0 -0.37362179723E-02 -0.55908022471E-02  0.11864850653E-01  0.10302921455E+01  0.10302018802E+01 0.  0.
     999903    2    3    3    0    0  0.24265676434E-01  0.12433311456E+00 -0.35284494631E-01  0.13906412136E+00  0.45235913376E-01 0.  0.
         14    1    1    2    0    0  0.37362179723E-02  0.55908022471E-02 -0.11864850653E-01  0.13637854506E-01  0.00000000000E+00 0.  1.
     999901    1    3    3    0    0 -0.28001894406E-01 -0.12992391680E+00  0.47149345284E-01  0.89122802414E+00  0.88000000000E+00 0. -1.
        -11    1    4    4    0    0  0.32887249049E-01  0.55606752729E-01 -0.23806326140E-01  0.68852628013E-01  0.51100000000E-03 0.  1.
         11    1    4    4    0    0 -0.86215726152E-02  0.68726361829E-01 -0.11478168491E-01  0.70211493343E-01  0.51100000000E-03 0. -1.
</event>
<event>
 8    1  0.2190512E+004  0.1043930E+01  0.7957747E-01            NaN
         13   -1    0    0    0    0  0.00000000000E+00  0.00000000000E+00  0.74505805969E-08  0.10566000000E+00  0.10566000000E+00 0. -1.
     999900   -1    0    0    0    0 -0.00000000000E+00 -0.00000000000E+00 -0.74505805969E-08  0.93827000000E+00  0.93827000000E+00 0.  1.
     999902    2    1    2    0    0 -0.12788502542E-01  0.18728258008E-02 -0.70366788523E-02  0.10292137463E+01  0.10291085305E+01 0.  0.
     999903    2    3    3    0    0 -0.12562726127E+00 -0.27099404801E-01  0.34728835855E-01  0.14055389358E+00  0.45085678926E-01 0.  0.
         14    1    1    2    0    0  0.12788502542E-01 -0.18728258008E-02  0.70366788523E-02  0.14716253702E-01  0.00000000000E+00 0. -1.
     999901    1    3    3    0    0  0.11283875873E+00  0.28972230601E-01 -0.41765514707E-01  0.88865985272E+00  0.88000000000E+00 0.  1.
        -11    1    4    4    0    0 -0.67457525971E-01 -0.72190614957E-02 -0.38879415047E-02  0.67955940647E-01  0.51100000000E-03 0.  1.
         11    1    4    4    0    0 -0.58169735303E-01 -0.19880343305E-01  0.38616777360E-01  0.72597952931E-01  0.51100000000E-03 0. -1.
</event>
<event>
 8    1  0.2190512E+004  0.1043930E+01  0.7957747E-01            NaN
         13   -1    0    0    0    0  0.00000000000E+00  0.00000000000E+00  0.74505805969E-08  0.10566000000E+00  0.10566000000E+00 0.  1.
     999900   -1    0    0    0    0 -0.00000000000E+00 -0.00000000000E+00 -0.74505805969E-08  0.93827000000E+00  0.93827000000E+00 0.  1.
     999902    2    1    2    0    0 -0.60737803304E-02 -0.12095803565E-01  0.22147516420E-02  0.10302148844E+01  0.10301235866E+01 0.  0.
     999903    2    3    3    0    0  0.59347863407E-01  0.10813008853E+00 -0.44763593131E-01  0.13839583241E+00  0.43992524610E-01 0.  0.
         14    1    1    2    0    0  0.60737803304E-02  0.12095803565E-01 -0.22147516420E-02  0.13715115611E-01  0.00000000000E+00 0. -1.
     999901    1    3    3    0    0 -0.65421643737E-01 -0.12022589209E+00  0.46978344773E-01  0.89181905198E+00  0.88000000000E+00 0. -1.
        -11    1    4    4    0    0  0.22192418124E-01  0.30964768439E-01 -0.35802777548E-01  0.52282122258E-01  0.51100000000E-03 0. -1.
         11    1    4    4    0    0  0.37155445283E-01  0.77165320091E-01 -0.89608155828E-02  0.86113710150E-01  0.51100000000E-03 0.  1.
</event>
<event>
 8    1  0.2190512E+004  0.1043930E+01  0.7957747E-01            NaN
         13   -1    0    0    0    0  0.00000000000E+00  0.00000000000E+00  0.74505805969E-08  0.10566000000E+00  0.10566000000E+00 0.  1.
     999900   -1    0    0    0    0 -0.00000000000E+00 -0.00000000000E+00 -0.74505805969E-08  0.93827000000E+00  0.93827000000E+00 0.  1.
     999902    2    1    2    0    0  0.64727856302E-02 -0.26950301688E-02 -0.13078639097E-01  0.10290904939E+01  0.10289834953E+01 0.  0.
     999903    2    3    3    0    0 -0.12143779497E+00  0.47855854351E-01 -0.85797127928E-03  0.13832349107E+00  0.45774788100E-01 0.  0.
         14    1    1    2    0    0 -0.64727856302E-02  0.26950301688E-02  0.13078639097E-01  0.14839506125E-01  0.00000000000E+00 0.  1.
     999901    1    3    3    0    0  0.12791058060E+00 -0.50550884520E-01 -0.12220667817E-01  0.89076700280E+00  0.88000000000E+00 0.  1.
        -11    1    4    4    0    0 -0.43605929794E-01  0.29230745814E-01 -0.19752765317E-01  0.56092303150E-01  0.51100000000E-03 0.  1.
         11    1    4    4    0    0 -0.77831865176E-01  0.18625108537E-01  0.18894794037E-01  0.82231187925E-01  0.51100000000E-03 0. -1.
</event>
<event>
 8    1  0.2190512E+004  0.1043930E+01  0.7957747E-01            NaN
         13   -1    0    0    0    0  0.00000000000E+00  0.00000000000E+00  0.74505805969E-08  0.10566000000E+00  0.10566000000E+00 0. -1.
     999900   -1    0    0    0    0 -0.00000000000E+00 -0.00000000000E+00 -0.74505805969E-08  0.93827000000E+00  0.93827000000E+00 0. -1.
     999902    2    1    2    0    0 -0.61991837637E-02  0.11085415339E-01 -0.97609964394E-03  0.10311915117E+01  0.10311128284E+01 0.  0.
     999903    2    3    3    0    0 -0.12457733906E+00  0.77446216909E-02 -0.50423633161E-01  0.14188301233E+00  0.44819123526E-01 0.  0.
         14    1    1    2    0    0  0.61991837637E-02 -0.11085415339E-01  0.97609964394E-03  0.12738488258E-01  0.00000000000E+00 0.  1.
     999901    1    3    3    0    0  0.11837815530E+00  0.33407936485E-02  0.49447533517E-01  0.88930849941E+00  0.88000000000E+00 0.  1.
        -11    1    4    4    0    0 -0.79791260447E-01  0.20659338207E-01 -0.16065438457E-01  0.83975073282E-01  0.51100000000E-03 0.  1.
         11    1    4    4    0    0 -0.44786078616E-01 -0.12914716516E-01 -0.34358194704E-01  0.57907939048E-01  0.51100000000E-03 0. -1.
</event>
<event>
 8    1  0.2190512E+004  0.1043930E+01  0.7957747E-01            NaN
         13   -1    0    0    0    0  0.00000000000E+00  0.00000000000E+00  0.74505805969E-08  0.10566000000E+00  0.10566000000E+00 0. -1.
     999900   -1    0    0    0    0 -0.00000000000E+00 -0.00000000000E+00 -0.74505805969E-08  0.93827000000E+00  0.93827000000E+00 0.  1.
     999902    2    1    2    0    0 -0.11373539586E-01 -0.78303528982E-02 -0.70768312525E-02  0.10284137708E+01  0.10282967133E+01 0.  0.
     999903    2    3    3    0    0  0.67860974205E-02  0.62439035787E-02  0.12990775311E+00  0.13751948216E+00  0.44164988455E-01 0.  0.
         14    1    1    2    0    0  0.11373539586E-01  0.78303528982E-02  0.70768312525E-02  0.15516229239E-01  0.00000000000E+00 0.  1.
     999901    1    3    3    0    0 -0.18159637006E-01 -0.14074256477E-01 -0.13698458436E+00  0.89089428860E+00  0.88000000000E+00 0.  1.
        -11    1    4    4    0    0 -0.77576129855E-02 -0.47236723140E-02  0.34086879403E-02  0.97146237106E-02  0.51100000000E-03 0. -1.
         11    1    4    4    0    0  0.14543710406E-01  0.10967575893E-01  0.12649906517E+00  0.12780485845E+00  0.51100000000E-03 0.  1.
</event>
<event>
 8    1  0.2190512E+004  0.1043930E+01  0.7957747E-01            NaN
         13   -1    0    0    0    0  0.00000000000E+00  0.00000000000E+00  0.74505805969E-08  0.10566000000E+00  0.10566000000E+00 0. -1.
     999900   -1    0    0    0    0 -0.00000000000E+00 -0.00000000000E+00 -0.74505805969E-08  0.93827000000E+00  0.93827000000E+00 0. -1.
     999902    2    1    2    0    0 -0.29397645296E-02  0.38511919924E-02  0.13191837972E-01  0.10298765846E+01  0.10297806956E+01 0.  0.
     999903    2    3    3    0    0 -0.54848383343E-01  0.39758595391E-01  0.11605730096E+00  0.14163948236E+00  0.44758851574E-01 0.  0.
         14    1    1    2    0    0  0.29397645296E-02 -0.38511919924E-02 -0.13191837972E-01  0.14053415397E-01  0.00000000000E+00 0.  1.
     999901    1    3    3    0    0  0.51908618813E-01 -0.35907403399E-01 -0.10286546299E+00  0.88823710224E+00  0.88000000000E+00 0. -1.
        -11    1    4    4    0    0 -0.86553352484E-02  0.80995414512E-02  0.64289052787E-01  0.65374772116E-01  0.51100000000E-03 0. -1.
         11    1    4    4    0    0 -0.46193048094E-01  0.31659053940E-01  0.51768248173E-01  0.76264710243E-01  0.51100000000E-03 0.  1.
</event>
<event>
 8    1  0.2190512E+004  0.1043930E+01  0.7957747E-01            NaN
         13   -1    0    0    0    0  0.00000000000E+00  0.00000000000E+00  0.74505805969E-08  0.10566000000E+00  0.10566000000E+00 0. -1.
     999900   -1    0    0    0    0 -0.00000000000E+00 -0.00000000000E+00 -0.74505805969E-08  0.93827000000E+00  0.93827000000E+00 0. -1.
     999902    2    1    2    0    0  0.11455175155E-01 -0.42269119477E-02 -0.78967107457E-02  0.10293888218E+01  0.10292861121E+01 0.  0.
     999903    2    3    3    0    0 -0.51681911269E-01 -0.11914433491E+00 -0.24386796829E-01  0.13952128745E+00  0.44778134133E-01 0.  0.
         14    1    1    2    0    0 -0.11455175155E-01  0.42269119477E-02  0.78967107457E-02  0.14541178186E-01  0.00000000000E+00 0.  1.
     999901    1    3    3    0    0  0.63137086424E-01  0.11491742297E+00  0.16490086083E-01  0.88986753437E+00  0.88000000000E+00 0. -1.
        -11    1    4    4    0    0 -0.45487026640E-01 -0.11637685441E+00 -0.32325920168E-01  0.12906536356E+00  0.51100000000E-03 0.  1.
         11    1    4    4    0    0 -0.61948846297E-02 -0.27674805029E-02  0.79391233395E-02  0.10455923886E-01  0.51100000000E-03 0. -1.
</event>
<event>
 8    1  0.2190512E+004  0.1043930E+01  0.7957747E-01            NaN
         13   -1    0    0    0    0  0.00000000000E+00  0.00000000000E+00  0.74505805969E-08  0.10566000000E+00  0.10566000000E+00 0. -1.
     999900   -1    0    0    0    0 -0.00000000000E+00 -0.00000000000E+00 -0.74505805969E-08  0.93827000000E+00  0.93827000000E+00 0.  1.
     999902    2    1    2    0    0 -0.25760290102E-02 -0.13627163850E-01 -0.13462670539E-02  0.10299963015E+01  0.10299020502E+01 0.  0.
     999903    2    3    3    0    0 -0.93209402421E-02  0.90379589510E-01 -0.94432276021E-01  0.13896998106E+00  0.46258520893E-01 0.  0.
         14    1    1    2    0    0  0.25760290102E-02  0.13627163850E-01  0.13462670539E-02  0.13933698542E-01  0.00000000000E+00 0.  1.
     999901    1    3    3    0    0  0.67449112319E-02 -0.10400675336E+00  0.93086008967E-01  0.89102632040E+00  0.88000000000E+00 0.  1.
        -11    1    4    4    0    0  0.18715984403E-01  0.33823930027E-01 -0.39808559872E-01  0.55491700954E-01  0.51100000000E-03 0. -1.
         11    1    4    4    0    0 -0.28036924645E-01  0.56555659483E-01 -0.54623716148E-01  0.83478280109E-01  0.51100000000E-03 0.  1.
</event>
<event>
 7    1  0.2190512E+004  0.1043930E+01  0.7957747E-01            NaN
         13   -1    0    0    0    0  0.00000000000E+00  0.00000000000E+00  0.74505805969E-08  0.10566000000E+00  0.10566000000E+00 0. -1.
     999900   -1    0    0    0    0 -0.00000000000E+00 -0.00000000000E+00 -0.74505805969E-08  0.93827000000E+00  0.93827000000E+00 0. -1.
     999902    2    1    2    0    0 -0.20708651648E-02  0.64192532987E-02  0.11027163521E-01  0.10310035298E+01  0.10309224922E+01 0.  0.
         14    1    1    2    0    0  0.20708651648E-02 -0.64192532987E-02 -0.11027163521E-01  0.12926470159E-01  0.00000000000E+00 0.  1.
     999901    1    3    3    0    0 -0.94090398595E-01  0.10889782647E+00  0.19685278662E-01  0.89190764652E+00  0.88000000000E+00 0. -1.
        -11    1    3    3    0    0  0.21713278146E-01 -0.35657675149E-01 -0.46413927158E-03  0.41754194892E-01  0.51100000000E-03 0.  1.
         11    1    3    3    0    0  0.70306255284E-01 -0.66820898027E-01 -0.81939758695E-02  0.97341688432E-01  0.51100000000E-03 0. -1.
</event>
<event>
 8    1  0.2190512E+004  0.1043930E+01  0.7957747E-01            NaN
         13   -1    0    0    0    0  0.00000000000E+00  0.00000000000E+00  0.74505805969E-08  0.10566000000E+00  0.10566000000E+00 0.  1.
     999900   -1    0    0    0    0 -0.00000000000E+00 -0.00000000000E+00 -0.74505805969E-08  0.93827000000E+00  0.93827000000E+00 0. -1.
     999902    2    1    2    0    0 -0.15125348776E-03 -0.12275449812E-01  0.73370036147E-02  0.10296282110E+01  0.10295288786E+01 0.  0.
     999903    2    3    3    0    0 -0.13197670450E-01 -0.12504698710E+00 -0.44928183741E-01  0.14079792440E+00  0.44660791903E-01 0.  0.
         14    1    1    2    0    0  0.15125348776E-03  0.12275449812E-01 -0.73370036147E-02  0.14301788970E-01  0.00000000000E+00 0.  1.
     999901    1    3    3    0    0  0.13046416963E-01  0.11277153729E+00  0.52265187355E-01  0.88883028663E+00  0.88000000000E+00 0.  1.
        -11    1    4    4    0    0  0.13772188595E-01 -0.69003931761E-01 -0.15802955624E-01  0.72119416974E-01  0.51100000000E-03 0.  1.
         11    1    4    4    0    0 -0.26969859045E-01 -0.56043055339E-01 -0.29125228116E-01  0.68678507428E-01  0.51100000000E-03 0. -1.
</event>
<event>
 8    1  0.2190512E+004  0.1043930E+01  0.7957747E-01            NaN
         13   -1    0    0    0    0  0.00000000000E+00  0.00000000000E+00  0.74505805969E-08  0.10566000000E+00  0.10566000000E+00 0. -1.
     999900   -1    0    0    0    0 -0.00000000000E+00 -0.00000000000E+00 -0.74505805969E-08  0.93827000000E+00  0.93827000000E+00 0. -1.
     999902    2    1    2    0    0  0.11833440673E-01  0.44397203532E-02  0.51362548040E-02  0.10302873262E+01  0.10301969967E+01 0.  0.
     999903    2    3    3    0    0  0.90401619518E-01  0.86478409989E-01 -0.48042473583E-01  0.14139403537E+00  0.45091304770E-01 0.  0.
         14    1    1    2    0    0 -0.11833440673E-01 -0.44397203532E-02 -0.51362548040E-02  0.13642673799E-01  0.00000000000E+00 0. -1.
     999901    1    3    3    0    0 -0.78568178845E-01 -0.82038689636E-01  0.53178728387E-01  0.88889329083E+00  0.88000000000E+00 0. -1.
        -11    1    4    4    0    0  0.17667501504E-01  0.16012289106E-02 -0.18798487405E-01  0.25852442692E-01  0.51100000000E-03 0. -1.
         11    1    4    4    0    0  0.72734118014E-01  0.84877181078E-01 -0.29243986178E-01  0.11554159268E+00  0.51100000000E-03 0.  1.
</event>
<event>
 8    1  0.2190512E+004  0.1043930E+01  0.7957747E-01            NaN
         13   -1    0    0    0    0  0.00000000000E+00  0.00000000000E+00  0.74505805969E-08  0.10566000000E+00  0.10566000000E+00 0. -1.
     999900   -1    0    0    0    0 -0.00000000000E+00 -0.00000000000E+00 -0.74505805969E-08  0.93827000000E+00  0.93827000000E+00 0.  1.
     999902    2    1    2    0    0  0.76106867163E-02  0.35771912175E-02 -0.11277068861E-01  0.10298626217E+01  0.10297665408E+01 0.  0.
     999903    2    3    3    0    0  0.14667395056E-01 -0.42336596132E-01  0.12300116449E+00  0.13846567482E+00  0.45121356235E-01 0.  0.
         14    1    1    2    0    0 -0.76106867163E-02 -0.35771912175E-02  0.11277068861E-01  0.14067378271E-01  0.00000000000E+00 0. -1.
     999901    1    3    3    0    0 -0.70567083393E-02  0.45913787349E-01 -0.13427823335E+00  0.89139694691E+00  0.88000000000E+00 0. -1.
        -11    1    4    4    0    0  0.26773220742E-01 -0.93856161161E-02  0.58950328919E-01  0.65423982907E-01  0.51100000000E-03 0.  1.
         11    1    4    4    0    0 -0.12105825686E-01 -0.32950980015E-01  0.64050835572E-01  0.73041691916E-01  0.51100000000E-03 0. -1.
</event>
<event>
 8    1  0.2190512E+004  0.1043930E+01  0.7957747E-01            NaN
         13   -1    0    0    0    0  0.00000000000E+00  0.00000000000E+00  0.74505805969E-08  0.10566000000E+00  0.10566000000E+00 0.  1.
     999900   -1    0    0    0    0 -0.00000000000E+00 -0.00000000000E+00 -0.74505805969E-08  0.93827000000E+00  0.93827000000E+00 0.  1.
     999902    2    1    2    0    0  0.11372586852E-01 -0.67831618689E-02  0.21259604480E-02  0.10305185599E+01  0.10304312862E+01 0.  0.
     999903    2    3    3    0    0 -0.11647277591E-01 -0.13248809678E+00  0.14813696775E-01  0.14119712004E+00  0.45038053152E-01 0.  0.
         14    1    1    2    0    0 -0.11372586852E-01  0.67831618689E-02 -0.21259604480E-02  0.13411440060E-01  0.00000000000E+00 0.  1.
     999901    1    3    3    0    0  0.23019864443E-01  0.12570493491E+00 -0.12687736327E-01  0.88932143990E+00  0.88000000000E+00 0. -1.
        -11    1    4    4    0    0 -0.17150728461E-01 -0.11208369248E+00  0.27321062936E-01  0.11663448550E+00  0.51100000000E-03 0.  1.
         11    1    4    4    0    0  0.55034508699E-02 -0.20404404300E-01 -0.12507366161E-01  0.24562634541E-01  0.51100000000E-03 0. -1.
</event>
<event>
 8    1  0.2190512E+004  0.1043930E+01  0.7957747E-01            NaN
         13   -1    0    0    0    0  0.00000000000E+00  0.00000000000E+00  0.74505805969E-08  0.10566000000E+00  0.10566000000E+00 0.  1.
     999900   -1    0    0    0    0 -0.00000000000E+00 -0.00000000000E+00 -0.74505805969E-08  0.93827000000E+00  0.93827000000E+00 0.  1.
     999902    2    1    2    0    0  0.12793307816E-01  0.45786870822E-02 -0.32079151790E-02  0.10299684879E+01  0.10298738574E+01 0.  0.
     999903    2    3    3    0    0 -0.11492519972E+00  0.63149343432E-01 -0.84413122467E-02  0.13880636606E+00  0.44724829804E-01 0.  0.
         14    1    1    2    0    0 -0.12793307816E-01 -0.45786870822E-02  0.32079151790E-02  0.13961512098E-01  0.00000000000E+00 0. -1.
     999901    1    3    3    0    0  0.12771850754E+00 -0.58570656350E-01  0.52333970677E-02  0.89116212184E+00  0.88000000000E+00 0. -1.
        -11    1    4    4    0    0 -0.66152006198E-01  0.39901614289E-01 -0.26749851465E-01  0.81755993182E-01  0.51100000000E-03 0.  1.
         11    1    4    4    0    0 -0.48773193523E-01  0.23247729143E-01  0.18308539219E-01  0.57050372883E-01  0.51100000000E-03 0. -1.
</event>
<event>
 8    1  0.2190512E+004  0.1043930E+01  0.7957747E-01            NaN
         13   -1    0    0    0    0  0.00000000000E+00  0.00000000000E+00  0.74505805969E-08  0.10566000000E+00  0.10566000000E+00 0. -1.
     999900   -1    0    0    0    0 -0.00000000000E+00 -0.00000000000E+00 -0.74505805969E-08  0.93827000000E+00  0.93827000000E+00 0. -1.
     999902    2    1    2    0    0 -0.21252316857E-02 -0.15947011916E-01 -0.21220450169E-02  0.10277026504E+01  0.10275745281E+01 0.  0.
     999903    2    3    3    0    0  0.90746609610E-01  0.82978591717E-01 -0.38397238396E-01  0.13656442120E+00  0.45333203960E-01 0.  0.
         14    1    1    2    0    0  0.21252316857E-02  0.15947011916E-01  0.21220450169E-02  0.16227349563E-01  0.00000000000E+00 0.  1.
     999901    1    3    3    0    0 -0.92871841296E-01 -0.98925603633E-01  0.36275193379E-01  0.89113822924E+00  0.88000000000E+00 0.  1.
        -11    1    4    4    0    0  0.43207935049E-01  0.10662994842E-01 -0.13601203266E-01  0.46539004732E-01  0.51100000000E-03 0.  1.
         11    1    4    4    0    0  0.47538674561E-01  0.72315596875E-01 -0.24796035129E-01  0.90025416464E-01  0.51100000000E-03 0. -1.
</event>
<event>
 8    1  0.2190512E+004  0.1043930E+01  0.7957747E-01            NaN
         13   -1    0    0    0    0  0.00000000000E+00  0.00000000000E+00  0.74505805969E-08  0.10566000000E+00  0.10566000000E+00 0.  1.
     999900   -1    0    0    0    0 -0.00000000000E+00 -0.00000000000E+00 -0.74505805969E-08  0.93827000000E+00  0.93827000000E+00 0.  1.
     999902    2    1    2    0    0  0.36886362735E-02 -0.83273164515E-02  0.11178779306E-01  0.10295107301E+01  0.10294097474E+01 0.  0.
     999903    2    3    3    0    0 -0.11173737858E-02  0.18082962355E-01 -0.12788084730E+00  0.13818689430E+00  0.49131096043E-01 0.  0.
         14    1    1    2    0    0 -0.36886362735E-02  0.83273164515E-02 -0.11178779306E-01  0.14419269871E-01  0.00000000000E+00 0.  1.
     999901    1    3    3    0    0  0.48060100594E-02 -0.26410278807E-01  0.13905962661E+00  0.89132383583E+00  0.88000000000E+00 0. -1.
        -11    1    4    4    0    0 -0.12116903346E-01 -0.12801947294E-01 -0.63964288595E-01  0.66350588073E-01  0.51100000000E-03 0.  1.
         11    1    4    4    0    0  0.10999529561E-01  0.30884909649E-01 -0.63916558709E-01  0.71836306230E-01  0.51100000000E-03 0. -1.
</event>
<event>
 8    1  0.2190512E+004  0.1043930E+01  0.7957747E-01            NaN
         13   -1    0    0    0    0  0.00000000000E+00  0.00000000000E+00  0.74505805969E-08  0.10566000000E+00  0.10566000000E+00 0. -1.
     999900   -1    0    0    0    0 -0.00000000000E+00 -0.00000000000E+00 -0.74505805969E-08  0.93827000000E+00  0.93827000000E+00 0. -1.
     999902    2    1    2    0    0 -0.86805941337E-02  0.11188846028E-01  0.33181767486E-02  0.10293851285E+01  0.10292823663E+01 0.  0.
     999903    2    3    3    0    0  0.85268061987E-03  0.13073451641E+00 -0.25958829482E-01  0.14076867934E+00  0.45273826958E-01 0.  0.
         14    1    1    2    0    0  0.86805941337E-02 -0.11188846028E-01 -0.33181767486E-02  0.14544871498E-01  0.00000000000E+00 0.  1.
     999901    1    3    3    0    0 -0.95332747536E-02 -0.11954567039E+00  0.29277006230E-01  0.88861644917E+00  0.88000000000E+00 0.  1.
        -11    1    4    4    0    0  0.10876319117E-01  0.28494318189E-01  0.97243085933E-02  0.32016304990E-01  0.51100000000E-03 0. -1.
         11    1    4    4    0    0 -0.10023638497E-01  0.10224019823E+00 -0.35683138075E-01  0.10875237435E+00  0.51100000000E-03 0.  1.
</event>
<event>
 8    1  0.2190512E+004  0.1043930E+01  0.7957747E-01            NaN
         13   -1    0    0    0    0  0.00000000000E+00  0.00000000000E+00  0.74505805969E-08  0.10566000000E+00  0.10566000000E+00 0. -1.
     999900   -1    0    0    0    0 -0.00000000000E+00 -0.00000000000E+00 -0.74505805969E-08  0.93827000000E+00  0.93827000000E+00 0.  1.
     999902    2    1    2    0    0  0.11349055912E-02  0.11920108571E-01 -0.70330292641E-02  0.10300432977E+01  0.10299496855E+01 0.  0.
     999903    2    3    3    0    0 -0.94384560918E-01  0.93935186257E-01 -0.70642929112E-02  0.14108298230E+00  0.46067766423E-01 0.  0.
         14    1    1    2    0    0 -0.11349055912E-02 -0.11920108571E-01  0.70330292641E-02  0.13886702261E-01  0.00000000000E+00 0. -1.
     999901    1    3    3    0    0  0.95519466509E-01 -0.82015077686E-01  0.31263647024E-04  0.88896031544E+00  0.88000000000E+00 0. -1.
        -11    1    4    4    0    0 -0.39618086340E-01  0.12080892514E-01  0.55450936201E-02  0.41791744561E-01  0.51100000000E-03 0. -1.
         11    1    4    4    0    0 -0.54766474577E-01  0.81854293743E-01 -0.12609386531E-01  0.99291237738E-01  0.51100000000E-03 0.  1.
</event>
<event>
 8    1  0.2190512E+004  0.1043930E+01  0.7957747E-01            NaN
         13   -1    0    0    0    0  0.00000000000E+00  0.00000000000E+00  0.74505805969E-08  0.10566000000E+00  0.10566000000E+00 0. -1.
     999900   -1    0    0    0    0 -0.00000000000E+00 -0.00000000000E+00 -0.74505805969E-08  0.93827000000E+00  0.93827000000E+00 0.  1.
     999902    2    1    2    0    0 -0.11117851998E-01 -0.61345808753E-02 -0.28829197000E-02  0.10309088272E+01  0.10308265902E+01 0.  0.
     999903    2    3    3    0    0 -0.38768638306E-01  0.62430129292E-01 -0.11170193798E+00  0.14112949263E+00  0.45162842916E-01 0.  0.
         14    1    1    2    0    0  0.11117851998E-01  0.61345808753E-02  0.28829197000E-02  0.13021172818E-01  0.00000000000E+00 0. -1.
     999901    1    3    3    0    0  0.27650786308E-01 -0.68564710167E-01  0.10881901828E+00  0.88977933456E+00  0.88000000000E+00 0. -1.
        -11    1    4    4    0    0 -0.12239073330E-01 -0.53558709098E-02 -0.19787596856E-01  0.23880753328E-01  0.51100000000E-03 0.  1.
         11    1    4    4    0    0 -0.26529564976E-01  0.67786000202E-01 -0.91914341126E-01  0.11724873930E+00  0.51100000000E-03 0. -1.
</event>
<event>
 8    1  0.2190512E+004  0.1043930E+01  0.7957747E-01            NaN
         13   -1    0    0    0    0  0.00000000000E+00  0.00000000000E+00  0.74505805969E-08  0.10566000000E+00  0.10566000000E+00 0. -1.
     999900   -1    0    0    0    0 -0.00000000000E+00 -0.00000000000E+00 -0.74505805969E-08  0.93827000000E+00  0.93827000000E+00 0. -1.
     999902    2    1    2    0    0 -0.80873089834E-02 -0.99801753681E-02 -0.43042716941E-02  0.10303824828E+01  0.10302934173E+01 0.  0.
     999903    2    3    3    0    0  0.39872797505E-01 -0.21784489559E-01 -0.12544686183E+00  0.14071117228E+00  0.44702515538E-01 0.  0.
         14    1    1    2    0    0  0.80873089834E-02  0.99801753681E-02  0.43042716941E-02  0.13547517182E-01  0.00000000000E+00 0. -1.
     999901    1    3    3    0    0 -0.47960106489E-01  0.11804314191E-01  0.12114259014E+00  0.88967131054E+00  0.88000000000E+00 0.  1.
        -11    1    4    4    0    0  0.92371702665E-02 -0.26882639690E-01 -0.85541010425E-01  0.90141706312E-01  0.51100000000E-03 0. -1.
         11    1    4    4    0    0  0.30635627239E-01  0.50981501313E-02 -0.39905851405E-01  0.50569465970E-01  0.51100000000E-03 0.  1.
</event>
<event>
 8    1  0.2190512E+004  0.1043930E+01  0.7957747E-01            NaN
         13   -1    0    0    0    0  0.00000000000E+00  0.00000000000E+00  0.74505805969E-08  0.10566000000E+00  0.10566000000E+00 0.  1.
     999900   -1    0    0    0    0 -0.00000000000E+00 -0.00000000000E+00 -0.74505805969E-08  0.93827000000E+00  0.93827000000E+00 0. -1.
     999902    2    1    2    0    0  0.35331036589E-02  0.10629069070E-01  0.73725963944E-02  0.10305204844E+01  0.10304332359E+01 0.  0.
     999903    2    3    3    0    0 -0.27990348044E-01  0.12973272776E+00  0.22043630344E-01  0.14181656929E+00  0.44855071602E-01 0.  0.
         14    1    1    2    0    0 -0.35331036589E-02 -0.10629069070E-01 -0.73725963944E-02  0.13409515590E-01  0.00000000000E+00 0.  1.
     999901    1    3    3    0    0  0.31523451703E-01 -0.11910365869E+00 -0.14671033949E-01  0.88870391513E+00  0.88000000000E+00 0.  1.
        -11    1    4    4    0    0 -0.11449833170E-01  0.10744117277E+00  0.31398248096E-01  0.11252028879E+00  0.51100000000E-03 0.  1.
         11    1    4    4    0    0 -0.16540514874E-01  0.22291554996E-01 -0.93546177523E-02  0.29296280493E-01  0.51100000000E-03 0. -1.
</event>
<event>
 8    1  0.2190512E+004  0.1043930E+01  0.7957747E-01            NaN
         13   -1    0    0    0    0  0.00000000000E+00  0.00000000000E+00  0.74505805969E-08  0.10566000000E+00  0.10566000000E+00 0.  1.
     999900   -1    0    0    0    0 -0.00000000000E+00 -0.00000000000E+00 -0.74505805969E-08  0.93827000000E+00  0.93827000000E+00 0.  1.
     999902    2    1    2    0    0  0.12451465004E-01  0.13419901540E-02 -0.50582117709E-03  0.10313962147E+01  0.10313200551E+01 0.  0.
     999903    2    3    3    0    0 -0.13353775776E-01 -0.11021236844E+00  0.74119752099E-01  0.14084623771E+00  0.44931453792E-01 0.  0.
         14    1    1    2    0    0 -0.12451465004E-01 -0.13419901540E-02  0.50582117709E-03  0.12533785277E-01  0.00000000000E+00 0. -1.
     999901    1    3    3    0    0  0.25805240780E-01  0.11155435860E+00 -0.74625573276E-01  0.89054997701E+00  0.88000000000E+00 0. -1.
        -11    1    4    4    0    0 -0.11872703143E-01 -0.59650271581E-01  0.14255430555E-01  0.62470748361E-01  0.51100000000E-03 0. -1.
         11    1    4    4    0    0 -0.14810726335E-02 -0.50562096863E-01  0.59864321544E-01  0.78375489347E-01  0.51100000000E-03 0.  1.
</event>
<event>
 8    1  0.2190512E+004  0.1043930E+01  0.7957747E-01            NaN
         13   -1    0    0    0    0  0.00000000000E+00  0.00000000000E+00  0.74505805969E-08  0.10566000000E+00  0.10566000000E+00 0. -1.
     999900   -1    0    0    0    0 -0.00000000000E+00 -0.00000000000E+00 -0.74505805969E-08  0.93827000000E+00  0.93827000000E+00 0. -1.
     999902    2    1    2    0    0  0.11663575703E-01  0.11432834076E-02 -0.34057886871E-02  0.10317256773E+01  0.10316534921E+01 0.  0.
     999903    2    3    3    0    0 -0.10412388888E+00 -0.82511807428E-01  0.62975044246E-02  0.14015455562E+00  0.44200206990E-01 0.  0.
         14    1    1    2    0    0 -0.11663575703E-01 -0.11432834076E-02  0.34057886871E-02  0.12204322665E-01  0.00000000000E+00 0. -1.
     999901    1    3    3    0    0  0.11578746459E+00  0.83655090836E-01 -0.97032931117E-02  0.89157112171E+00  0.88000000000E+00 0.  1.
        -11    1    4    4    0    0 -0.44743417034E-01 -0.25364343398E-01  0.22535951823E-01  0.56155618860E-01  0.51100000000E-03 0.  1.
         11    1    4    4    0    0 -0.59380471849E-01 -0.57147464030E-01 -0.16238447399E-01  0.83998936760E-01  0.51100000000E-03 0. -1.
</event>
<event>
 8    1  0.2190512E+004  0.1043930E+01  0.7957747E-01            NaN
         13   -1    0    0    0    0  0.00000000000E+00  0.00000000000E+00  0.74505805969E-08  0.10566000000E+00  0.10566000000E+00 0.  1.
     999900   -1    0    0    0    0 -0.00000000000E+00 -0.00000000000E+00 -0.74505805969E-08  0.93827000000E+00  0.93827000000E+00 0. -1.
     999902    2    1    2    0    0 -0.87499989390E-02 -0.92524579725E-02  0.29338582495E-02  0.10308617949E+01  0.10307789590E+01 0.  0.
     999903    2    3    3    0    0  0.94861910743E-01 -0.93705036074E-01  0.46301556976E-03  0.14076417620E+00  0.45110121062E-01 0.  0.
         14    1    1    2    0    0  0.87499989390E-02  0.92524579725E-02 -0.29338582495E-02  0.13068205087E-01  0.00000000000E+00 0. -1.
     999901    1    3    3    0    0 -0.10361190968E+00  0.84452578102E-01  0.24708426798E-02  0.89009761871E+00  0.88000000000E+00 0. -1.
        -11    1    4    4    0    0  0.94787067404E-01 -0.75387840240E-01 -0.61874640149E-02  0.12127019599E+00  0.51100000000E-03 0. -1.
         11    1    4    4    0    0  0.74843338589E-04 -0.18317195835E-01  0.66504795846E-02  0.19493980211E-01  0.51100000000E-03 0.  1.
</event>
<event>
 8    1  0.2190512E+004  0.1043930E+01  0.7957747E-01            NaN
         13   -1    0    0    0    0  0.00000000000E+00  0.00000000000E+00  0.74505805969E-08  0.10566000000E+00  0.10566000000E+00 0.  1.
     999900   -1    0    0    0    0 -0.00000000000E+00 -0.00000000000E+00 -0.74505805969E-08  0.93827000000E+00  0.93827000000E+00 0. -1.
     999902    2    1    2    0    0  0.14183475066E-01  0.42591443871E-03 -0.62671096331E-02  0.10284177780E+01  0.10283007814E+01 0.  0.
     999903    2    3    3    0    0  0.52144911594E-01 -0.96170840792E-01 -0.74255875479E-01  0.13971396004E+00  0.45145688202E-01 0.  0.
         14    1    1    2    0    0 -0.14183475066E-01 -0.42591443871E-03  0.62671096331E-02  0.15512221995E-01  0.00000000000E+00 0.  1.
     999901    1    3    3    0    0 -0.37961436528E-01  0.96596755231E-01  0.67988765846E-01  0.88870381797E+00  0.88000000000E+00 0.  1.
        -11    1    4    4    0    0  0.47994218091E-01 -0.10096898965E+00 -0.68374188170E-01  0.13104759658E+00  0.51100000000E-03 0.  1.
         11    1    4    4    0    0  0.41506935029E-02  0.47981488567E-02 -0.58816873086E-02  0.86663634589E-02  0.51100000000E-03 0. -1.
</event>
<event>
 8    1  0.2190512E+004  0.1043930E+01  0.7957747E-01            NaN
         13   -1    0    0    0    0  0.00000000000E+00  0.00000000000E+00  0.74505805969E-08  0.10566000000E+00  0.10566000000E+00 0.  1.
     999900   -1    0    0    0    0 -0.00000000000E+00 -0.00000000000E+00 -0.74505805969E-08  0.93827000000E+00  0.93827000000E+00 0. -1.
     999902    2    1    2    0    0  0.12551429010E-02 -0.59763210851E-02  0.11587339326E-01  0.10308319761E+01  0.10307487593E+01 0.  0.
     999903    2    3    3    0    0 -0.57126179413E-01  0.11124961495E+00  0.45325974665E-01  0.14050136650E+00  0.45236189136E-01 0.  0.
         14    1    1    2    0    0 -0.12551429010E-02  0.59763210851E-02 -0.11587339326E-01  0.13098023900E-01  0.00000000000E+00 0. -1.
     999901    1    3    3    0    0  0.58381322314E-01 -0.11722593604E+00 -0.33738635339E-01  0.89033060960E+00  0.88000000000E+00 0. -1.
        -11    1    4    4    0    0 -0.20817041442E-01  0.86511678955E-01  0.32457748615E-01  0.94717402710E-01  0.51100000000E-03 0. -1.
         11    1    4    4    0    0 -0.36309137971E-01  0.24737935998E-01  0.12868226051E-01  0.45783963790E-01  0.51100000000E-03 0.  1.
</event>
<event>
 8    1  0.2190512E+004  0.1043930E+01  0.7957747E-01            NaN
         13   -1    0    0    0    0  0.00000000000E+00  0.00000000000E+00  0.74505805969E-08  0.10566000000E+00  0.10566000000E+00 0. -1.
     999900   -1    0    0    0    0 -0.00000000000E+00 -0.00000000000E+00 -0.74505805969E-08  0.93827000000E+00  0.93827000000E+00 0.  1.
     999902    2    1    2    0    0 -0.23653686108E-02 -0.26938520834E-02 -0.14036592253E-01  0.10294428426E+01  0.10293409000E+01 0.  0.
     999903    2    3    3    0    0  0.69362446209E-01 -0.10556043285E+00  0.37769998837E-01  0.13904386700E+00  0.44186765113E-01 0.  0.
         14    1    1    2    0    0  0.23653686108E-02  0.26938520834E-02  0.14036592253E-01  0.14487157409E-01  0.00000000000E+00 0. -1.
     999901    1    3    3    0    0 -0.71727814820E-01  0.10286658076E+00 -0.51806591090E-01  0.89039897559E+00  0.88000000000E+00 0.  1.
        -11    1    4    4    0    0  0.11590516892E-01 -0.42584516795E-01  0.29704961239E-01  0.53201757449E-01  0.51100000000E-03 0.  1.
         11    1    4    4    0    0  0.57771929317E-01 -0.62975916051E-01  0.80650375982E-02  0.85842109550E-01  0.51100000000E-03 0. -1.
</event>
<event>
 8    1  0.2190512E+004  0.1043930E+01  0.7957747E-01            NaN
         13   -1    0    0    0    0  0.00000000000E+00  0.00000000000E+00  0.74505805969E-08  0.10566000000E+00  0.10566000000E+00 0.  1.
     999900   -1    0    0    0    0 -0.00000000000E+00 -0.00000000000E+00 -0.74505805969E-08  0.93827000000E+00  0.93827000000E+00 0. -1.
     999902    2    1    2    0    0  0.12055129784E-01  0.59105307132E-02  0.41356078334E-02  0.10298813780E+01  0.10297855549E+01 0.  0.
     999903    2    3    3    0    0 -0.99015362782E-01 -0.25703042446E-01  0.82794151846E-01  0.13885767526E+00  0.44293271969E-01 0.  0.
         14    1    1    2    0    0 -0.12055129784E-01 -0.59105307132E-02 -0.41356078334E-02  0.14048621981E-01  0.00000000000E+00 0. -1.
     999901    1    3    3    0    0  0.11107049257E+00  0.31613573160E-01 -0.78658544012E-01  0.89102370276E+00  0.88000000000E+00 0. -1.
        -11    1    4    4    0    0 -0.28046810882E-01 -0.23728799620E-01  0.12142375553E-01  0.38695967970E-01  0.51100000000E-03 0.  1.
         11    1    4    4    0    0 -0.70968551900E-01 -0.19742428260E-02  0.70651776293E-01  0.10016170729E+00  0.51100000000E-03 0. -1.
</event>
<event>
 8    1  0.2190512E+004  0.1043930E+01  0.7957747E-01            NaN
         13   -1    0    0    0    0  0.00000000000E+00  0.00000000000E+00  0.74505805969E-08  0.10566000000E+00  0.10566000000E+00 0.  1.
     999900   -1    0    0    0    0 -0.00000000000E+00 -0.00000000000E+00 -0.74505805969E-08  0.93827000000E+00  0.93827000000E+00 0. -1.
     999902    2    1    2    0    0 -0.15161962010E-02  0.10726600524E-01 -0.11034504916E-01  0.10284665234E+01  0.10283502665E+01 0.  0.
     999903    2    3    3    0    0  0.10597067132E-01 -0.11589431132E+00 -0.59622423318E-01  0.13799452930E+00  0.44089313079E-01 0.  0.
         14    1    1    2    0    0  0.15161962010E-02 -0.10726600524E-01  0.11034504916E-01  0.15463476597E-01  0.00000000000E+00 0.  1.
     999901    1    3    3    0    0 -0.12113263333E-01  0.12662091184E+00  0.48587918402E-01  0.89047199410E+00  0.88000000000E+00 0.  1.
        -11    1    4    4    0    0 -0.12856156609E-01 -0.23791801071E-01 -0.25028915369E-01  0.36851571018E-01  0.51100000000E-03 0.  1.
         11    1    4    4    0    0  0.23453223741E-01 -0.92102510244E-01 -0.34593507949E-01  0.10114295828E+00  0.51100000000E-03 0. -1.
</event>
<event>
 8    1  0.2190512E+004  0.1043930E+01  0.7957747E-01            NaN
         13   -1    0    0    0    0  0.00000000000E+00  0.00000000000E+00  0.74505805969E-08  0.10566000000E+00  0.10566000000E+00 0.  1.
     999900   -1    0    0    0    0 -0.00000000000E+00 -0.00000000000E+00 -0.74505805969E-08  0.93827000000E+00  0.93827000000E+00 0. -1.
     999902    2    1    2    0    0  0.12010639024E-01 -0.28129605852E-02  0.42715091233E-02  0.10308757292E+01  0.10307930709E+01 0.  0.
     999903    2    3    3    0    0  0.41120712054E-01 -0.12049774704E+00 -0.41899417920E-01  0.14136526839E+00  0.44921686102E-01 0.  0.
         14    1    1    2    0    0 -0.12010639024E-01  0.28129605852E-02 -0.42715091233E-02  0.13054270842E-01  0.00000000000E+00 0.  1.
     999901    1    3    3    0    0 -0.29110073029E-01  0.11768478646E+00  0.46170927043E-01  0.88951046077E+00  0.88000000000E+00 0.  1.
        -11    1    4    4    0    0  0.23251526470E-01 -0.14358815953E-01 -0.69973274979E-02  0.28214053092E-01  0.51100000000E-03 0. -1.
         11    1    4    4    0    0  0.17869185584E-01 -0.10613893109E+00 -0.34902090422E-01  0.11315121530E+00  0.51100000000E-03 0.  1.
</event>
<event>
 8    1  0.2190512E+004  0.1043930E+01  0.7957747E-01            NaN
         13   -1    0    0    0    0  0.00000000000E+00  0.00000000000E+00  0.74505805969E-08  0.10566000000E+00  0.10566000000E+00 0.  1.
     999900   -1    0    0    0    0 -0.00000000000E+00 -0.00000000000E+00 -0.74505805969E-08  0.93827000000E+00  0.93827000000E+00 0.  1.
     999902    2    1    2    0    0  0.41660629864E-02  0.11973941828E-01 -0.40696210556E-02  0.10306148515E+01  0.10305288346E+01 0.  0.
     999903    2    3    3    0    0 -0.10134432646E+00 -0.81544192975E-01 -0.20215696185E-02  0.13938969571E+00  0.50052698356E-01 0.  0.
         14    1    1    2    0    0 -0.41660629864E-02 -0.11973941828E-01  0.40696210556E-02  0.13315148488E-01  0.00000000000E+00 0.  1.
     999901    1    3    3    0    0  0.10551038945E+00  0.93518134804E-01 -0.20480514371E-02  0.89122515580E+00  0.88000000000E+00 0.  1.
        -11    1    4    4    0    0 -0.33851205725E-01 -0.47052097870E-01  0.18529119228E-01  0.60855512678E-01  0.51100000000E-03 0.  1.
         11    1    4    4    0    0 -0.67493120737E-01 -0.34492095105E-01 -0.20550688846E-01  0.78534183032E-01  0.51100000000E-03 0. -1.
</event>
<event>
 8    1  0.2190512E+004  0.1043930E+01  0.7957747E-01            NaN
         13   -1    0    0    0    0  0.00000000000E+00  0.00000000000E+00  0.74505805969E-08  0.10566000000E+00  0.10566000000E+00 0. -1.
     999900   -1    0    0    0    0 -0.00000000000E+00 -0.00000000000E+00 -0.74505805969E-08  0.93827000000E+00  0.93827000000E+00 0. -1.
     999902    2    1    2    0    0 -0.44643874510E-02 -0.10628925724E-01 -0.76206668166E-02  0.10301104711E+01  0.10300177684E+01 0.  0.
     999903    2    3    3    0    0 -0.12706606245E+00  0.32065569136E-01 -0.21195509227E-01  0.14048230888E+00  0.45956985819E-01 0.  0.
         14    1    1    2    0    0  0.44643874510E-02  0.10628925724E-01  0.76206668166E-02  0.13819528938E-01  0.00000000000E+00 0. -1.
     999901    1    3    3    0    0  0.12260167500E+00 -0.42694494859E-01  0.13574842410E-01  0.88962816218E+00  0.88000000000E+00 0.  1.
        -11    1    4    4    0    0 -0.26030854169E-01  0.25549675602E-01  0.22823523624E-02  0.36549439742E-01  0.51100000000E-03 0.  1.
         11    1    4    4    0    0 -0.10103520828E+00  0.65158935339E-02 -0.23477861589E-01  0.10393286914E+00  0.51100000000E-03 0. -1.
</event>
<event>
 8    1  0.2190512E+004  0.1043930E+01  0.7957747E-01            NaN
         13   -1    0    0    0    0  0.00000000000E+00  0.00000000000E+00  0.74505805969E-08  0.10566000000E+00  0.10566000000E+00 0. -1.
     999900   -1    0    0    0    0 -0.00000000000E+00 -0.00000000000E+00 -0.74505805969E-08  0.93827000000E+00  0.93827000000E+00 0. -1.
     999902    2    1    2    0    0 -0.65568463409E-02 -0.10319973928E-01  0.62560684623E-02  0.10301956457E+01  0.10301040898E+01 0.  0.
     999903    2    3    3    0    0  0.85458557496E-02 -0.12275225446E+00 -0.51812444091E-01  0.14101565183E+00  0.45384326294E-01 0.  0.
         14    1    1    2    0    0  0.65568463409E-02  0.10319973928E-01 -0.62560684623E-02  0.13734354314E-01  0.00000000000E+00 0.  1.
     999901    1    3    3    0    0 -0.15102702091E-01  0.11243228054E+00  0.58068512553E-01  0.88917999385E+00  0.88000000000E+00 0. -1.
        -11    1    4    4    0    0 -0.21703003779E-02 -0.25700486036E-01 -0.32478537189E-01  0.41477001883E-01  0.51100000000E-03 0. -1.
         11    1    4    4    0    0  0.10716156128E-01 -0.97051768427E-01 -0.19333906901E-01  0.99538649951E-01  0.51100000000E-03 0.  1.
</event>
<event>
 7    1  0.2190512E+004  0.1043930E+01  0.7957747E-01            NaN
         13   -1    0    0    0    0  0.00000000000E+00  0.00000000000E+00  0.74505805969E-08  0.10566000000E+00  0.10566000000E+00 0.  1.
     999900   -1    0    0    0    0 -0.00000000000E+00 -0.00000000000E+00 -0.74505805969E-08  0.93827000000E+00  0.93827000000E+00 0. -1.
     999902    2    1    2    0    0 -0.78321727900E-02  0.26305102072E-02 -0.11931928796E-01  0.10294167840E+01  0.10293144717E+01 0.  0.
         14    1    1    2    0    0  0.78321727900E-02 -0.26305102072E-02  0.11931928796E-01  0.14513216024E-01  0.00000000000E+00 0.  1.
     999901    1    3    3    0    0 -0.92798800897E-01 -0.87792945632E-01 -0.66032144827E-01  0.89167228448E+00  0.88000000000E+00 0.  1.
        -11    1    3    3    0    0  0.20893607055E-01  0.10023183724E-01  0.15708844048E-01  0.28000641601E-01  0.51100000000E-03 0. -1.
         11    1    3    3    0    0  0.64073021053E-01  0.80400272116E-01  0.38391371982E-01  0.10974385790E+00  0.51100000000E-03 0.  1.
</event>
<event>
 8    1  0.2190512E+004  0.1043930E+01  0.7957747E-01            NaN
         13   -1    0    0    0    0  0.00000000000E+00  0.00000000000E+00  0.74505805969E-08  0.10566000000E+00  0.10566000000E+00 0. -1.
     999900   -1    0    0    0    0 -0.00000000000E+00 -0.00000000000E+00 -0.74505805969E-08  0.93827000000E+00  0.93827000000E+00 0. -1.
     999902    2    1    2    0    0 -0.13445038266E-01  0.37970955048E-02  0.20439230856E-02  0.10298103467E+01  0.10297135454E+01 0.  0.
     999903    2    3    3    0    0 -0.29507571614E-01 -0.57357968078E-01 -0.11587235725E+00  0.13969676070E+00  0.43910687667E-01 0.  0.
         14    1    1    2    0    0  0.13445038266E-01 -0.37970955048E-02 -0.20439230856E-02  0.14119653318E-01  0.00000000000E+00 0. -1.
     999901    1    3    3    0    0  0.16062533348E-01  0.61155063582E-01  0.11791628033E+00  0.89011358598E+00  0.88000000000E+00 0.  1.
        -11    1    4    4    0    0 -0.77350320982E-02  0.67395210706E-02 -0.13443372876E-01  0.16918547843E-01  0.51100000000E-03 0.  1.
         11    1    4    4    0    0 -0.21772539516E-01 -0.64097489148E-01 -0.10242898437E+00  0.12277821286E+00  0.51100000000E-03 0. -1.
</event>
<event>
 8    1  0.2190512E+004  0.1043930E+01  0.7957747E-01            NaN
         13   -1    0    0    0    0  0.00000000000E+00  0.00000000000E+00  0.74505805969E-08  0.10566000000E+00  0.10566000000E+00 0. -1.
     999900   -1    0    0    0    0 -0.00000000000E+00 -0.00000000000E+00 -0.74505805969E-08  0.93827000000E+00  0.93827000000E+00 0.  1.
     999902    2    1    2    0    0  0.39575285172E-02  0.73848229515E-04  0.13533882626E-01  0.10298291680E+01  0.10297326263E+01 0.  0.
     999903    2    3    3    0    0  0.57528665369E-01  0.25249851623E-01  0.11881970916E+00  0.14157875105E+00  0.44489516953E-01 0.  0.
         14    1    1    2    0    0 -0.39575285172E-02 -0.73848229515E-04 -0.13533882626E-01  0.14100832049E-01  0.00000000000E+00 0.  1.
     999901    1    3    3    0    0 -0.53571136852E-01 -0.25176003394E-01 -0.10528582653E+00  0.88825041690E+00  0.88000000000E+00 0. -1.
        -11    1    4    4    0    0  0.75165293716E-02  0.33763243959E-02 -0.24310256580E-02  0.86063224998E-02  0.51100000000E-03 0. -1.
         11    1    4    4    0    0  0.50012135998E-01  0.21873527227E-01  0.12125073482E+00  0.13297242855E+00  0.51100000000E-03 0.  1.
</event>
<event>
 8    1  0.2190512E+004  0.1043930E+01  0.7957747E-01            NaN
         13   -1    0    0    0    0  0.00000000000E+00  0.00000000000E+00  0.74505805969E-08  0.10566000000E+00  0.10566000000E+00 0.  1.
     999900   -1    0    0    0    0 -0.00000000000E+00 -0.00000000000E+00 -0.74505805969E-08  0.93827000000E+00  0.93827000000E+00 0. -1.
     999902    2    1    2    0    0  0.12854786379E-01 -0.58823440384E-03  0.41085850912E-02  0.10304217794E+01  0.10303332332E+01 0.  0.
     999903    2    3    3    0    0  0.77754585293E-01  0.23950284064E-01  0.10685171507E+00  0.14173157828E+00  0.45289729824E-01 0.  0.
         14    1    1    2    0    0 -0.12854786379E-01  0.58823440384E-03 -0.41085850912E-02  0.13508220609E-01  0.00000000000E+00 0.  1.
     999901    1    3    3    0    0 -0.64899798914E-01 -0.24538518468E-01 -0.10274312998E+00  0.88869020111E+00  0.88000000000E+00 0. -1.
        -11    1    4    4    0    0  0.10011709552E-01  0.12925569564E-01  0.50000947711E-01  0.52608559852E-01  0.51100000000E-03 0. -1.
         11    1    4    4    0    0  0.67742875741E-01  0.11024714501E-01  0.56850767363E-01  0.89123018431E-01  0.51100000000E-03 0.  1.
</event>
<event>
 8    1  0.2190512E+004  0.1043930E+01  0.7957747E-01            NaN
         13   -1    0    0    0    0  0.00000000000E+00  0.00000000000E+00  0.74505805969E-08  0.10566000000E+00  0.10566000000E+00 0.  1.
     999900   -1    0    0    0    0 -0.00000000000E+00 -0.00000000000E+00 -0.74505805969E-08  0.93827000000E+00  0.93827000000E+00 0.  1.
     999902    2    1    2    0    0  0.99876488524E-03  0.25914286782E-02  0.12520367966E-01  0.10311053110E+01  0.10310255524E+01 0.  0.
     999903    2    3    3    0    0 -0.41603754369E-01  0.42541653651E-02 -0.12511173347E+00  0.13938767930E+00  0.45022316553E-01 0.  0.
         14    1    1    2    0    0 -0.99876488524E-03 -0.25914286782E-02 -0.12520367966E-01  0.12824688998E-01  0.00000000000E+00 0. -1.
     999901    1    3    3    0    0  0.42602519255E-01 -0.16627366868E-02  0.13763210144E+00  0.89171763170E+00  0.88000000000E+00 0.  1.
        -11    1    4    4    0    0 -0.39500206546E-01 -0.11681642217E-01 -0.63345932533E-01  0.75562526239E-01  0.51100000000E-03 0. -1.
         11    1    4    4    0    0 -0.21035478234E-02  0.15935807582E-01 -0.61765800939E-01  0.63825153062E-01  0.51100000000E-03 0.  1.
</event>
<event>
 8    1  0.2190512E+004  0.1043930E+01  0.7957747E-01            NaN
         13   -1    0    0    0    0  0.00000000000E+00  0.00000000000E+00  0.74505805969E-08  0.10566000000E+00  0.10566000000E+00 0.  1.
     999900   -1    0    0    0    0 -0.00000000000E+00 -0.00000000000E+00 -0.74505805969E-08  0.93827000000E+00  0.93827000000E+00 0.  1.
     999902    2    1    2    0    0 -0.15883919992E-02 -0.35035764998E-02  0.13206406736E-01  0.10301747386E+01  0.10300829019E+01 0.  0.
     999903    2    3    3    0    0 -0.99237477812E-01  0.31801797025E-01 -0.79921050108E-01  0.13918958912E+00  0.46118718256E-01 0.  0.
         14    1    1    2    0    0  0.15883919992E-02  0.35035764998E-02 -0.13206406736E-01  0.13755261405E-01  0.00000000000E+00 0. -1.
     999901    1    3    3    0    0  0.97649085813E-01 -0.35305373525E-01  0.93127456844E-01  0.89098514947E+00  0.88000000000E+00 0.  1.
        -11    1    4    4    0    0 -0.72960637536E-01  0.42171878870E-01 -0.68931275546E-01  0.10887379789E+00  0.51100000000E-03 0.  1.
         11    1    4    4    0    0 -0.26276840276E-01 -0.10370081845E-01 -0.10989774562E-01  0.30315791236E-01  0.51100000000E-03 0. -1.
</event>
<event>
 8    1  0.2190512E+004  0.1043930E+01  0.7957747E-01            NaN
         13   -1    0    0    0    0  0.00000000000E+00  0.00000000000E+00  0.74505805969E-08  0.10566000000E+00  0.10566000000E+00 0. -1.
     999900   -1    0    0    0    0 -0.00000000000E+00 -0.00000000000E+00 -0.74505805969E-08  0.93827000000E+00  0.93827000000E+00 0. -1.
     999902    2    1    2    0    0 -0.51361281531E-02  0.88118485643E-02  0.95942462812E-02  0.10299272128E+01  0.10298320182E+01 0.  0.
     999903    2    3    3    0    0  0.10962758928E+00  0.82094030629E-02 -0.71480144481E-01  0.13877956476E+00  0.45439563273E-01 0.  0.
         14    1    1    2    0    0  0.51361281531E-02 -0.88118485643E-02 -0.95942462812E-02  0.14002787195E-01  0.00000000000E+00 0.  1.
     999901    1    3    3    0    0 -0.11476371743E+00  0.60244550132E-03  0.81074390762E-01  0.89114764805E+00  0.88000000000E+00 0.  1.
        -11    1    4    4    0    0  0.22350868766E-01 -0.11553269309E-01 -0.15575091759E-02  0.25213613826E-01  0.51100000000E-03 0. -1.
         11    1    4    4    0    0  0.87276720512E-01  0.19762672372E-01 -0.69922635305E-01  0.11356595093E+00  0.51100000000E-03 0.  1.
</event>
<event>
 8    1  0.2190512E+004  0.1043930E+01  0.7957747E-01            NaN
         13   -1    0    0    0    0  0.00000000000E+00  0.00000000000E+00  0.74505805969E-08  0.10566000000E+00  0.10566000000E+00 0. -1.
     999900   -1    0    0    0    0 -0.00000000000E+00 -0.00000000000E+00 -0.74505805969E-08  0.93827000000E+00  0.93827000000E+00 0. -1.
     999902    2    1    2    0    0  0.66899580492E-02  0.64534418887E-02  0.97781055543E-02  0.10304387510E+01  0.10303504286E+01 0.  0.
     999903    2    3    3    0    0 -0.10579278057E+00  0.79696498426E-01  0.81869990695E-02  0.14025930650E+00  0.45409270240E-01 0.  0.
         14    1    1    2    0    0 -0.66899580492E-02 -0.64534418887E-02 -0.97781055543E-02  0.13491248984E-01  0.00000000000E+00 0. -1.
     999901    1    3    3    0    0  0.11248273862E+00 -0.73243056537E-01  0.15911064849E-02  0.89017944452E+00  0.88000000000E+00 0.  1.
        -11    1    4    4    0    0 -0.90362229413E-01  0.43786127850E-01  0.45994369058E-03  0.10041429264E+00  0.51100000000E-03 0.  1.
         11    1    4    4    0    0 -0.15430551159E-01  0.35910370576E-01  0.77270553789E-02  0.39845013863E-01  0.51100000000E-03 0. -1.
</event>
<event>
 8    1  0.2190512E+004  0.1043930E+01  0.7957747E-01            NaN
         13   -1    0    0    0    0  0.00000000000E+00  0.00000000000E+00  0.74505805969E-08  0.10566000000E+00  0.10566000000E+00 0. -1.
     999900   -1    0    0    0    0 -0.00000000000E+00 -0.00000000000E+00 -0.74505805969E-08  0.93827000000E+00  0.93827000000E+00 0. -1.
     999902    2    1    2    0    0  0.11118332620E-01 -0.39158715481E-02  0.72142013109E-02  0.10301098672E+01  0.10300171564E+01 0.  0.
     999903    2    3    3    0    0 -0.20847616321E-01 -0.12651283228E+00  0.35966371553E-01  0.14057149030E+00  0.45018264801E-01 0.  0.
         14    1    1    2    0    0 -0.11118332620E-01  0.39158715481E-02 -0.72142013109E-02  0.13820132806E-01  0.00000000000E+00 0. -1.
     999901    1    3    3    0    0  0.31965948941E-01  0.12259696073E+00 -0.28752170242E-01  0.88953837689E+00  0.88000000000E+00 0. -1.
        -11    1    4    4    0    0  0.67736235107E-02 -0.87800795815E-03  0.43257538974E-02  0.81009963104E-02  0.51100000000E-03 0.  1.
         11    1    4    4    0    0 -0.27621239832E-01 -0.12563482432E+00  0.31640617655E-01  0.13247049399E+00  0.51100000000E-03 0. -1.
</event>
<event>
 8    1  0.2190512E+004  0.1043930E+01  0.7957747E-01            NaN
         13   -1    0    0    0    0  0.00000000000E+00  0.00000000000E+00  0.74505805969E-08  0.10566000000E+00  0.10566000000E+00 0. -1.
     999900   -1    0    0    0    0 -0.00000000000E+00 -0.00000000000E+00 -0.74505805969E-08  0.93827000000E+00  0.93827000000E+00 0.  1.
     999902    2    1    2    0    0 -0.44295343896E-02  0.54028325469E-02 -0.12607173870E-01  0.10295163881E+01  0.10294154852E+01 0.  0.
     999903    2    3    3    0    0  0.70624940504E-01 -0.11048002055E+00  0.91033743307E-04  0.13866103829E+00  0.45090554347E-01 0.  0.
         14    1    1    2    0    0  0.44295343896E-02 -0.54028325469E-02  0.12607173870E-01  0.14413611880E-01  0.00000000000E+00 0. -1.
     999901    1    3    3    0    0 -0.75054474893E-01  0.11588285309E+00 -0.12698207613E-01  0.89085534983E+00  0.88000000000E+00 0.  1.
        -11    1    4    4    0    0  0.61027690632E-01 -0.89027949367E-01  0.17582486800E-01  0.10936068652E+00  0.51100000000E-03 0.  1.
         11    1    4    4    0    0  0.95972498716E-02 -0.21452071180E-01 -0.17491453056E-01  0.29300351773E-01  0.51100000000E-03 0. -1.
</event>
<event>
 8    1  0.2190512E+004  0.1043930E+01  0.7957747E-01            NaN
         13   -1    0    0    0    0  0.00000000000E+00  0.00000000000E+00  0.74505805969E-08  0.10566000000E+00  0.10566000000E+00 0.  1.
     999900   -1    0    0    0    0 -0.00000000000E+00 -0.00000000000E+00 -0.74505805969E-08  0.93827000000E+00  0.93827000000E+00 0. -1.
     999902    2    1    2    0    0  0.65372797847E-02 -0.12156955059E-01 -0.31637863661E-02  0.10297688868E+01  0.10296715122E+01 0.  0.
     999903    2    3    3    0    0  0.23293568133E-01 -0.60592553788E-01  0.11592237185E+00  0.14026998656E+00  0.44984718987E-01 0.  0.
         14    1    1    2    0    0 -0.65372797847E-02  0.12156955059E-01  0.31637863661E-02  0.14161113214E-01  0.00000000000E+00 0.  1.
     999901    1    3    3    0    0 -0.16756288349E-01  0.48435598729E-01 -0.11908615822E+00  0.88949890023E+00  0.88000000000E+00 0. -1.
        -11    1    4    4    0    0  0.70527750361E-03 -0.17531346391E-01  0.74037353000E-01  0.76089659501E-01  0.51100000000E-03 0. -1.
         11    1    4    4    0    0  0.22588290630E-01 -0.43061207397E-01  0.41885018853E-01  0.64180327059E-01  0.51100000000E-03 0.  1.
</event>
<event>
 8    1  0.2190512E+004  0.1043930E+01  0.7957747E-01            NaN
         13   -1    0    0    0    0  0.00000000000E+00  0.00000000000E+00  0.74505805969E-08  0.10566000000E+00  0.10566000000E+00 0. -1.
     999900   -1    0    0    0    0 -0.00000000000E+00 -0.00000000000E+00 -0.74505805969E-08  0.93827000000E+00  0.93827000000E+00 0.  1.
     999902    2    1    2    0    0  0.62050942135E-03 -0.32613996546E-02  0.13071299516E-01  0.10304436873E+01  0.10303554300E+01 0.  0.
     999903    2    3    3    0    0 -0.11177463229E-01  0.13168307178E+00  0.10755070950E-01  0.14007602870E+00  0.45169184063E-01 0.  0.
         14    1    1    2    0    0 -0.62050942135E-03  0.32613996546E-02 -0.13071299516E-01  0.13486312716E-01  0.00000000000E+00 0.  1.
     999901    1    3    3    0    0  0.11797972650E-01 -0.13494447143E+00  0.23162285658E-02  0.89036765858E+00  0.88000000000E+00 0.  1.
        -11    1    4    4    0    0 -0.79594180732E-03  0.95137437995E-01 -0.11830775339E-01  0.95874887211E-01  0.51100000000E-03 0. -1.
         11    1    4    4    0    0 -0.10381521422E-01  0.36545633785E-01  0.22585846289E-01  0.44201141494E-01  0.51100000000E-03 0.  1.
</event>
<event>
 8    1  0.2190512E+004  0.1043930E+01  0.7957747E-01            NaN
         13   -1    0    0    0    0  0.00000000000E+00  0.00000000000E+00  0.74505805969E-08  0.10566000000E+00  0.10566000000E+00 0. -1.
     999900   -1    0    0    0    0 -0.00000000000E+00 -0.00000000000E+00 -0.74505805969E-08  0.93827000000E+00  0.93827000000E+00 0. -1.
     999902    2    1    2    0    0 -0.13011240303E-01  0.31468522852E-02 -0.48155622916E-03  0.10305349655E+01  0.10304479066E+01 0.  0.
     999903    2    3    3    0    0  0.12284508263E+00 -0.40692660588E-01  0.23720915042E-01  0.13870280470E+00  0.43920146512E-01 0.  0.
         14    1    1    2    0    0  0.13011240303E-01 -0.31468522852E-02  0.48155622916E-03  0.13395034525E-01  0.00000000000E+00 0.  1.
     999901    1    3    3    0    0 -0.13585632293E+00  0.43839512873E-01 -0.24202471271E-01  0.89183216077E+00  0.88000000000E+00 0. -1.
        -11    1    4    4    0    0  0.12034022556E+00 -0.31384162241E-01  0.28996689837E-01  0.12770201514E+00  0.51100000000E-03 0. -1.
         11    1    4    4    0    0  0.25048570717E-02 -0.93084983467E-02 -0.52757747943E-02  0.11000789567E-01  0.51100000000E-03 0.  1.
</event>
<event>
 8    1  0.2190512E+004  0.1043930E+01  0.7957747E-01            NaN
         13   -1    0    0    0    0  0.00000000000E+00  0.00000000000E+00  0.74505805969E-08  0.10566000000E+00  0.10566000000E+00 0. -1.
     999900   -1    0    0    0    0 -0.00000000000E+00 -0.00000000000E+00 -0.74505805969E-08  0.93827000000E+00  0.93827000000E+00 0. -1.
     999902    2    1    2    0    0 -0.62286423265E-02 -0.10921313836E-01  0.51345101903E-02  0.10303493418E+01  0.10302598371E+01 0.  0.
     999903    2    3    3    0    0 -0.13046557043E+00  0.26793996621E-01 -0.33658358987E-02  0.14078230399E+00  0.45487854904E-01 0.  0.
         14    1    1    2    0    0  0.62286423265E-02  0.10921313836E-01 -0.51345101903E-02  0.13580658159E-01  0.00000000000E+00 0.  1.
     999901    1    3    3    0    0  0.12423692810E+00 -0.37715310457E-01  0.85003460890E-02  0.88956703785E+00  0.88000000000E+00 0. -1.
        -11    1    4    4    0    0 -0.11312184713E+00  0.38827513135E-01 -0.19043057975E-02  0.11961611754E+00  0.51100000000E-03 0. -1.
         11    1    4    4    0    0 -0.17343723296E-01 -0.12033516514E-01 -0.14615301012E-02  0.21166186447E-01  0.51100000000E-03 0.  1.
</event>
<event>
 8    1  0.2190512E+004  0.1043930E+01  0.7957747E-01            NaN
         13   -1    0    0    0    0  0.00000000000E+00  0.00000000000E+00  0.74505805969E-08  0.10566000000E+00  0.10566000000E+00 0.  1.
     999900   -1    0    0    0    0 -0.00000000000E+00 -0.00000000000E+00 -0.74505805969E-08  0.93827000000E+00  0.93827000000E+00 0.  1.
     999902    2    1    2    0    0  0.98299665620E-02  0.11315255723E-01  0.30295018708E-02  0.10286381350E+01  0.10285244633E+01 0.  0.
     999903    2    3    3    0    0  0.83303394026E-01  0.76169856902E-01 -0.70346624024E-01  0.14016274437E+00  0.44222673388E-01 0.  0.
         14    1    1    2    0    0 -0.98299665620E-02 -0.11315255723E-01 -0.30295018708E-02  0.15291865036E-01  0.00000000000E+00 0.  1.
     999901    1    3    3    0    0 -0.73473427464E-01 -0.64854601179E-01  0.73376125895E-01  0.88847539059E+00  0.88000000000E+00 0. -1.
        -11    1    4    4    0    0  0.80033310089E-01  0.72157427840E-01 -0.76464298926E-01  0.13213279399E+00  0.51100000000E-03 0.  1.
         11    1    4    4    0    0  0.32700839364E-02  0.40124290616E-02  0.61176749020E-02  0.80299503816E-02  0.51100000000E-03 0. -1.
</event>
<event>
 8    1  0.2190512E+004  0.1043930E+01  0.7957747E-01            NaN
         13   -1    0    0    0    0  0.00000000000E+00  0.00000000000E+00  0.74505805969E-08  0.10566000000E+00  0.10566000000E+00 0. -1.
     999900   -1    0    0    0    0 -0.00000000000E+00 -0.00000000000E+00 -0.74505805969E-08  0.93827000000E+00  0.93827000000E+00 0.  1.
     999902    2    1    2    0    0  0.30209529584E-02 -0.46308447398E-02 -0.10372954498E-01  0.10321754662E+01  0.10321085330E+01 0.  0.
     999903    2    3    3    0    0 -0.54881925585E-01  0.11034574138E+00 -0.52490959278E-01  0.14181245876E+00  0.46553885510E-01 0.  0.
         14    1    1    2    0    0 -0.30209529584E-02  0.46308447398E-02  0.10372954498E-01  0.11754533798E-01  0.00000000000E+00 0. -1.
     999901    1    3    3    0    0  0.57902878543E-01 -0.11497658612E+00  0.42118004780E-01  0.89036300744E+00  0.88000000000E+00 0.  1.
        -11    1    4    4    0    0 -0.24743361969E-01  0.53587000196E-01 -0.30544513672E-03  0.59026730972E-01  0.51100000000E-03 0. -1.
         11    1    4    4    0    0 -0.30138563615E-01  0.56758741185E-01 -0.52185514142E-01  0.82785727785E-01  0.51100000000E-03 0.  1.
</event>
<event>
 8    1  0.2190512E+004  0.1043930E+01  0.7957747E-01            NaN
         13   -1    0    0    0    0  0.00000000000E+00  0.00000000000E+00  0.74505805969E-08  0.10566000000E+00  0.10566000000E+00 0. -1.
     999900   -1    0    0    0    0 -0.00000000000E+00 -0.00000000000E+00 -0.74505805969E-08  0.93827000000E+00  0.93827000000E+00 0. -1.
     999902    2    1    2    0    0 -0.24345072354E-02 -0.12111877774E-01  0.64129950528E-02  0.10300105563E+01  0.10299164991E+01 0.  0.
     999903    2    3    3    0    0  0.25995409022E-01  0.70754895649E-02  0.13085110223E+00  0.14059431077E+00  0.43805541023E-01 0.  0.
         14    1    1    2    0    0  0.24345072354E-02  0.12111877774E-01 -0.64129950528E-02  0.13919443747E-01  0.00000000000E+00 0. -1.
     999901    1    3    3    0    0 -0.28429916258E-01 -0.19187367339E-01 -0.12443810718E+00  0.88941624548E+00  0.88000000000E+00 0. -1.
        -11    1    4    4    0    0  0.13979323054E-02 -0.15577263008E-01  0.63466351595E-01  0.65366996591E-01  0.51100000000E-03 0. -1.
         11    1    4    4    0    0  0.24597476717E-01  0.22652752573E-01  0.67384750635E-01  0.75227314183E-01  0.51100000000E-03 0.  1.
</event>
<event>
 8    1  0.2190512E+004  0.1043930E+01  0.7957747E-01            NaN
         13   -1    0    0    0    0  0.00000000000E+00  0.00000000000E+00  0.74505805969E-08  0.10566000000E+00  0.10566000000E+00 0.  1.
     999900   -1    0    0    0    0 -0.00000000000E+00 -0.00000000000E+00 -0.74505805969E-08  0.93827000000E+00  0.93827000000E+00 0.  1.
     999902    2    1    2    0    0  0.10068933783E-02  0.65459268111E-02 -0.14739600378E-01  0.10277708289E+01  0.10276437894E+01 0.  0.
     999903    2    3    3    0    0  0.82765364937E-01 -0.39972386151E-01  0.90305705513E-01  0.13654531454E+00  0.45184125390E-01 0.  0.
         14    1    1    2    0    0 -0.10068933783E-02 -0.65459268111E-02  0.14739600378E-01  0.16159171123E-01  0.00000000000E+00 0.  1.
     999901    1    3    3    0    0 -0.81758471559E-01  0.46518312962E-01 -0.10504530589E+00  0.89122551434E+00  0.88000000000E+00 0. -1.
        -11    1    4    4    0    0  0.76003210842E-01 -0.39714410363E-01  0.57983706197E-01  0.10351856719E+00  0.51100000000E-03 0.  1.
         11    1    4    4    0    0  0.67621540954E-02 -0.25797578800E-03  0.32321999316E-01  0.33026747347E-01  0.51100000000E-03 0. -1.
</event>
<event>
 8    1  0.2190512E+004  0.1043930E+01  0.7957747E-01            NaN
         13   -1    0    0    0    0  0.00000000000E+00  0.00000000000E+00  0.74505805969E-08  0.10566000000E+00  0.10566000000E+00 0.  1.
     999900   -1    0    0    0    0 -0.00000000000E+00 -0.00000000000E+00 -0.74505805969E-08  0.93827000000E+00  0.93827000000E+00 0. -1.
     999902    2    1    2    0    0  0.94939391991E-02 -0.30964350951E-02 -0.96050784379E-02  0.10300743036E+01  0.10299811117E+01 0.  0.
     999903    2    3    3    0    0 -0.97666603032E-01  0.80110673734E-01  0.34599043085E-01  0.13858072023E+00  0.45288374265E-01 0.  0.
         14    1    1    2    0    0 -0.94939391991E-02  0.30964350951E-02  0.96050784379E-02  0.13855696432E-01  0.00000000000E+00 0.  1.
     999901    1    3    3    0    0  0.10716054223E+00 -0.83207108829E-01 -0.44204121523E-01  0.89149358334E+00  0.88000000000E+00 0. -1.
        -11    1    4    4    0    0 -0.38916375133E-01  0.37565276246E-01 -0.76574962345E-02  0.54630875909E-01  0.51100000000E-03 0. -1.
         11    1    4    4    0    0 -0.58750227899E-01  0.42545397487E-01  0.42256539320E-01  0.83949844323E-01  0.51100000000E-03 0.  1.
</event>
<event>
 8    1  0.2190512E+004  0.1043930E+01  0.7957747E-01            NaN
         13   -1    0    0    0    0  0.00000000000E+00  0.00000000000E+00  0.74505805969E-08  0.10566000000E+00  0.10566000000E+00 0. -1.
     999900   -1    0    0    0    0 -0.00000000000E+00 -0.00000000000E+00 -0.74505805969E-08  0.93827000000E+00  0.93827000000E+00 0.  1.
     999902    2    1    2    0    0  0.79600103439E-02  0.11574324709E-01  0.17699224260E-02  0.10297716321E+01  0.10296742955E+01 0.  0.
     999903    2    3    3    0    0  0.10445390682E+00  0.79575414869E-01 -0.27938622300E-01  0.14139231108E+00  0.44366132536E-01 0.  0.
         14    1    1    2    0    0 -0.79600103439E-02 -0.11574324709E-01 -0.17699224260E-02  0.14158367934E-01  0.00000000000E+00 0.  1.
     999901    1    3    3    0    0 -0.96493896475E-01 -0.68001090160E-01  0.29708544726E-01  0.88837932098E+00  0.88000000000E+00 0. -1.
        -11    1    4    4    0    0  0.91644688779E-01  0.46215842204E-01 -0.24242319956E-01  0.10546375799E+00  0.51100000000E-03 0. -1.
         11    1    4    4    0    0  0.12809218040E-01  0.33359572665E-01 -0.36963023440E-02  0.35928553091E-01  0.51100000000E-03 0.  1.
</event>
<event>
 8    1  0.2190512E+004  0.1043930E+01  0.7957747E-01            NaN
         13   -1    0    0    0    0  0.00000000000E+00  0.00000000000E+00  0.74505805969E-08  0.10566000000E+00  0.10566000000E+00 0. -1.
     999900   -1    0    0    0    0 -0.00000000000E+00 -0.00000000000E+00 -0.74505805969E-08  0.93827000000E+00  0.93827000000E+00 0.  1.
     999902    2    1    2    0    0 -0.88320482183E-02  0.96230809095E-02 -0.62542455343E-02  0.10294481372E+01  0.10293462697E+01 0.  0.
     999903    2    3    3    0    0 -0.51746897851E-01 -0.64606266763E-01 -0.10321298761E+00  0.13998049980E+00  0.45715515655E-01 0.  0.
         14    1    1    2    0    0  0.88320482183E-02 -0.96230809095E-02  0.62542455343E-02  0.14481862764E-01  0.00000000000E+00 0. -1.
     999901    1    3    3    0    0  0.42914849632E-01  0.74229347672E-01  0.96958742076E-01  0.88946763743E+00  0.88000000000E+00 0. -1.
        -11    1    4    4    0    0 -0.23639099605E-02 -0.38562252254E-01 -0.39230500745E-01  0.55062951963E-01  0.51100000000E-03 0. -1.
         11    1    4    4    0    0 -0.49382987890E-01 -0.26044014508E-01 -0.63982486865E-01  0.84917547840E-01  0.51100000000E-03 0.  1.
</event>
<event>
 8    1  0.2190512E+004  0.1043930E+01  0.7957747E-01            NaN
         13   -1    0    0    0    0  0.00000000000E+00  0.00000000000E+00  0.74505805969E-08  0.10566000000E+00  0.10566000000E+00 0. -1.
     999900   -1    0    0    0    0 -0.00000000000E+00 -0.00000000000E+00 -0.74505805969E-08  0.93827000000E+00  0.93827000000E+00 0.  1.
     999902    2    1    2    0    0 -0.10751713589E-01  0.16125964864E-02  0.86720512001E-02  0.10300230131E+01  0.10299291253E+01 0.  0.
     999903    2    3    3    0    0  0.53175680587E-01 -0.17212289725E-01  0.11820787122E+00  0.14073161883E+00  0.52042019519E-01 0.  0.
         14    1    1    2    0    0  0.10751713589E-01 -0.16125964864E-02 -0.86720512001E-02  0.13906986896E-01  0.00000000000E+00 0. -1.
     999901    1    3    3    0    0 -0.63927394176E-01  0.18824886212E-01 -0.10953582002E+00  0.88929139428E+00  0.88000000000E+00 0.  1.
        -11    1    4    4    0    0  0.44692121752E-01  0.11688846047E-01  0.73931550453E-01  0.87178839990E-01  0.51100000000E-03 0. -1.
         11    1    4    4    0    0  0.84835588350E-02 -0.28901135772E-01  0.44276320768E-01  0.53552778837E-01  0.51100000000E-03 0.  1.
</event>
<event>
 8    1  0.2190512E+004  0.1043930E+01  0.7957747E-01            NaN
         13   -1    0    0    0    0  0.00000000000E+00  0.00000000000E+00  0.74505805969E-08  0.10566000000E+00  0.10566000000E+00 0. -1.
     999900   -1    0    0    0    0 -0.00000000000E+00 -0.00000000000E+00 -0.74505805969E-08  0.93827000000E+00  0.93827000000E+00 0. -1.
     999902    2    1    2    0    0 -0.47394953396E-02  0.10677378125E-01 -0.97163082099E-02  0.10287354001E+01  0.10286231806E+01 0.  0.
     999903    2    3    3    0    0 -0.62209046390E-01  0.53204201811E-01  0.10206020199E+00  0.13878862181E+00  0.46317860152E-01 0.  0.
         14    1    1    2    0    0  0.47394953396E-02 -0.10677378125E-01  0.97163082099E-02  0.15194599861E-01  0.00000000000E+00 0. -1.
     999901    1    3    3    0    0  0.57469551050E-01 -0.42526823686E-01 -0.11177651020E+00  0.88994677833E+00  0.88000000000E+00 0. -1.
        -11    1    4    4    0    0 -0.59102399794E-01  0.33991249900E-01  0.54134167227E-01  0.87058990998E-01  0.51100000000E-03 0. -1.
         11    1    4    4    0    0 -0.31066465952E-02  0.19212951912E-01  0.47926034766E-01  0.51729630809E-01  0.51100000000E-03 0.  1.
</event>
<event>
 8    1  0.2190512E+004  0.1043930E+01  0.7957747E-01            NaN
         13   -1    0    0    0    0  0.00000000000E+00  0.00000000000E+00  0.74505805969E-08  0.10566000000E+00  0.10566000000E+00 0.  1.
     999900   -1    0    0    0    0 -0.00000000000E+00 -0.00000000000E+00 -0.74505805969E-08  0.93827000000E+00  0.93827000000E+00 0.  1.
     999902    2    1    2    0    0 -0.17200746409E-02 -0.10852137114E-01 -0.82786850409E-02  0.10301726688E+01  0.10300808043E+01 0.  0.
     999903    2    3    3    0    0 -0.10244669642E+00  0.63262304846E-01  0.54758054219E-01  0.13909891574E+00  0.43042061245E-01 0.  0.
         14    1    1    2    0    0  0.17200746409E-02  0.10852137114E-01  0.82786850409E-02  0.13757331235E-01  0.00000000000E+00 0.  1.
     999901    1    3    3    0    0  0.10072662177E+00 -0.74114441960E-01 -0.63036739260E-01  0.89107375303E+00  0.88000000000E+00 0. -1.
        -11    1    4    4    0    0 -0.80632400892E-01  0.38366479773E-01  0.56967662444E-01  0.10592047266E+00  0.51100000000E-03 0. -1.
         11    1    4    4    0    0 -0.21814295523E-01  0.24895825073E-01 -0.22096082253E-02  0.33178443073E-01  0.51100000000E-03 0.  1.
</event>
<event>
 8    1  0.2190512E+004  0.1043930E+01  0.7957747E-01            NaN
         13   -1    0    0    0    0  0.00000000000E+00  0.00000000000E+00  0.74505805969E-08  0.10566000000E+00  0.10566000000E+00 0. -1.
     999900   -1    0    0    0    0 -0.00000000000E+00 -0.00000000000E+00 -0.74505805969E-08  0.93827000000E+00  0.93827000000E+00 0.  1.
     999902    2    1    2    0    0 -0.11304878298E-01 -0.72080260747E-02  0.11870531179E-02  0.10304702449E+01  0.10303823371E+01 0.  0.
     999903    2    3    3    0    0  0.37197994736E-01  0.12477321699E+00 -0.17606606871E-01  0.13910905047E+00  0.45708739081E-01 0.  0.
         14    1    1    2    0    0  0.11304878298E-01  0.72080260747E-02 -0.11870531179E-02  0.13459755136E-01  0.00000000000E+00 0. -1.
     999901    1    3    3    0    0 -0.48502873034E-01 -0.13198124306E+00  0.18793659989E-01  0.89136119439E+00  0.88000000000E+00 0. -1.
        -11    1    4    4    0    0  0.44540065717E-01  0.71748552649E-01 -0.11437098800E-01  0.85221714435E-01  0.51100000000E-03 0. -1.
         11    1    4    4    0    0 -0.73420709813E-02  0.53024664336E-01 -0.61695080714E-02  0.53887336037E-01  0.51100000000E-03 0.  1.
</event>
<event>
 8    1  0.2190512E+004  0.1043930E+01  0.7957747E-01            NaN
         13   -1    0    0    0    0  0.00000000000E+00  0.00000000000E+00  0.74505805969E-08  0.10566000000E+00  0.10566000000E+00 0.  1.
     999900   -1    0    0    0    0 -0.00000000000E+00 -0.00000000000E+00 -0.74505805969E-08  0.93827000000E+00  0.93827000000E+00 0.  1.
     999902    2    1    2    0    0 -0.77249290572E-02 -0.10750561402E-01 -0.24315705068E-02  0.10304703702E+01  0.10303824640E+01 0.  0.
     999903    2    3    3    0    0  0.47630196415E-01 -0.12453305375E+00 -0.13404372655E-01  0.14135224088E+00  0.44985127641E-01 0.  0.
         14    1    1    2    0    0  0.77249290572E-02  0.10750561402E-01  0.24315705068E-02  0.13459629806E-01  0.00000000000E+00 0. -1.
     999901    1    3    3    0    0 -0.55355125472E-01  0.11378249235E+00  0.10972802148E-01  0.88911812931E+00  0.88000000000E+00 0. -1.
        -11    1    4    4    0    0  0.26806933944E-01 -0.34032562601E-01 -0.21055914865E-01  0.48170942449E-01  0.51100000000E-03 0.  1.
         11    1    4    4    0    0  0.20823262471E-01 -0.90500491152E-01  0.76515422094E-02  0.93181298434E-01  0.51100000000E-03 0. -1.
</event>
<event>
 8    1  0.2190512E+004  0.1043930E+01  0.7957747E-01            NaN
         13   -1    0    0    0    0  0.00000000000E+00  0.00000000000E+00  0.74505805969E-08  0.10566000000E+00  0.10566000000E+00 0.  1.
     999900   -1    0    0    0    0 -0.00000000000E+00 -0.00000000000E+00 -0.74505805969E-08  0.93827000000E+00  0.93827000000E+00 0.  1.
     999902    2    1    2    0    0  0.99088573060E-03 -0.13182762165E-01 -0.38210277571E-02  0.10301689199E+01  0.10300770050E+01 0.  0.
     999903    2    3    3    0    0 -0.10820655385E+00 -0.32172326095E-01 -0.70404473070E-01  0.14072075414E+00  0.45845653624E-01 0.  0.
         14    1    1    2    0    0 -0.99088573060E-03  0.13182762165E-01  0.38210277571E-02  0.13761080116E-01  0.00000000000E+00 0. -1.
     999901    1    3    3    0    0  0.10919743958E+00  0.18989563930E-01  0.66583445313E-01  0.88944816574E+00  0.88000000000E+00 0.  1.
        -11    1    4    4    0    0 -0.48745987006E-01  0.72405101738E-02 -0.19125024376E-01  0.52864202587E-01  0.51100000000E-03 0.  1.
         11    1    4    4    0    0 -0.59460566843E-01 -0.39412836269E-01 -0.51279448695E-01  0.87856551557E-01  0.51100000000E-03 0. -1.
</event>
<event>
 8    1  0.2190512E+004  0.1043930E+01  0.7957747E-01            NaN
         13   -1    0    0    0    0  0.00000000000E+00  0.00000000000E+00  0.74505805969E-08  0.10566000000E+00  0.10566000000E+00 0. -1.
     999900   -1    0    0    0    0 -0.00000000000E+00 -0.00000000000E+00 -0.74505805969E-08  0.93827000000E+00  0.93827000000E+00 0.  1.
     999902    2    1    2    0    0  0.85598905801E-02 -0.11952718338E-01  0.96827189233E-03  0.10291964752E+01  0.10290910105E+01 0.  0.
     999903    2    3    3    0    0  0.17309851252E-01 -0.74438012185E-01  0.10902291365E+00  0.14034509316E+00  0.44385818273E-01 0.  0.
         14    1    1    2    0    0 -0.85598905801E-02  0.11952718338E-01 -0.96827189233E-03  0.14733524794E-01  0.00000000000E+00 0.  1.
     999901    1    3    3    0    0 -0.87499606716E-02  0.62485293847E-01 -0.10805464176E+00  0.88885138205E+00  0.88000000000E+00 0.  1.
        -11    1    4    4    0    0  0.52997553716E-02 -0.73303934882E-01  0.78578172199E-01  0.10759342240E+00  0.51100000000E-03 0. -1.
         11    1    4    4    0    0  0.12010095880E-01 -0.11340773030E-02  0.30444741455E-01  0.32751670761E-01  0.51100000000E-03 0.  1.
</event>
<event>
 8    1  0.2190512E+004  0.1043930E+01  0.7957747E-01            NaN
         13   -1    0    0    0    0  0.00000000000E+00  0.00000000000E+00  0.74505805969E-08  0.10566000000E+00  0.10566000000E+00 0.  1.
     999900   -1    0    0    0    0 -0.00000000000E+00 -0.00000000000E+00 -0.74505805969E-08  0.93827000000E+00  0.93827000000E+00 0.  1.
     999902    2    1    2    0    0 -0.13325117045E-01 -0.81327350586E-03 -0.23193629141E-02  0.10303801069E+01  0.10302910099E+01 0.  0.
     999903    2    3    3    0    0  0.32001285732E-01  0.11179396813E+00  0.62709731479E-01  0.13967047030E+00  0.45313974133E-01 0.  0.
         14    1    1    2    0    0  0.13325117045E-01  0.81327350586E-03  0.23193629141E-02  0.13549893077E-01  0.00000000000E+00 0.  1.
     999901    1    3    3    0    0 -0.45326402777E-01 -0.11260724164E+00 -0.65029094393E-01  0.89070963662E+00  0.88000000000E+00 0.  1.
        -11    1    4    4    0    0  0.33934689441E-01  0.73336272713E-01  0.60775470504E-01  0.10111226918E+00  0.51100000000E-03 0.  1.
         11    1    4    4    0    0 -0.19334037092E-02  0.38457695420E-01  0.19342609757E-02  0.38558201118E-01  0.51100000000E-03 0. -1.
</event>
<event>
 8    1  0.2190512E+004  0.1043930E+01  0.7957747E-01            NaN
         13   -1    0    0    0    0  0.00000000000E+00  0.00000000000E+00  0.74505805969E-08  0.10566000000E+00  0.10566000000E+00 0.  1.
     999900   -1    0    0    0    0 -0.00000000000E+00 -0.00000000000E+00 -0.74505805969E-08  0.93827000000E+00  0.93827000000E+00 0. -1.
     999902    2    1    2    0    0  0.32595198585E-02 -0.91794125096E-02  0.12205914625E-01  0.10283136485E+01  0.10281950638E+01 0.  0.
     999903    2    3    3    0    0  0.71483658801E-01 -0.73456353465E-02 -0.10830273969E+00  0.13748244579E+00  0.44811467769E-01 0.  0.
         14    1    1    2    0    0 -0.32595198585E-02  0.91794125096E-02 -0.12205914625E-01  0.15616351545E-01  0.00000000000E+00 0. -1.
     999901    1    3    3    0    0 -0.68224138943E-01 -0.18337771631E-02  0.12050865431E+00  0.89083120266E+00  0.88000000000E+00 0.  1.
        -11    1    4    4    0    0  0.47915613060E-01  0.66723821543E-03 -0.33041236064E-01  0.58209411468E-01  0.51100000000E-03 0. -1.
         11    1    4    4    0    0  0.23568045741E-01 -0.80128735619E-02 -0.75261503622E-01  0.79273034325E-01  0.51100000000E-03 0.  1.
</event>
<event>
 8    1  0.2190512E+004  0.1043930E+01  0.7957747E-01            NaN
         13   -1    0    0    0    0  0.00000000000E+00  0.00000000000E+00  0.74505805969E-08  0.10566000000E+00  0.10566000000E+00 0. -1.
     999900   -1    0    0    0    0 -0.00000000000E+00 -0.00000000000E+00 -0.74505805969E-08  0.93827000000E+00  0.93827000000E+00 0. -1.
     999902    2    1    2    0    0 -0.15896259805E-01  0.73081022422E-03  0.12998822905E-01  0.10233826265E+01  0.10231763317E+01 0.  0.
     999903    2    3    3    0    0 -0.92960902582E-02  0.40480764028E-01  0.12113796705E+00  0.13584800999E+00  0.45333929978E-01 0.  0.
         14    1    1    2    0    0  0.15896259805E-01 -0.73081022422E-03 -0.12998822905E-01  0.20547373464E-01  0.00000000000E+00 0.  1.
     999901    1    3    3    0    0 -0.66001695467E-02 -0.39749953804E-01 -0.10813914415E+00  0.88753461654E+00  0.88000000000E+00 0. -1.
        -11    1    4    4    0    0  0.72167583379E-03 -0.65010889279E-02  0.12311994304E-02  0.66754734884E-02  0.51100000000E-03 0. -1.
         11    1    4    4    0    0 -0.10017766092E-01  0.46981852956E-01  0.11990676762E+00  0.12917253650E+00  0.51100000000E-03 0.  1.
</event>
<event>
 8    1  0.2190512E+004  0.1043930E+01  0.7957747E-01            NaN
         13   -1    0    0    0    0  0.00000000000E+00  0.00000000000E+00  0.74505805969E-08  0.10566000000E+00  0.10566000000E+00 0.  1.
     999900   -1    0    0    0    0 -0.00000000000E+00 -0.00000000000E+00 -0.74505805969E-08  0.93827000000E+00  0.93827000000E+00 0. -1.
     999902    2    1    2    0    0  0.34812283307E-02  0.11243044689E-01 -0.29456264479E-02  0.10317973284E+01  0.10317259933E+01 0.  0.
     999903    2    3    3    0    0 -0.45117924806E-03  0.12839728591E+00 -0.44018035700E-01  0.14307491795E+00  0.45241331629E-01 0.  0.
         14    1    1    2    0    0 -0.34812283307E-02 -0.11243044689E-01  0.29456264479E-02  0.12132671583E-01  0.00000000000E+00 0.  1.
     999901    1    3    3    0    0  0.39324075787E-02 -0.11715424122E+00  0.41072409252E-01  0.88872241047E+00  0.88000000000E+00 0.  1.
        -11    1    4    4    0    0  0.55364353680E-02  0.53079822455E-01 -0.41274590457E-01  0.67468308167E-01  0.51100000000E-03 0.  1.
         11    1    4    4    0    0 -0.59876146161E-02  0.75317463455E-01 -0.27434452432E-02  0.75606609783E-01  0.51100000000E-03 0. -1.
</event>
<event>
 8    1  0.2190512E+004  0.1043930E+01  0.7957747E-01            NaN
         13   -1    0    0    0    0  0.00000000000E+00  0.00000000000E+00  0.74505805969E-08  0.10566000000E+00  0.10566000000E+00 0.  1.
     999900   -1    0    0    0    0 -0.00000000000E+00 -0.00000000000E+00 -0.74505805969E-08  0.93827000000E+00  0.93827000000E+00 0. -1.
     999902    2    1    2    0    0  0.61777122973E-02 -0.13492737322E-01 -0.35732439355E-02  0.10286661158E+01  0.10285528628E+01 0.  0.
     999903    2    3    3    0    0  0.40784309179E-01  0.11810292563E+00  0.36192059299E-01  0.13732088837E+00  0.43994321323E-01 0.  0.
         14    1    1    2    0    0 -0.61777122973E-02  0.13492737322E-01  0.35732439355E-02  0.15263884234E-01  0.00000000000E+00 0.  1.
     999901    1    3    3    0    0 -0.34606596882E-01 -0.13159566296E+00 -0.39765303234E-01  0.89134522739E+00  0.88000000000E+00 0. -1.
        -11    1    4    4    0    0  0.84960858097E-02  0.84730110107E-01  0.15834542709E-01  0.86616216130E-01  0.51100000000E-03 0. -1.
         11    1    4    4    0    0  0.32288223370E-01  0.33372815527E-01  0.20357516589E-01  0.50704672243E-01  0.51100000000E-03 0.  1.
</event>
<event>
 8    1  0.2190512E+004  0.1043930E+01  0.7957747E-01            NaN
         13   -1    0    0    0    0  0.00000000000E+00  0.00000000000E+00  0.74505805969E-08  0.10566000000E+00  0.10566000000E+00 0.  1.
     999900   -1    0    0    0    0 -0.00000000000E+00 -0.00000000000E+00 -0.74505805969E-08  0.93827000000E+00  0.93827000000E+00 0.  1.
     999902    2    1    2    0    0 -0.11881286189E-01 -0.80846805338E-02 -0.80412245328E-03  0.10295364725E+01  0.10294358526E+01 0.  0.
     999903    2    3    3    0    0  0.52419793564E-01  0.10340315440E+00 -0.59942672661E-01  0.13821075521E+00  0.45486720613E-01 0.  0.
         14    1    1    2    0    0  0.11881286189E-01  0.80846805338E-02  0.80412245328E-03  0.14393527495E-01  0.00000000000E+00 0.  1.
     999901    1    3    3    0    0 -0.64301079753E-01 -0.11148783493E+00  0.59138550208E-01  0.89132571730E+00  0.88000000000E+00 0. -1.
        -11    1    4    4    0    0  0.43069262550E-01  0.45787421965E-01 -0.46818769974E-01  0.78381807390E-01  0.51100000000E-03 0.  1.
         11    1    4    4    0    0  0.93505310139E-02  0.57615732434E-01 -0.13123902687E-01  0.59828947817E-01  0.51100000000E-03 0. -1.
</event>
<event>
 8    1  0.2190512E+004  0.1043930E+01  0.7957747E-01            NaN
         13   -1    0    0    0    0  0.00000000000E+00  0.00000000000E+00  0.74505805969E-08  0.10566000000E+00  0.10566000000E+00 0. -1.
     999900   -1    0    0    0    0 -0.00000000000E+00 -0.00000000000E+00 -0.74505805969E-08  0.93827000000E+00  0.93827000000E+00 0. -1.
     999902    2    1    2    0    0  0.89640222471E-02  0.88394155451E-02 -0.54085331845E-02  0.10302281318E+01  0.10301370114E+01 0.  0.
     999903    2    3    3    0    0 -0.32625292590E-01 -0.89383264970E-01 -0.91702071812E-01  0.13959692813E+00  0.44991716959E-01 0.  0.
         14    1    1    2    0    0 -0.89640222471E-02 -0.88394155451E-02  0.54085331845E-02  0.13701868239E-01  0.00000000000E+00 0.  1.
     999901    1    3    3    0    0  0.41589314837E-01  0.98222680515E-01  0.86293538628E-01  0.89063120363E+00  0.88000000000E+00 0.  1.
        -11    1    4    4    0    0 -0.82689065060E-02 -0.12775198717E-01 -0.42977270358E-01  0.45594817748E-01  0.51100000000E-03 0. -1.
         11    1    4    4    0    0 -0.24356386084E-01 -0.76608066253E-01 -0.48724801454E-01  0.94002110380E-01  0.51100000000E-03 0.  1.
</event>
<event>
 8    1  0.2190512E+004  0.1043930E+01  0.7957747E-01            NaN
         13   -1    0    0    0    0  0.00000000000E+00  0.00000000000E+00  0.74505805969E-08  0.10566000000E+00  0.10566000000E+00 0.  1.
     999900   -1    0    0    0    0 -0.00000000000E+00 -0.00000000000E+00 -0.74505805969E-08  0.93827000000E+00  0.93827000000E+00 0. -1.
     999902    2    1    2    0    0  0.61357667816E-02  0.77147021286E-02  0.10908492029E-01  0.10292276376E+01  0.10291226217E+01 0.  0.
     999903    2    3    3    0    0  0.74814783674E-01  0.10548607727E-02  0.11061478365E+00  0.14091321944E+00  0.44972663533E-01 0.  0.
         14    1    1    2    0    0 -0.61357667816E-02 -0.77147021286E-02 -0.10908492029E-01  0.14702362438E-01  0.00000000000E+00 0. -1.
     999901    1    3    3    0    0 -0.68679016893E-01  0.66598413559E-02 -0.99706291618E-01  0.88831441812E+00  0.88000000000E+00 0. -1.
        -11    1    4    4    0    0  0.27801899815E-01  0.18534206212E-01  0.65124722509E-01  0.73198039838E-01  0.51100000000E-03 0. -1.
         11    1    4    4    0    0  0.47012883859E-01 -0.17479345439E-01  0.45490061138E-01  0.67715179606E-01  0.51100000000E-03 0.  1.
</event>
<event>
 8    1  0.2190512E+004  0.1043930E+01  0.7957747E-01            NaN
         13   -1    0    0    0    0  0.00000000000E+00  0.00000000000E+00  0.74505805969E-08  0.10566000000E+00  0.10566000000E+00 0.  1.
     999900   -1    0    0    0    0 -0.00000000000E+00 -0.00000000000E+00 -0.74505805969E-08  0.93827000000E+00  0.93827000000E+00 0.  1.
     999902    2    1    2    0    0 -0.12012429968E-01 -0.59904573572E-02 -0.35154707074E-03  0.10305021320E+01  0.10304146430E+01 0.  0.
     999903    2    3    3    0    0  0.78262258976E-01 -0.89345549789E-04 -0.10530071309E+00  0.13966058044E+00  0.47873253374E-01 0.  0.
         14    1    1    2    0    0  0.12012429968E-01  0.59904573572E-02  0.35154707074E-03  0.13427867978E-01  0.00000000000E+00 0. -1.
     999901    1    3    3    0    0 -0.90274688945E-01 -0.59011118074E-02  0.10494916602E+00  0.89084155159E+00  0.88000000000E+00 0.  1.
        -11    1    4    4    0    0  0.75476664080E-03 -0.76218685246E-02 -0.31322137712E-01  0.32249030750E-01  0.51100000000E-03 0.  1.
         11    1    4    4    0    0  0.77507492336E-01  0.75325229748E-02 -0.73978575374E-01  0.10741154969E+00  0.51100000000E-03 0. -1.
</event>
<event>
 8    1  0.2190512E+004  0.1043930E+01  0.7957747E-01            NaN
         13   -1    0    0    0    0  0.00000000000E+00  0.00000000000E+00  0.74505805969E-08  0.10566000000E+00  0.10566000000E+00 0.  1.
     999900   -1    0    0    0    0 -0.00000000000E+00 -0.00000000000E+00 -0.74505805969E-08  0.93827000000E+00  0.93827000000E+00 0. -1.
     999902    2    1    2    0    0  0.17435958225E-02 -0.13590564114E-01 -0.55542396269E-02  0.10291451044E+01  0.10290388976E+01 0.  0.
     999903    2    3    3    0    0 -0.10448486528E-01  0.99290421042E-01 -0.84518436611E-01  0.13834428040E+00  0.45033489875E-01 0.  0.
         14    1    1    2    0    0 -0.17435958225E-02  0.13590564114E-01  0.55542396269E-02  0.14784895575E-01  0.00000000000E+00 0.  1.
     999901    1    3    3    0    0  0.12192082350E-01 -0.11288098516E+00  0.78964196984E-01  0.89080082403E+00  0.88000000000E+00 0.  1.
        -11    1    4    4    0    0 -0.21023549718E-01  0.55284147343E-01 -0.68089392706E-01  0.90192866183E-01  0.51100000000E-03 0. -1.
         11    1    4    4    0    0  0.10575063190E-01  0.44006273698E-01 -0.16429043905E-01  0.48151414215E-01  0.51100000000E-03 0.  1.
</event>
<event>
 8    1  0.2190512E+004  0.1043930E+01  0.7957747E-01            NaN
         13   -1    0    0    0    0  0.00000000000E+00  0.00000000000E+00  0.74505805969E-08  0.10566000000E+00  0.10566000000E+00 0. -1.
     999900   -1    0    0    0    0 -0.00000000000E+00 -0.00000000000E+00 -0.74505805969E-08  0.93827000000E+00  0.93827000000E+00 0.  1.
     999902    2    1    2    0    0 -0.51339166333E-02  0.16914686556E-02 -0.10525621263E-01  0.10320975502E+01  0.10320297216E+01 0.  0.
     999903    2    3    3    0    0 -0.12830485317E-01 -0.48661681326E-01 -0.12552974540E+00  0.14315400558E+00  0.46933695262E-01 0.  0.
         14    1    1    2    0    0  0.51339166333E-02 -0.16914686556E-02  0.10525621263E-01  0.11832449839E-01  0.00000000000E+00 0. -1.
     999901    1    3    3    0    0  0.76965686837E-02  0.50353149982E-01  0.11500412414E+00  0.88894354458E+00  0.88000000000E+00 0. -1.
        -11    1    4    4    0    0  0.10330073020E-01 -0.31111886605E-01 -0.97148882153E-01  0.10253207460E+00  0.51100000000E-03 0.  1.
         11    1    4    4    0    0 -0.23160558337E-01 -0.17549794721E-01 -0.28380863246E-01  0.40621930983E-01  0.51100000000E-03 0. -1.
</event>
<event>
 8    1  0.2190512E+004  0.1043930E+01  0.7957747E-01            NaN
         13   -1    0    0    0    0  0.00000000000E+00  0.00000000000E+00  0.74505805969E-08  0.10566000000E+00  0.10566000000E+00 0. -1.
     999900   -1    0    0    0    0 -0.00000000000E+00 -0.00000000000E+00 -0.74505805969E-08  0.93827000000E+00  0.93827000000E+00 0. -1.
     999902    2    1    2    0    0 -0.86278729615E-02  0.11524213802E-01 -0.93069084350E-03  0.10295038473E+01  0.10294027675E+01 0.  0.
     999903    2    3    3    0    0  0.10146958621E-01 -0.13005342706E+00  0.28292881223E-02  0.13798219300E+00  0.44880129823E-01 0.  0.
         14    1    1    2    0    0  0.86278729615E-02 -0.11524213802E-01  0.93069084350E-03  0.14426152676E-01  0.00000000000E+00 0.  1.
     999901    1    3    3    0    0 -0.18774831583E-01  0.14157764086E+00 -0.37599789658E-02  0.89152165433E+00  0.88000000000E+00 0. -1.
        -11    1    4    4    0    0 -0.42426055232E-02 -0.10073249131E+00  0.17227293917E-01  0.10228428660E+00  0.51100000000E-03 0. -1.
         11    1    4    4    0    0  0.14389564145E-01 -0.29320935747E-01 -0.14398005795E-01  0.35697906398E-01  0.51100000000E-03 0.  1.
</event>
<event>
 8    1  0.2190512E+004  0.1043930E+01  0.7957747E-01            NaN
         13   -1    0    0    0    0  0.00000000000E+00  0.00000000000E+00  0.74505805969E-08  0.10566000000E+00  0.10566000000E+00 0.  1.
     999900   -1    0    0    0    0 -0.00000000000E+00 -0.00000000000E+00 -0.74505805969E-08  0.93827000000E+00  0.93827000000E+00 0.  1.
     999902    2    1    2    0    0  0.53411998689E-02 -0.10989193590E-01  0.43683717918E-02  0.10309541199E+01  0.10308724576E+01 0.  0.
     999903    2    3    3    0    0  0.13121185600E+00 -0.26784625709E-01  0.11528593357E-01  0.14182860205E+00  0.45260099045E-01 0.  0.
         14    1    1    2    0    0 -0.53411998689E-02  0.10989193590E-01 -0.43683717918E-02  0.12975880082E-01  0.00000000000E+00 0. -1.
     999901    1    3    3    0    0 -0.12587065613E+00  0.15795432119E-01 -0.71602215655E-02  0.88912551787E+00  0.88000000000E+00 0. -1.
        -11    1    4    4    0    0  0.56511613362E-01 -0.16001454050E-01  0.27223396087E-01  0.64737804967E-01  0.51100000000E-03 0. -1.
         11    1    4    4    0    0  0.74700242638E-01 -0.10783171659E-01 -0.15694802730E-01  0.77090797083E-01  0.51100000000E-03 0.  1.
</event>
<event>
 8    1  0.2190512E+004  0.1043930E+01  0.7957747E-01            NaN
         13   -1    0    0    0    0  0.00000000000E+00  0.00000000000E+00  0.74505805969E-08  0.10566000000E+00  0.10566000000E+00 0.  1.
     999900   -1    0    0    0    0 -0.00000000000E+00 -0.00000000000E+00 -0.74505805969E-08  0.93827000000E+00  0.93827000000E+00 0. -1.
     999902    2    1    2    0    0  0.37442117236E-02 -0.42723088116E-02 -0.13925744128E-01  0.10288901166E+01  0.10287801874E+01 0.  0.
     999903    2    3    3    0    0 -0.12941571027E-01  0.11425970841E+00 -0.64222770632E-01  0.13936325058E+00  0.45549820158E-01 0.  0.
         14    1    1    2    0    0 -0.37442117236E-02  0.42723088116E-02  0.13925744128E-01  0.15039883428E-01  0.00000000000E+00 0.  1.
     999901    1    3    3    0    0  0.16685782751E-01 -0.11853201722E+00  0.50297026505E-01  0.88952686600E+00  0.88000000000E+00 0.  1.
        -11    1    4    4    0    0  0.28048981021E-03  0.61258533887E-01 -0.58034893170E-01  0.84385997623E-01  0.51100000000E-03 0. -1.
         11    1    4    4    0    0 -0.13222060838E-01  0.53001174525E-01 -0.61878774621E-02  0.54977252953E-01  0.51100000000E-03 0.  1.
</event>
<event>
 8    1  0.2190512E+004  0.1043930E+01  0.7957747E-01            NaN
         13   -1    0    0    0    0  0.00000000000E+00  0.00000000000E+00  0.74505805969E-08  0.10566000000E+00  0.10566000000E+00 0. -1.
     999900   -1    0    0    0    0 -0.00000000000E+00 -0.00000000000E+00 -0.74505805969E-08  0.93827000000E+00  0.93827000000E+00 0. -1.
     999902    2    1    2    0    0  0.58277409799E-02  0.17415413675E-02  0.11131284453E-01  0.10312453232E+01  0.10311673073E+01 0.  0.
     999903    2    3    3    0    0  0.52293824662E-01  0.51719162792E-01  0.11318222571E+00  0.14272337404E+00  0.46370565923E-01 0.  0.
         14    1    1    2    0    0 -0.58277409799E-02 -0.17415413675E-02 -0.11131284453E-01  0.12684676773E-01  0.00000000000E+00 0.  1.
     999901    1    3    3    0    0 -0.46466083682E-01 -0.49977621425E-01 -0.10205094125E+00  0.88852194919E+00  0.88000000000E+00 0. -1.
        -11    1    4    4    0    0  0.11716494944E-02  0.25247551819E-01  0.16468121816E-01  0.30170710839E-01  0.51100000000E-03 0. -1.
         11    1    4    4    0    0  0.51122175168E-01  0.26471610973E-01  0.96714103890E-01  0.11255266320E+00  0.51100000000E-03 0.  1.
</event>
<event>
 8    1  0.2190512E+004  0.1043930E+01  0.7957747E-01            NaN
         13   -1    0    0    0    0  0.00000000000E+00  0.00000000000E+00  0.74505805969E-08  0.10566000000E+00  0.10566000000E+00 0. -1.
     999900   -1    0    0    0    0 -0.00000000000E+00 -0.00000000000E+00 -0.74505805969E-08  0.93827000000E+00  0.93827000000E+00 0.  1.
     999902    2    1    2    0    0  0.14679189948E-01  0.61696043003E-02  0.18002669149E-01  0.10198958840E+01  0.10196126595E+01 0.  0.
     999903    2    3    3    0    0  0.36198201558E-01  0.40208059930E-01 -0.10909544085E+00  0.12985340531E+00  0.45089841176E-01 0.  0.
         14    1    1    2    0    0 -0.14679189948E-01 -0.61696043003E-02 -0.18002669149E-01  0.24034115986E-01  0.00000000000E+00 0.  1.
     999901    1    3    3    0    0 -0.21519011611E-01 -0.34038455630E-01  0.12709811000E+00  0.89004247870E+00  0.88000000000E+00 0. -1.
        -11    1    4    4    0    0  0.11655609118E-01  0.29891183330E-01 -0.93819698443E-01  0.99155095692E-01  0.51100000000E-03 0.  1.
         11    1    4    4    0    0  0.24542592440E-01  0.10316876600E-01 -0.15275742411E-01  0.30698309623E-01  0.51100000000E-03 0. -1.
</event>
<event>
 8    1  0.2190512E+004  0.1043930E+01  0.7957747E-01            NaN
         13   -1    0    0    0    0  0.00000000000E+00  0.00000000000E+00  0.74505805969E-08  0.10566000000E+00  0.10566000000E+00 0. -1.
     999900   -1    0    0    0    0 -0.00000000000E+00 -0.00000000000E+00 -0.74505805969E-08  0.93827000000E+00  0.93827000000E+00 0. -1.
     999902    2    1    2    0    0  0.78624371654E-03 -0.50469182029E-02  0.13185281293E-01  0.10297899432E+01  0.10296928600E+01 0.  0.
     999903    2    3    3    0    0  0.84556044715E-01 -0.56190215437E-01  0.87005048615E-01  0.14126173633E+00  0.45584368580E-01 0.  0.
         14    1    1    2    0    0 -0.78624371654E-03  0.50469182029E-02 -0.13185281293E-01  0.14140056765E-01  0.00000000000E+00 0.  1.
     999901    1    3    3    0    0 -0.83769800998E-01  0.51143297234E-01 -0.73819767322E-01  0.88852820690E+00  0.88000000000E+00 0. -1.
        -11    1    4    4    0    0  0.75816512481E-01 -0.38958813152E-01  0.48239465312E-01  0.97945085745E-01  0.51100000000E-03 0.  1.
         11    1    4    4    0    0  0.87395322335E-02 -0.17231402285E-01  0.38765583304E-01  0.43316650589E-01  0.51100000000E-03 0. -1.
</event>
<event>
 8    1  0.2190512E+004  0.1043930E+01  0.7957747E-01            NaN
         13   -1    0    0    0    0  0.00000000000E+00  0.00000000000E+00  0.74505805969E-08  0.10566000000E+00  0.10566000000E+00 0. -1.
     999900   -1    0    0    0    0 -0.00000000000E+00 -0.00000000000E+00 -0.74505805969E-08  0.93827000000E+00  0.93827000000E+00 0.  1.
     999902    2    1    2    0    0  0.10685016427E-02 -0.13866713260E-01  0.23897233557E-02  0.10298183661E+01  0.10297216755E+01 0.  0.
     999903    2    3    3    0    0 -0.12576233018E+00  0.29445692408E-01 -0.26523112733E-01  0.13920173904E+00  0.44614304291E-01 0.  0.
         14    1    1    2    0    0 -0.10685016427E-02  0.13866713260E-01 -0.23897233557E-02  0.14111633857E-01  0.00000000000E+00 0.  1.
     999901    1    3    3    0    0  0.12683083183E+00 -0.43312405668E-01  0.28912836089E-01  0.89061662711E+00  0.88000000000E+00 0. -1.
        -11    1    4    4    0    0 -0.13788435243E-01  0.82871487093E-02 -0.19137554005E-01  0.25006096746E-01  0.51100000000E-03 0. -1.
         11    1    4    4    0    0 -0.11197389494E+00  0.21158543698E-01 -0.73855587288E-02  0.11419564229E+00  0.51100000000E-03 0.  1.
</event>
<event>
 8    1  0.2190512E+004  0.1043930E+01  0.7957747E-01            NaN
         13   -1    0    0    0    0  0.00000000000E+00  0.00000000000E+00  0.74505805969E-08  0.10566000000E+00  0.10566000000E+00 0. -1.
     999900   -1    0    0    0    0 -0.00000000000E+00 -0.00000000000E+00 -0.74505805969E-08  0.93827000000E+00  0.93827000000E+00 0.  1.
     999902    2    1    2    0    0 -0.92622002521E-02  0.61962270639E-02  0.78927207018E-02  0.10302743556E+01  0.10301838531E+01 0.  0.
     999903    2    3    3    0    0  0.76500404365E-01  0.72700135647E-01 -0.77507153089E-01  0.13950438944E+00  0.48129973008E-01 0.  0.
         14    1    1    2    0    0  0.92622002521E-02 -0.61962270639E-02 -0.78927207018E-02  0.13655644379E-01  0.00000000000E+00 0. -1.
     999901    1    3    3    0    0 -0.85762604617E-01 -0.66503908583E-01  0.85399873791E-01  0.89076996618E+00  0.88000000000E+00 0.  1.
        -11    1    4    4    0    0  0.79998573234E-01  0.53021579249E-01 -0.65176297287E-01  0.11601409584E+00  0.51100000000E-03 0.  1.
         11    1    4    4    0    0 -0.34981688696E-02  0.19678556398E-01 -0.12330855803E-01  0.23490293595E-01  0.51100000000E-03 0. -1.
</event>
<event>
 8    1  0.2190512E+004  0.1043930E+01  0.7957747E-01            NaN
         13   -1    0    0    0    0  0.00000000000E+00  0.00000000000E+00  0.74505805969E-08  0.10566000000E+00  0.10566000000E+00 0.  1.
     999900   -1    0    0    0    0 -0.00000000000E+00 -0.00000000000E+00 -0.74505805969E-08  0.93827000000E+00  0.93827000000E+00 0. -1.
     999902    2    1    2    0    0  0.12263837789E-01  0.33763775975E-02  0.45980317784E-02  0.10304043378E+01  0.10303155612E+01 0.  0.
     999903    2    3    3    0    0  0.11716680523E+00 -0.20206385039E-01 -0.61717717885E-01  0.14138321431E+00  0.45208166774E-01 0.  0.
         14    1    1    2    0    0 -0.12263837789E-01 -0.33763775975E-02 -0.45980317784E-02  0.13525662247E-01  0.00000000000E+00 0.  1.
     999901    1    3    3    0    0 -0.10490296744E+00  0.23582762636E-01  0.66315749663E-01  0.88902112344E+00  0.88000000000E+00 0.  1.
        -11    1    4    4    0    0  0.14529754476E-01 -0.19786166013E-01 -0.11266670644E-01  0.27014905498E-01  0.51100000000E-03 0. -1.
         11    1    4    4    0    0  0.10263705076E+00 -0.42021902562E-03 -0.50451047241E-01  0.11436830881E+00  0.51100000000E-03 0.  1.
</event>
<event>
 8    1  0.2190512E+004  0.1043930E+01  0.7957747E-01            NaN
         13   -1    0    0    0    0  0.00000000000E+00  0.00000000000E+00  0.74505805969E-08  0.10566000000E+00  0.10566000000E+00 0.  1.
     999900   -1    0    0    0    0 -0.00000000000E+00 -0.00000000000E+00 -0.74505805969E-08  0.93827000000E+00  0.93827000000E+00 0. -1.
     999902    2    1    2    0    0  0.26576776006E-02 -0.83410896567E-02  0.11721077239E-01  0.10293005544E+01  0.10291965850E+01 0.  0.
     999903    2    3    3    0    0  0.34494627926E-01  0.63734980289E-01 -0.10725749227E+00  0.13780492835E+00  0.47265225718E-01 0.  0.
         14    1    1    2    0    0 -0.26576776006E-02  0.83410896567E-02 -0.11721077239E-01  0.14629445599E-01  0.00000000000E+00 0. -1.
     999901    1    3    3    0    0 -0.31836950325E-01 -0.72076069946E-01  0.11897856951E+00  0.89149562605E+00  0.88000000000E+00 0.  1.
        -11    1    4    4    0    0 -0.19573247566E-02  0.19474360559E-01 -0.44361443438E-02  0.20075416235E-01  0.51100000000E-03 0.  1.
         11    1    4    4    0    0  0.36451952683E-01  0.44260619730E-01 -0.10282134792E+00  0.11772951212E+00  0.51100000000E-03 0. -1.
</event>
<event>
 8    1  0.2190512E+004  0.1043930E+01  0.7957747E-01            NaN
         13   -1    0    0    0    0  0.00000000000E+00  0.00000000000E+00  0.74505805969E-08  0.10566000000E+00  0.10566000000E+00 0. -1.
     999900   -1    0    0    0    0 -0.00000000000E+00 -0.00000000000E+00 -0.74505805969E-08  0.93827000000E+00  0.93827000000E+00 0.  1.
     999902    2    1    2    0    0 -0.10558751251E-01 -0.10730778897E-01  0.15612213977E-02  0.10287948008E+01  0.10286834634E+01 0.  0.
     999903    2    3    3    0    0  0.80512589174E-01  0.86604181184E-01 -0.52447912360E-01  0.13711937213E+00  0.45479418286E-01 0.  0.
         14    1    1    2    0    0  0.10558751251E-01  0.10730778897E-01 -0.15612213977E-02  0.15135199238E-01  0.00000000000E+00 0.  1.
     999901    1    3    3    0    0 -0.91071340425E-01 -0.97334960081E-01  0.54009133758E-01  0.89167542863E+00  0.88000000000E+00 0.  1.
        -11    1    4    4    0    0  0.81439835497E-01  0.65848101468E-01 -0.50424140000E-01  0.11623800707E+00  0.51100000000E-03 0.  1.
         11    1    4    4    0    0 -0.92724632312E-03  0.20756079717E-01 -0.20237723599E-02  0.20881365054E-01  0.51100000000E-03 0. -1.
</event>
<event>
 8    1  0.2190512E+004  0.1043930E+01  0.7957747E-01            NaN
         13   -1    0    0    0    0  0.00000000000E+00  0.00000000000E+00  0.74505805969E-08  0.10566000000E+00  0.10566000000E+00 0. -1.
     999900   -1    0    0    0    0 -0.00000000000E+00 -0.00000000000E+00 -0.74505805969E-08  0.93827000000E+00  0.93827000000E+00 0.  1.
     999902    2    1    2    0    0 -0.34956825963E-02  0.10737025796E-01 -0.94710195466E-02  0.10291921667E+01  0.10290866398E+01 0.  0.
     999903    2    3    3    0    0 -0.26758047012E-01 -0.11681487977E+00 -0.52869177312E-01  0.13863390002E+00  0.45414745506E-01 0.  0.
         14    1    1    2    0    0  0.34956825963E-02 -0.10737025796E-01  0.94710195466E-02  0.14737833322E-01  0.00000000000E+00 0. -1.
     999901    1    3    3    0    0  0.23262364415E-01  0.12755190557E+00  0.43398157765E-01  0.89055826666E+00  0.88000000000E+00 0.  1.
        -11    1    4    4    0    0  0.20463560471E-02 -0.74760875747E-01 -0.18160417223E-01  0.76963874579E-01  0.51100000000E-03 0. -1.
         11    1    4    4    0    0 -0.28804403059E-01 -0.42054004026E-01 -0.34708760089E-01  0.61670025442E-01  0.51100000000E-03 0.  1.
</event>
<event>
 8    1  0.2190512E+004  0.1043930E+01  0.7957747E-01            NaN
         13   -1    0    0    0    0  0.00000000000E+00  0.00000000000E+00  0.74505805969E-08  0.10566000000E+00  0.10566000000E+00 0. -1.
     999900   -1    0    0    0    0 -0.00000000000E+00 -0.00000000000E+00 -0.74505805969E-08  0.93827000000E+00  0.93827000000E+00 0. -1.
     999902    2    1    2    0    0 -0.12251972871E-01 -0.38869773110E-02 -0.47408438825E-02  0.10302298163E+01  0.10301387185E+01 0.  0.
     999903    2    3    3    0    0  0.98498354111E-01  0.42017926536E-01 -0.77196406033E-01  0.13915030046E+00  0.44001012485E-01 0.  0.
         14    1    1    2    0    0  0.12251972871E-01  0.38869773110E-02  0.47408438825E-02  0.13700183669E-01  0.00000000000E+00 0. -1.
     999901    1    3    3    0    0 -0.11075032698E+00 -0.45904903847E-01  0.72455562151E-01  0.89107951587E+00  0.88000000000E+00 0.  1.
        -11    1    4    4    0    0  0.47532703800E-01  0.29329390095E-01 -0.64093902313E-01  0.85016824738E-01  0.51100000000E-03 0. -1.
         11    1    4    4    0    0  0.50965650311E-01  0.12688536442E-01 -0.13102503721E-01  0.54133475718E-01  0.51100000000E-03 0.  1.
</event>
<event>
 8    1  0.2190512E+004  0.1043930E+01  0.7957747E-01            NaN
         13   -1    0    0    0    0  0.00000000000E+00  0.00000000000E+00  0.74505805969E-08  0.10566000000E+00  0.10566000000E+00 0.  1.
     999900   -1    0    0    0    0 -0.00000000000E+00 -0.00000000000E+00 -0.74505805969E-08  0.93827000000E+00  0.93827000000E+00 0. -1.
     999902    2    1    2    0    0  0.89904982743E-02  0.18996621644E-02  0.86536458903E-02  0.10313076641E+01  0.10312304179E+01 0.  0.
     999903    2    3    3    0    0  0.12445652657E+00  0.41490429108E-01  0.33639354474E-01  0.14253091030E+00  0.44413641005E-01 0.  0.
         14    1    1    2    0    0 -0.89904982743E-02 -0.18996621644E-02 -0.86536458903E-02  0.12622335868E-01  0.00000000000E+00 0. -1.
     999901    1    3    3    0    0 -0.11546602830E+00 -0.39590766943E-01 -0.24985708583E-01  0.88877675383E+00  0.88000000000E+00 0. -1.
        -11    1    4    4    0    0  0.53845005293E-01  0.32778427499E-01 -0.17563820792E-02  0.63063903331E-01  0.51100000000E-03 0. -1.
         11    1    4    4    0    0  0.70611521281E-01  0.87120016088E-02  0.35395736553E-01  0.79467006970E-01  0.51100000000E-03 0.  1.
</event>
<event>
 8    1  0.2190512E+004  0.1043930E+01  0.7957747E-01            NaN
         13   -1    0    0    0    0  0.00000000000E+00  0.00000000000E+00  0.74505805969E-08  0.10566000000E+00  0.10566000000E+00 0.  1.
     999900   -1    0    0    0    0 -0.00000000000E+00 -0.00000000000E+00 -0.74505805969E-08  0.93827000000E+00  0.93827000000E+00 0. -1.
     999902    2    1    2    0    0  0.10262845612E-01  0.93633649024E-02 -0.45381834641E-02  0.10293151544E+01  0.10292113939E+01 0.  0.
     999903    2    3    3    0    0 -0.71581001659E-01  0.87011713099E-01  0.68050378776E-01  0.13914843931E+00  0.45128218394E-01 0.  0.
         14    1    1    2    0    0 -0.10262845612E-01 -0.93633649024E-02  0.45381834641E-02  0.14614845586E-01  0.00000000000E+00 0.  1.
     999901    1    3    3    0    0  0.81843847271E-01 -0.77648348197E-01 -0.72588562240E-01  0.89016671511E+00  0.88000000000E+00 0.  1.
        -11    1    4    4    0    0 -0.43553383105E-01  0.18574870502E-01  0.28808806456E-01  0.55426811603E-01  0.51100000000E-03 0. -1.
         11    1    4    4    0    0 -0.28027618554E-01  0.68436842597E-01  0.39241572320E-01  0.83721627705E-01  0.51100000000E-03 0.  1.
</event>
<event>
 8    1  0.2190512E+004  0.1043930E+01  0.7957747E-01            NaN
         13   -1    0    0    0    0  0.00000000000E+00  0.00000000000E+00  0.74505805969E-08  0.10566000000E+00  0.10566000000E+00 0. -1.
     999900   -1    0    0    0    0 -0.00000000000E+00 -0.00000000000E+00 -0.74505805969E-08  0.93827000000E+00  0.93827000000E+00 0.  1.
     999902    2    1    2    0    0 -0.56032323183E-02  0.84378991755E-02  0.87113866617E-02  0.10305702615E+01  0.10304836638E+01 0.  0.
     999903    2    3    3    0    0 -0.97841275254E-01 -0.58775037244E-01 -0.67826242291E-01  0.13990565346E+00  0.44110912266E-01 0.  0.
         14    1    1    2    0    0  0.56032323183E-02 -0.84378991755E-02 -0.87113866617E-02  0.13359738488E-01  0.00000000000E+00 0.  1.
     999901    1    3    3    0    0  0.92238042936E-01  0.67212936420E-01  0.76537628952E-01  0.89066460805E+00  0.88000000000E+00 0. -1.
        -11    1    4    4    0    0 -0.63795513235E-01 -0.20449782344E-01 -0.55942118666E-01  0.87280254747E-01  0.51100000000E-03 0. -1.
         11    1    4    4    0    0 -0.34045762019E-01 -0.38325254900E-01 -0.11884123625E-01  0.52625398715E-01  0.51100000000E-03 0.  1.
</event>
<event>
 8    1  0.2190512E+004  0.1043930E+01  0.7957747E-01            NaN
         13   -1    0    0    0    0  0.00000000000E+00  0.00000000000E+00  0.74505805969E-08  0.10566000000E+00  0.10566000000E+00 0.  1.
     999900   -1    0    0    0    0 -0.00000000000E+00 -0.00000000000E+00 -0.74505805969E-08  0.93827000000E+00  0.93827000000E+00 0.  1.
     999902    2    1    2    0    0  0.54941451251E-02  0.12352651656E-01  0.34492930667E-03  0.10304062206E+01  0.10303174689E+01 0.  0.
     999903    2    3    3    0    0  0.19017068713E-02 -0.10789446903E+00 -0.75607739711E-01  0.13897978863E+00  0.44204280411E-01 0.  0.
         14    1    1    2    0    0 -0.54941451251E-02 -0.12352651656E-01 -0.34492930667E-03  0.13523779421E-01  0.00000000000E+00 0. -1.
     999901    1    3    3    0    0  0.35924382538E-02  0.12024712069E+00  0.75952669018E-01  0.89142643195E+00  0.88000000000E+00 0. -1.
        -11    1    4    4    0    0 -0.36939208604E-02 -0.74815218230E-01 -0.26405562305E-01  0.79425920025E-01  0.51100000000E-03 0. -1.
         11    1    4    4    0    0  0.55956277318E-02 -0.33079250802E-01 -0.49202177407E-01  0.59553868606E-01  0.51100000000E-03 0.  1.
</event>
<event>
 8    1  0.2190512E+004  0.1043930E+01  0.7957747E-01            NaN
         13   -1    0    0    0    0  0.00000000000E+00  0.00000000000E+00  0.74505805969E-08  0.10566000000E+00  0.10566000000E+00 0. -1.
     999900   -1    0    0    0    0 -0.00000000000E+00 -0.00000000000E+00 -0.74505805969E-08  0.93827000000E+00  0.93827000000E+00 0.  1.
     999902    2    1    2    0    0  0.32286333147E-03  0.13848992393E-03 -0.14131976051E-01  0.10297936579E+01  0.10296966261E+01 0.  0.
     999903    2    3    3    0    0  0.32891511378E-01 -0.11360685062E+00  0.57988430866E-01  0.13895131922E+00  0.44231696457E-01 0.  0.
         14    1    1    2    0    0 -0.32286333147E-03 -0.13848992393E-03  0.14131976051E-01  0.14136342076E-01  0.00000000000E+00 0. -1.
     999901    1    3    3    0    0 -0.32568648046E-01  0.11374534054E+00 -0.72120406917E-01  0.89084233870E+00  0.88000000000E+00 0.  1.
        -11    1    4    4    0    0  0.37972812454E-01 -0.10351730852E+00  0.39203810154E-01  0.11702549936E+00  0.51100000000E-03 0.  1.
         11    1    4    4    0    0 -0.50813010768E-02 -0.10089542099E-01  0.18784620712E-01  0.21925819864E-01  0.51100000000E-03 0. -1.
</event>
<event>
 8    1  0.2190512E+004  0.1043930E+01  0.7957747E-01            NaN
         13   -1    0    0    0    0  0.00000000000E+00  0.00000000000E+00  0.74505805969E-08  0.10566000000E+00  0.10566000000E+00 0. -1.
     999900   -1    0    0    0    0 -0.00000000000E+00 -0.00000000000E+00 -0.74505805969E-08  0.93827000000E+00  0.93827000000E+00 0.  1.
     999902    2    1    2    0    0 -0.12150983263E-01 -0.50530859252E-02 -0.89205010015E-03  0.10307400104E+01  0.10306556133E+01 0.  0.
     999903    2    3    3    0    0  0.75767537673E-02  0.94684232170E-01  0.92707563061E-01  0.13995518578E+00  0.44387506794E-01 0.  0.
         14    1    1    2    0    0  0.12150983263E-01  0.50530859252E-02  0.89205010015E-03  0.13189989575E-01  0.00000000000E+00 0. -1.
     999901    1    3    3    0    0 -0.19727737030E-01 -0.99737318095E-01 -0.93599613162E-01  0.89078482464E+00  0.88000000000E+00 0.  1.
        -11    1    4    4    0    0  0.17957919693E-01  0.14126317341E-01  0.27753248414E-01  0.35951962949E-01  0.51100000000E-03 0.  1.
         11    1    4    4    0    0 -0.10381165926E-01  0.80557914828E-01  0.64954314648E-01  0.10400322283E+00  0.51100000000E-03 0. -1.
</event>
<event>
 8    1  0.2190512E+004  0.1043930E+01  0.7957747E-01            NaN
         13   -1    0    0    0    0  0.00000000000E+00  0.00000000000E+00  0.74505805969E-08  0.10566000000E+00  0.10566000000E+00 0.  1.
     999900   -1    0    0    0    0 -0.00000000000E+00 -0.00000000000E+00 -0.74505805969E-08  0.93827000000E+00  0.93827000000E+00 0.  1.
     999902    2    1    2    0    0 -0.35701679914E-02 -0.57307022089E-02  0.11696415463E-01  0.10304246980E+01  0.10303361903E+01 0.  0.
     999903    2    3    3    0    0 -0.13279923174E+00  0.11434371811E-01  0.70614336574E-02  0.14080889681E+00  0.44843068197E-01 0.  0.
         14    1    1    2    0    0  0.35701679914E-02  0.57307022089E-02 -0.11696415463E-01  0.13505301995E-01  0.00000000000E+00 0. -1.
     999901    1    3    3    0    0  0.12922906375E+00 -0.17165074020E-01  0.46349818057E-02  0.88961580120E+00  0.88000000000E+00 0.  1.
        -11    1    4    4    0    0 -0.48256101922E-01  0.25342236588E-01 -0.26917046046E-02  0.54574597779E-01  0.51100000000E-03 0.  1.
         11    1    4    4    0    0 -0.84543129818E-01 -0.13907864777E-01  0.97531382621E-02  0.86234299029E-01  0.51100000000E-03 0. -1.
</event>
<event>
 8    1  0.2190512E+004  0.1043930E+01  0.7957747E-01            NaN
         13   -1    0    0    0    0  0.00000000000E+00  0.00000000000E+00  0.74505805969E-08  0.10566000000E+00  0.10566000000E+00 0.  1.
     999900   -1    0    0    0    0 -0.00000000000E+00 -0.00000000000E+00 -0.74505805969E-08  0.93827000000E+00  0.93827000000E+00 0.  1.
     999902    2    1    2    0    0  0.57458053675E-02  0.74024579699E-02  0.74329815088E-02  0.10319692359E+01  0.10318999196E+01 0.  0.
     999903    2    3    3    0    0 -0.90660030679E-01 -0.66227761115E-01 -0.70336458378E-01  0.14024978443E+00  0.46015509882E-01 0.  0.
         14    1    1    2    0    0 -0.57458053675E-02 -0.74024579699E-02 -0.74329815088E-02  0.11960764082E-01  0.00000000000E+00 0. -1.
     999901    1    3    3    0    0  0.96405836047E-01  0.73630219085E-01  0.77769439886E-01  0.89171945149E+00  0.88000000000E+00 0. -1.
        -11    1    4    4    0    0 -0.54531665342E-01 -0.54651401294E-01 -0.66890893886E-01  0.10215248893E+00  0.51100000000E-03 0.  1.
         11    1    4    4    0    0 -0.36128365337E-01 -0.11576359821E-01 -0.34455644911E-02  0.38097295499E-01  0.51100000000E-03 0. -1.
</event>
<event>
 8    1  0.2190512E+004  0.1043930E+01  0.7957747E-01            NaN
         13   -1    0    0    0    0  0.00000000000E+00  0.00000000000E+00  0.74505805969E-08  0.10566000000E+00  0.10566000000E+00 0.  1.
     999900   -1    0    0    0    0 -0.00000000000E+00 -0.00000000000E+00 -0.74505805969E-08  0.93827000000E+00  0.93827000000E+00 0.  1.
     999902    2    1    2    0    0 -0.10761092739E-02 -0.48106316182E-03  0.16340264493E-01  0.10275472751E+01  0.10274166676E+01 0.  0.
     999903    2    3    3    0    0  0.12114530771E+00  0.12281772615E-02 -0.45179573173E-01  0.13697123299E+00  0.45191048174E-01 0.  0.
         14    1    1    2    0    0  0.10761092739E-02  0.48106316182E-03 -0.16340264493E-01  0.16382724946E-01  0.00000000000E+00 0. -1.
     999901    1    3    3    0    0 -0.12222141698E+00 -0.17092404233E-02  0.61519837667E-01  0.89057604206E+00  0.88000000000E+00 0.  1.
        -11    1    4    4    0    0  0.18783182088E-01 -0.32338769670E-02 -0.26776445340E-01  0.32871036425E-01  0.51100000000E-03 0. -1.
         11    1    4    4    0    0  0.10236212562E+00  0.44620542284E-02 -0.18403127833E-01  0.10410019656E+00  0.51100000000E-03 0.  1.
</event>
<event>
 8    1  0.2389007E+004  0.1043930E+01  0.7957747E-01            NaN
         13   -1    0    0    0    0  0.00000000000E+00  0.00000000000E+00  0.74505805969E-08  0.10566000000E+00  0.10566000000E+00 0.  1.
     999900   -1    0    0    0    0 -0.00000000000E+00 -0.00000000000E+00 -0.74505805969E-08  0.93827000000E+00  0.93827000000E+00 0. -1.
     999902    2    1    2    0    0  0.13831181086E-01  0.12333078184E-02 -0.94138432198E-03  0.10300120683E+01  0.10299180317E+01 0.  0.
     999903    2    3    3    0    0 -0.93206208625E-01  0.80029736232E-01 -0.46359159689E-01  0.13887310369E+00  0.45215165967E-01 0.  0.
         14    1    1    2    0    0 -0.13831181086E-01 -0.12333078184E-02  0.94138432198E-03  0.13917931701E-01  0.00000000000E+00 0.  1.
     999901    1    3    3    0    0  0.10703738971E+00 -0.78796428414E-01  0.45417775367E-01  0.89113896461E+00  0.88000000000E+00 0.  1.
        -11    1    4    4    0    0 -0.53493576258E-01  0.34785293182E-01 -0.15590371760E-02  0.63830016768E-01  0.51100000000E-03 0.  1.
         11    1    4    4    0    0 -0.39712632367E-01  0.45244443050E-01 -0.44800122513E-01  0.75043086921E-01  0.51100000000E-03 0. -1.
</event>
<event>
 8    1  0.2190512E+004  0.1043930E+01  0.7957747E-01            NaN
         13   -1    0    0    0    0  0.00000000000E+00  0.00000000000E+00  0.74505805969E-08  0.10566000000E+00  0.10566000000E+00 0.  1.
     999900   -1    0    0    0    0 -0.00000000000E+00 -0.00000000000E+00 -0.74505805969E-08  0.93827000000E+00  0.93827000000E+00 0.  1.
     999902    2    1    2    0    0  0.31221891204E-02  0.78307237477E-02 -0.80891292913E-02  0.10322465796E+01  0.10321804584E+01 0.  0.
     999903    2    3    3    0    0 -0.18986153995E-01 -0.18773717565E-01  0.13063883035E+00  0.14070744871E+00  0.44935015454E-01 0.  0.
         14    1    1    2    0    0 -0.31221891204E-02 -0.78307237477E-02  0.80891292913E-02  0.11683420390E-01  0.00000000000E+00 0.  1.
     999901    1    3    3    0    0  0.22108343115E-01  0.26604441312E-01 -0.13872795964E+00  0.89153913090E+00  0.88000000000E+00 0.  1.
        -11    1    4    4    0    0 -0.19512604126E-01 -0.28259806060E-01  0.57682819885E-01  0.67133651690E-01  0.51100000000E-03 0.  1.
         11    1    4    4    0    0  0.52645013171E-03  0.94860884953E-02  0.72956010464E-01  0.73573797024E-01  0.51100000000E-03 0. -1.
</event>
<event>
 8    1  0.2190512E+004  0.1043930E+01  0.7957747E-01            NaN
         13   -1    0    0    0    0  0.00000000000E+00  0.00000000000E+00  0.74505805969E-08  0.10566000000E+00  0.10566000000E+00 0.  1.
     999900   -1    0    0    0    0 -0.00000000000E+00 -0.00000000000E+00 -0.74505805969E-08  0.93827000000E+00  0.93827000000E+00 0. -1.
     999902    2    1    2    0    0  0.50787253161E-02 -0.95958929408E-02 -0.83224486162E-02  0.10302501695E+01  0.10301593440E+01 0.  0.
     999903    2    3    3    0    0  0.68357894681E-01 -0.78203943437E-02 -0.11520795441E+00  0.14152528684E+00  0.44973033286E-01 0.  0.
         14    1    1    2    0    0 -0.50787253161E-02  0.95958929408E-02  0.83224486162E-02  0.13679830523E-01  0.00000000000E+00 0.  1.
     999901    1    3    3    0    0 -0.63279169365E-01 -0.17754985970E-02  0.10688550579E+00  0.88872488264E+00  0.88000000000E+00 0.  1.
        -11    1    4    4    0    0  0.34154887711E-01 -0.24448339484E-01 -0.76402438726E-01  0.87188711553E-01  0.51100000000E-03 0.  1.
         11    1    4    4    0    0  0.34203006971E-01  0.16627945140E-01 -0.38805515683E-01  0.54336575286E-01  0.51100000000E-03 0. -1.
</event>
<event>
 8    1  0.2190512E+004  0.1043930E+01  0.7957747E-01            NaN
         13   -1    0    0    0    0  0.00000000000E+00  0.00000000000E+00  0.74505805969E-08  0.10566000000E+00  0.10566000000E+00 0.  1.
     999900   -1    0    0    0    0 -0.00000000000E+00 -0.00000000000E+00 -0.74505805969E-08  0.93827000000E+00  0.93827000000E+00 0. -1.
     999902    2    1    2    0    0 -0.11045136741E-01 -0.40461717107E-02 -0.73455011257E-02  0.10300619454E+01  0.10299685862E+01 0.  0.
     999903    2    3    3    0    0 -0.36454508570E-01  0.10064214490E+00  0.77691378029E-01  0.13942366271E+00  0.44104818087E-01 0.  0.
         14    1    1    2    0    0  0.11045136741E-01  0.40461717107E-02  0.73455011257E-02  0.13868054584E-01  0.00000000000E+00 0.  1.
     999901    1    3    3    0    0  0.25409371828E-01 -0.10468831661E+00 -0.85036879155E-01  0.89063828271E+00  0.88000000000E+00 0. -1.
        -11    1    4    4    0    0 -0.39855637669E-01  0.47926949060E-01  0.49133256893E-01  0.79371294270E-01  0.51100000000E-03 0.  1.
         11    1    4    4    0    0  0.34011290995E-02  0.52715195835E-01  0.28558121136E-01  0.60052368437E-01  0.51100000000E-03 0. -1.
</event>
<event>
 8    1  0.2190512E+004  0.1043930E+01  0.7957747E-01            NaN
         13   -1    0    0    0    0  0.00000000000E+00  0.00000000000E+00  0.74505805969E-08  0.10566000000E+00  0.10566000000E+00 0.  1.
     999900   -1    0    0    0    0 -0.00000000000E+00 -0.00000000000E+00 -0.74505805969E-08  0.93827000000E+00  0.93827000000E+00 0.  1.
     999902    2    1    2    0    0 -0.99809836197E-02 -0.63055727704E-02  0.49930222086E-02  0.10311116322E+01  0.10310319527E+01 0.  0.
     999903    2    3    3    0    0 -0.10966923177E+00 -0.71725716084E-01  0.34332112617E-01  0.14258570451E+00  0.44497982316E-01 0.  0.
         14    1    1    2    0    0  0.99809836197E-02  0.63055727704E-02 -0.49930222086E-02  0.12818367788E-01  0.00000000000E+00 0.  1.
     999901    1    3    3    0    0  0.99688248147E-01  0.65420143314E-01 -0.29339090408E-01  0.88852592770E+00  0.88000000000E+00 0. -1.
        -11    1    4    4    0    0 -0.41202308260E-01 -0.47685347533E-01  0.30245587227E-01  0.69904071720E-01  0.51100000000E-03 0.  1.
         11    1    4    4    0    0 -0.68466923507E-01 -0.24040368551E-01  0.40865253901E-02  0.72681632792E-01  0.51100000000E-03 0. -1.
</event>
<event>
 8    1  0.2190512E+004  0.1043930E+01  0.7957747E-01            NaN
         13   -1    0    0    0    0  0.00000000000E+00  0.00000000000E+00  0.74505805969E-08  0.10566000000E+00  0.10566000000E+00 0.  1.
     999900   -1    0    0    0    0 -0.00000000000E+00 -0.00000000000E+00 -0.74505805969E-08  0.93827000000E+00  0.93827000000E+00 0. -1.
     999902    2    1    2    0    0  0.86144283332E-04 -0.62467718675E-02 -0.13010745518E-01  0.10294970835E+01  0.10293959082E+01 0.  0.
     999903    2    3    3    0    0 -0.71430300066E-01  0.11056748821E+00  0.32679929477E-02  0.13875291681E+00  0.43751970584E-01 0.  0.
         14    1    1    2    0    0 -0.86144283332E-04  0.62467718675E-02  0.13010745518E-01  0.14432916494E-01  0.00000000000E+00 0.  1.
     999901    1    3    3    0    0  0.71516444349E-01 -0.11681426008E+00 -0.16278738466E-01  0.89074416669E+00  0.88000000000E+00 0.  1.
        -11    1    4    4    0    0 -0.62028405429E-01  0.65934653186E-01 -0.10428476007E-01  0.91125824022E-01  0.51100000000E-03 0. -1.
         11    1    4    4    0    0 -0.94018946367E-02  0.44632835023E-01  0.13696468955E-01  0.47627092792E-01  0.51100000000E-03 0.  1.
</event>
<event>
 8    1  0.2190512E+004  0.1043930E+01  0.7957747E-01            NaN
         13   -1    0    0    0    0  0.00000000000E+00  0.00000000000E+00  0.74505805969E-08  0.10566000000E+00  0.10566000000E+00 0. -1.
     999900   -1    0    0    0    0 -0.00000000000E+00 -0.00000000000E+00 -0.74505805969E-08  0.93827000000E+00  0.93827000000E+00 0. -1.
     999902    2    1    2    0    0  0.10465724300E-01  0.68622492273E-02  0.57300944611E-02  0.10301657044E+01  0.10300737463E+01 0.  0.
     999903    2    3    3    0    0  0.15995764430E-01  0.87460736661E-01  0.10006756878E+00  0.14144400640E+00  0.45690739626E-01 0.  0.
         14    1    1    2    0    0 -0.10465724300E-01 -0.68622492273E-02 -0.57300944611E-02  0.13764295555E-01  0.00000000000E+00 0.  1.
     999901    1    3    3    0    0 -0.55300401297E-02 -0.80598487434E-01 -0.94337474317E-01  0.88872169805E+00  0.88000000000E+00 0. -1.
        -11    1    4    4    0    0  0.18309201338E-01  0.47510485355E-01  0.84186937681E-01  0.98387878671E-01  0.51100000000E-03 0. -1.
         11    1    4    4    0    0 -0.23134369084E-02  0.39950251306E-01  0.15880631098E-01  0.43056127726E-01  0.51100000000E-03 0.  1.
</event>
<event>
 8    1  0.2190512E+004  0.1043930E+01  0.7957747E-01            NaN
         13   -1    0    0    0    0  0.00000000000E+00  0.00000000000E+00  0.74505805969E-08  0.10566000000E+00  0.10566000000E+00 0.  1.
     999900   -1    0    0    0    0 -0.00000000000E+00 -0.00000000000E+00 -0.74505805969E-08  0.93827000000E+00  0.93827000000E+00 0. -1.
     999902    2    1    2    0    0 -0.12150064853E-01 -0.62923812538E-02  0.95982975404E-03  0.10302136079E+01  0.10301222930E+01 0.  0.
     999903    2    3    3    0    0 -0.30634414735E-02 -0.11178182873E+00  0.72525017402E-01  0.14098238586E+00  0.45952073564E-01 0.  0.
         14    1    1    2    0    0  0.12150064853E-01  0.62923812538E-02 -0.95982975404E-03  0.13716392052E-01  0.00000000000E+00 0.  1.
     999901    1    3    3    0    0 -0.90866233795E-02  0.10548944748E+00 -0.71565187648E-01  0.88923122209E+00  0.88000000000E+00 0.  1.
        -11    1    4    4    0    0 -0.20719890237E-01 -0.49343631123E-01  0.47089181034E-01  0.71286463479E-01  0.51100000000E-03 0. -1.
         11    1    4    4    0    0  0.17656448763E-01 -0.62438197610E-01  0.25435836368E-01  0.69695922380E-01  0.51100000000E-03 0.  1.
</event>
<event>
 8    1  0.2190512E+004  0.1043930E+01  0.7957747E-01            NaN
         13   -1    0    0    0    0  0.00000000000E+00  0.00000000000E+00  0.74505805969E-08  0.10566000000E+00  0.10566000000E+00 0.  1.
     999900   -1    0    0    0    0 -0.00000000000E+00 -0.00000000000E+00 -0.74505805969E-08  0.93827000000E+00  0.93827000000E+00 0. -1.
     999902    2    1    2    0    0 -0.12777673632E-01 -0.77601525134E-02  0.76621499123E-02  0.10271312664E+01  0.10269938855E+01 0.  0.
     999903    2    3    3    0    0 -0.97375014083E-01 -0.74976455859E-01  0.48751087129E-01  0.13957110378E+00  0.44722055106E-01 0.  0.
         14    1    1    2    0    0  0.12777673632E-01  0.77601525134E-02 -0.76621499123E-02  0.16798733636E-01  0.00000000000E+00 0. -1.
     999901    1    3    3    0    0  0.84597340451E-01  0.67216303345E-01 -0.41088937217E-01  0.88756016259E+00  0.88000000000E+00 0. -1.
        -11    1    4    4    0    0 -0.24489735080E-01  0.22390176995E-02  0.92718510572E-02  0.26286663303E-01  0.51100000000E-03 0.  1.
         11    1    4    4    0    0 -0.72885279003E-01 -0.77215473558E-01  0.39479236072E-01  0.11328444048E+00  0.51100000000E-03 0. -1.
</event>
<event>
 8    1  0.2190512E+004  0.1043930E+01  0.7957747E-01            NaN
         13   -1    0    0    0    0  0.00000000000E+00  0.00000000000E+00  0.74505805969E-08  0.10566000000E+00  0.10566000000E+00 0. -1.
     999900   -1    0    0    0    0 -0.00000000000E+00 -0.00000000000E+00 -0.74505805969E-08  0.93827000000E+00  0.93827000000E+00 0. -1.
     999902    2    1    2    0    0 -0.77521929915E-02  0.30820907237E-02 -0.10589555112E-01  0.10304491077E+01  0.10303609218E+01 0.  0.
     999903    2    3    3    0    0 -0.11525233633E+00 -0.66592812138E-01 -0.15826821519E-01  0.14115820937E+00  0.44243057494E-01 0.  0.
         14    1    1    2    0    0  0.77521929915E-02 -0.30820907237E-02  0.10589555112E-01  0.13480892288E-01  0.00000000000E+00 0. -1.
     999901    1    3    3    0    0  0.10750014334E+00  0.69674902862E-01  0.52372664063E-02  0.88929089834E+00  0.88000000000E+00 0.  1.
        -11    1    4    4    0    0 -0.52382564419E-01 -0.72667925527E-02  0.18797609226E-02  0.52920071346E-01  0.51100000000E-03 0. -1.
         11    1    4    4    0    0 -0.62869771911E-01 -0.59326019585E-01 -0.17706582441E-01  0.88238138028E-01  0.51100000000E-03 0.  1.
</event>
<event>
 8    1  0.2190512E+004  0.1043930E+01  0.7957747E-01            NaN
         13   -1    0    0    0    0  0.00000000000E+00  0.00000000000E+00  0.74505805969E-08  0.10566000000E+00  0.10566000000E+00 0.  1.
     999900   -1    0    0    0    0 -0.00000000000E+00 -0.00000000000E+00 -0.74505805969E-08  0.93827000000E+00  0.93827000000E+00 0.  1.
     999902    2    1    2    0    0 -0.81869368279E-02 -0.73793937633E-02 -0.89486754489E-02  0.10297328109E+01  0.10296349361E+01 0.  0.
     999903    2    3    3    0    0  0.10226376590E-01 -0.91416385066E-01  0.94624070947E-01  0.13949206825E+00  0.45197213035E-01 0.  0.
         14    1    1    2    0    0  0.81869368279E-02  0.73793937633E-02  0.89486754489E-02  0.14197189131E-01  0.00000000000E+00 0.  1.
     999901    1    3    3    0    0 -0.18413313417E-01  0.84036991302E-01 -0.10357274640E+00  0.89024074262E+00  0.88000000000E+00 0. -1.
        -11    1    4    4    0    0 -0.87263082993E-02 -0.50191675904E-01  0.25934388614E-01  0.57168229117E-01  0.51100000000E-03 0.  1.
         11    1    4    4    0    0  0.18952684889E-01 -0.41224709161E-01  0.68689682333E-01  0.82323839135E-01  0.51100000000E-03 0. -1.
</event>
<event>
 8    1  0.2190512E+004  0.1043930E+01  0.7957747E-01            NaN
         13   -1    0    0    0    0  0.00000000000E+00  0.00000000000E+00  0.74505805969E-08  0.10566000000E+00  0.10566000000E+00 0. -1.
     999900   -1    0    0    0    0 -0.00000000000E+00 -0.00000000000E+00 -0.74505805969E-08  0.93827000000E+00  0.93827000000E+00 0. -1.
     999902    2    1    2    0    0 -0.85025088480E-02 -0.35569577411E-02 -0.10772977001E-01  0.10297524953E+01  0.10296548936E+01 0.  0.
     999903    2    3    3    0    0 -0.12192888514E+00  0.28236017665E-01 -0.45597664480E-01  0.14122050661E+00  0.46905849920E-01 0.  0.
         14    1    1    2    0    0  0.85025088480E-02  0.35569577411E-02  0.10772977001E-01  0.14177504666E-01  0.00000000000E+00 0. -1.
     999901    1    3    3    0    0  0.11342637629E+00 -0.31792975406E-01  0.34824687479E-01  0.88853198872E+00  0.88000000000E+00 0. -1.
        -11    1    4    4    0    0 -0.16500884572E-01  0.21997776742E-01 -0.14671491600E-01  0.31172025280E-01  0.51100000000E-03 0.  1.
         11    1    4    4    0    0 -0.10542800057E+00  0.62382409223E-02 -0.30926172880E-01  0.11004848133E+00  0.51100000000E-03 0. -1.
</event>
<event>
 8    1  0.2190512E+004  0.1043930E+01  0.7957747E-01            NaN
         13   -1    0    0    0    0  0.00000000000E+00  0.00000000000E+00  0.74505805969E-08  0.10566000000E+00  0.10566000000E+00 0. -1.
     999900   -1    0    0    0    0 -0.00000000000E+00 -0.00000000000E+00 -0.74505805969E-08  0.93827000000E+00  0.93827000000E+00 0. -1.
     999902    2    1    2    0    0  0.12934805891E-01 -0.14717411688E-02 -0.32414253413E-02  0.10305142606E+01  0.10304269306E+01 0.  0.
     999903    2    3    3    0    0  0.27935595826E-03  0.11904127291E+00 -0.59774064893E-01  0.14041343130E+00  0.44408221755E-01 0.  0.
         14    1    1    2    0    0 -0.12934805891E-01  0.14717411688E-02  0.32414253413E-02  0.13415739403E-01  0.00000000000E+00 0. -1.
     999901    1    3    3    0    0  0.12655449932E-01 -0.12051301408E+00  0.56532639552E-01  0.89010082929E+00  0.88000000000E+00 0. -1.
        -11    1    4    4    0    0  0.14241401886E-01  0.88130185957E-01 -0.27057304732E-01  0.93285079540E-01  0.51100000000E-03 0. -1.
         11    1    4    4    0    0 -0.13962045928E-01  0.30911086957E-01 -0.32716760161E-01  0.47128351762E-01  0.51100000000E-03 0.  1.
</event>
<event>
 8    1  0.2190512E+004  0.1043930E+01  0.7957747E-01            NaN
         13   -1    0    0    0    0  0.00000000000E+00  0.00000000000E+00  0.74505805969E-08  0.10566000000E+00  0.10566000000E+00 0.  1.
     999900   -1    0    0    0    0 -0.00000000000E+00 -0.00000000000E+00 -0.74505805969E-08  0.93827000000E+00  0.93827000000E+00 0.  1.
     999902    2    1    2    0    0 -0.14642212476E-01  0.19853141040E-03 -0.62217696620E-02  0.10280194935E+01  0.10278963638E+01 0.  0.
     999903    2    3    3    0    0  0.78901180809E-01 -0.97328653480E-01 -0.34241091024E-01  0.13726307299E+00  0.44389590802E-01 0.  0.
         14    1    1    2    0    0  0.14642212476E-01 -0.19853141040E-03  0.62217696620E-02  0.15910506549E-01  0.00000000000E+00 0. -1.
     999901    1    3    3    0    0 -0.93543393284E-01  0.97527184890E-01  0.28019321362E-01  0.89075642046E+00  0.88000000000E+00 0.  1.
        -11    1    4    4    0    0  0.17121253398E-01 -0.45641401084E-01 -0.28586507053E-01  0.56513045550E-01  0.51100000000E-03 0. -1.
         11    1    4    4    0    0  0.61779927410E-01 -0.51687252396E-01 -0.56545839713E-02  0.80750027443E-01  0.51100000000E-03 0.  1.
</event>
<event>
 8    1  0.2190512E+004  0.1043930E+01  0.7957747E-01            NaN
         13   -1    0    0    0    0  0.00000000000E+00  0.00000000000E+00  0.74505805969E-08  0.10566000000E+00  0.10566000000E+00 0.  1.
     999900   -1    0    0    0    0 -0.00000000000E+00 -0.00000000000E+00 -0.74505805969E-08  0.93827000000E+00  0.93827000000E+00 0.  1.
     999902    2    1    2    0    0 -0.38985536936E-02 -0.95666073124E-02  0.88624791147E-02  0.10303188930E+01  0.10302289838E+01 0.  0.
     999903    2    3    3    0    0  0.47166980617E-02 -0.12460724077E+00  0.50862566286E-01  0.14179619934E+00  0.44384116595E-01 0.  0.
         14    1    1    2    0    0  0.38985536936E-02  0.95666073124E-02 -0.88624791147E-02  0.13611106951E-01  0.00000000000E+00 0.  1.
     999901    1    3    3    0    0 -0.86152517553E-02  0.11504063346E+00 -0.42000087171E-01  0.88852269371E+00  0.88000000000E+00 0. -1.
        -11    1    4    4    0    0  0.68516586601E-02 -0.22826005298E-01  0.29231055670E-01  0.37718529674E-01  0.51100000000E-03 0. -1.
         11    1    4    4    0    0 -0.21349605983E-02 -0.10178123547E+00  0.21631510616E-01  0.10407766967E+00  0.51100000000E-03 0.  1.
</event>
<event>
 8    1  0.2190512E+004  0.1043930E+01  0.7957747E-01            NaN
         13   -1    0    0    0    0  0.00000000000E+00  0.00000000000E+00  0.74505805969E-08  0.10566000000E+00  0.10566000000E+00 0.  1.
     999900   -1    0    0    0    0 -0.00000000000E+00 -0.00000000000E+00 -0.74505805969E-08  0.93827000000E+00  0.93827000000E+00 0. -1.
     999902    2    1    2    0    0 -0.45004106498E-02 -0.94713475802E-02  0.10120678145E-01  0.10293564539E+01  0.10292532831E+01 0.  0.
     999903    2    3    3    0    0  0.72857781398E-01  0.10431754974E-01  0.11005005755E+00  0.14010603680E+00  0.45843304415E-01 0.  0.
         14    1    1    2    0    0  0.45004106498E-02  0.94713475802E-02 -0.10120678145E-01  0.14573546141E-01  0.00000000000E+00 0. -1.
     999901    1    3    3    0    0 -0.77358192048E-01 -0.19903102554E-01 -0.99929379404E-01  0.88925041706E+00  0.88000000000E+00 0. -1.
        -11    1    4    4    0    0  0.37331926792E-01  0.26835321953E-01  0.45944060453E-01  0.64999423645E-01  0.51100000000E-03 0. -1.
         11    1    4    4    0    0  0.35525854606E-01 -0.16403566979E-01  0.64105997096E-01  0.75106613157E-01  0.51100000000E-03 0.  1.
</event>
<event>
 8    1  0.2190512E+004  0.1043930E+01  0.7957747E-01            NaN
         13   -1    0    0    0    0  0.00000000000E+00  0.00000000000E+00  0.74505805969E-08  0.10566000000E+00  0.10566000000E+00 0. -1.
     999900   -1    0    0    0    0 -0.00000000000E+00 -0.00000000000E+00 -0.74505805969E-08  0.93827000000E+00  0.93827000000E+00 0. -1.
     999902    2    1    2    0    0 -0.89819242176E-02 -0.60704000962E-02  0.87220617370E-02  0.10300160113E+01  0.10299220284E+01 0.  0.
     999903    2    3    3    0    0 -0.88161369045E-02 -0.16207220647E-01 -0.13023392037E+00  0.13905498660E+00  0.45111162838E-01 0.  0.
         14    1    1    2    0    0  0.89819242176E-02  0.60704000962E-02 -0.87220617370E-02  0.13913988678E-01  0.00000000000E+00 0. -1.
     999901    1    3    3    0    0 -0.16578731316E-03  0.10136820551E-01  0.13895598210E+00  0.89096102472E+00  0.88000000000E+00 0.  1.
        -11    1    4    4    0    0 -0.21284358895E-01  0.68203902856E-02 -0.66136598696E-01  0.69812982068E-01  0.51100000000E-03 0.  1.
         11    1    4    4    0    0  0.12468221990E-01 -0.23027610933E-01 -0.64097321671E-01  0.69242004529E-01  0.51100000000E-03 0. -1.
</event>
<event>
 8    1  0.2190512E+004  0.1043930E+01  0.7957747E-01            NaN
         13   -1    0    0    0    0  0.00000000000E+00  0.00000000000E+00  0.74505805969E-08  0.10566000000E+00  0.10566000000E+00 0.  1.
     999900   -1    0    0    0    0 -0.00000000000E+00 -0.00000000000E+00 -0.74505805969E-08  0.93827000000E+00  0.93827000000E+00 0.  1.
     999902    2    1    2    0    0 -0.13332461558E-01  0.37135402114E-02 -0.43088827746E-02  0.10294347807E+01  0.10293327238E+01 0.  0.
     999903    2    3    3    0    0  0.26163829865E-01  0.12816107261E+00  0.22001853834E-01  0.13941264601E+00  0.42918501477E-01 0.  0.
         14    1    1    2    0    0  0.13332461558E-01 -0.37135402114E-02  0.43088827746E-02  0.14495219310E-01  0.00000000000E+00 0. -1.
     999901    1    3    3    0    0 -0.39496291423E-01 -0.12444753240E+00 -0.26310736608E-01  0.89002213468E+00  0.88000000000E+00 0.  1.
        -11    1    4    4    0    0  0.54758004226E-02  0.33038447250E-01 -0.13051550381E-01  0.35946174696E-01  0.51100000000E-03 0.  1.
         11    1    4    4    0    0  0.20688029443E-01  0.95122625363E-01  0.35053404215E-01  0.10346647131E+00  0.51100000000E-03 0. -1.
</event>
<event>
 8    1  0.2190512E+004  0.1043930E+01  0.7957747E-01            NaN
         13   -1    0    0    0    0  0.00000000000E+00  0.00000000000E+00  0.74505805969E-08  0.10566000000E+00  0.10566000000E+00 0.  1.
     999900   -1    0    0    0    0 -0.00000000000E+00 -0.00000000000E+00 -0.74505805969E-08  0.93827000000E+00  0.93827000000E+00 0. -1.
     999902    2    1    2    0    0  0.11344227782E-01 -0.37355364061E-02 -0.76252578708E-02  0.10297599508E+01  0.10296624525E+01 0.  0.
     999903    2    3    3    0    0 -0.10941184638E+00 -0.71822077915E-01  0.14706369809E-01  0.13862780115E+00  0.43266926562E-01 0.  0.
         14    1    1    2    0    0 -0.11344227782E-01  0.37355364061E-02  0.76252578708E-02  0.14170049182E-01  0.00000000000E+00 0.  1.
     999901    1    3    3    0    0  0.12075607416E+00  0.68086541509E-01 -0.22331627680E-01  0.89113214967E+00  0.88000000000E+00 0. -1.
        -11    1    4    4    0    0 -0.51929328712E-01 -0.21291673404E-01  0.24924330349E-01  0.61412326948E-01  0.51100000000E-03 0. -1.
         11    1    4    4    0    0 -0.57482517667E-01 -0.50530404511E-01 -0.10217960539E-01  0.77215474200E-01  0.51100000000E-03 0.  1.
</event>
<event>
 8    1  0.2190512E+004  0.1043930E+01  0.7957747E-01            NaN
         13   -1    0    0    0    0  0.00000000000E+00  0.00000000000E+00  0.74505805969E-08  0.10566000000E+00  0.10566000000E+00 0. -1.
     999900   -1    0    0    0    0 -0.00000000000E+00 -0.00000000000E+00 -0.74505805969E-08  0.93827000000E+00  0.93827000000E+00 0.  1.
     999902    2    1    2    0    0  0.58532632479E-02 -0.13671403072E-01 -0.11317317708E-02  0.10290152835E+01  0.10289071896E+01 0.  0.
     999903    2    3    3    0    0 -0.16190115910E-01  0.59092969077E-01 -0.11566560178E+00  0.13834218305E+00  0.44787602387E-01 0.  0.
         14    1    1    2    0    0 -0.58532632479E-02  0.13671403072E-01  0.11317317708E-02  0.14914716538E-01  0.00000000000E+00 0. -1.
     999901    1    3    3    0    0  0.22043379158E-01 -0.72764372149E-01  0.11453387001E+00  0.89067310041E+00  0.88000000000E+00 0. -1.
        -11    1    4    4    0    0 -0.15802194303E-01  0.20139733010E-01 -0.13382157514E-01  0.28890507978E-01  0.51100000000E-03 0. -1.
         11    1    4    4    0    0 -0.38792160679E-03  0.38953236067E-01 -0.10228344427E+00  0.10945167507E+00  0.51100000000E-03 0.  1.
</event>
<event>
 8    1  0.2190512E+004  0.1043930E+01  0.7957747E-01            NaN
         13   -1    0    0    0    0  0.00000000000E+00  0.00000000000E+00  0.74505805969E-08  0.10566000000E+00  0.10566000000E+00 0. -1.
     999900   -1    0    0    0    0 -0.00000000000E+00 -0.00000000000E+00 -0.74505805969E-08  0.93827000000E+00  0.93827000000E+00 0. -1.
     999902    2    1    2    0    0 -0.78564048245E-03  0.91788114095E-02  0.10229830552E-01  0.10301634738E+01  0.10300714857E+01 0.  0.
     999903    2    3    3    0    0 -0.91381188511E-01  0.49978725107E-01  0.86604688899E-01  0.14128479522E+00  0.40157522896E-01 0.  0.
         14    1    1    2    0    0  0.78564048245E-03 -0.91788114095E-02 -0.10229830552E-01  0.13766526177E-01  0.00000000000E+00 0.  1.
     999901    1    3    3    0    0  0.90595548028E-01 -0.40799913697E-01 -0.76374858347E-01  0.88887867860E+00  0.88000000000E+00 0. -1.
        -11    1    4    4    0    0 -0.78648898455E-02  0.20378307730E-01  0.25858024258E-01  0.33853071614E-01  0.51100000000E-03 0.  1.
         11    1    4    4    0    0 -0.83516298665E-01  0.29600417377E-01  0.60746664642E-01  0.10743172361E+00  0.51100000000E-03 0. -1.
</event>
<event>
 8    1  0.2190512E+004  0.1043930E+01  0.7957747E-01            NaN
         13   -1    0    0    0    0  0.00000000000E+00  0.00000000000E+00  0.74505805969E-08  0.10566000000E+00  0.10566000000E+00 0. -1.
     999900   -1    0    0    0    0 -0.00000000000E+00 -0.00000000000E+00 -0.74505805969E-08  0.93827000000E+00  0.93827000000E+00 0. -1.
     999902    2    1    2    0    0  0.62559971078E-02 -0.11787921551E-01  0.44462106382E-02  0.10298636791E+01  0.10297676127E+01 0.  0.
     999903    2    3    3    0    0 -0.27121549347E-01  0.71901501155E-01 -0.10546097046E+00  0.13846165503E+00  0.46305607824E-01 0.  0.
         14    1    1    2    0    0 -0.62559971078E-02  0.11787921551E-01 -0.44462106382E-02  0.14066320889E-01  0.00000000000E+00 0.  1.
     999901    1    3    3    0    0  0.33377546455E-01 -0.83689422706E-01  0.10990718110E+00  0.89140202408E+00  0.88000000000E+00 0.  1.
        -11    1    4    4    0    0 -0.17830585755E-01  0.15006681411E-01 -0.62080430863E-01  0.66312678219E-01  0.51100000000E-03 0.  1.
         11    1    4    4    0    0 -0.92909635923E-02  0.56894819744E-01 -0.43380539596E-01  0.72148976811E-01  0.51100000000E-03 0. -1.
</event>
<event>
 8    1  0.2190512E+004  0.1043930E+01  0.7957747E-01            NaN
         13   -1    0    0    0    0  0.00000000000E+00  0.00000000000E+00  0.74505805969E-08  0.10566000000E+00  0.10566000000E+00 0.  1.
     999900   -1    0    0    0    0 -0.00000000000E+00 -0.00000000000E+00 -0.74505805969E-08  0.93827000000E+00  0.93827000000E+00 0. -1.
     999902    2    1    2    0    0  0.15614955435E-01  0.45495269147E-02  0.34961744373E-02  0.10272942474E+01  0.10271595409E+01 0.  0.
     999903    2    3    3    0    0  0.30061251876E-01  0.40633548242E-01  0.12079266416E+00  0.13866090425E+00  0.45620330407E-01 0.  0.
         14    1    1    2    0    0 -0.15614955435E-01 -0.45495269147E-02 -0.34961744373E-02  0.16635752585E-01  0.00000000000E+00 0. -1.
     999901    1    3    3    0    0 -0.14446296441E-01 -0.36084021327E-01 -0.11729648972E+00  0.88863334316E+00  0.88000000000E+00 0. -1.
        -11    1    4    4    0    0  0.17581745298E-01  0.48211146649E-01  0.77337663217E-01  0.92815988396E-01  0.51100000000E-03 0. -1.
         11    1    4    4    0    0  0.12479506578E-01 -0.75775984077E-02  0.43455000944E-01  0.45844915858E-01  0.51100000000E-03 0.  1.
</event>
<event>
 8    1  0.2190512E+004  0.1043930E+01  0.7957747E-01            NaN
         13   -1    0    0    0    0  0.00000000000E+00  0.00000000000E+00  0.74505805969E-08  0.10566000000E+00  0.10566000000E+00 0. -1.
     999900   -1    0    0    0    0 -0.00000000000E+00 -0.00000000000E+00 -0.74505805969E-08  0.93827000000E+00  0.93827000000E+00 0.  1.
     999902    2    1    2    0    0  0.54698585379E-02  0.13505283314E-01  0.11277518317E-01  0.10255046249E+01  0.10253390859E+01 0.  0.
     999903    2    3    3    0    0 -0.45532169560E-01 -0.37568437517E-01 -0.11153513129E+00  0.13404925372E+00  0.45216710940E-01 0.  0.
         14    1    1    2    0    0 -0.54698585379E-02 -0.13505283314E-01 -0.11277518317E-01  0.18425375144E-01  0.00000000000E+00 0.  1.
     999901    1    3    3    0    0  0.51002028098E-01  0.51073720831E-01  0.12281264961E+00  0.89145537114E+00  0.88000000000E+00 0. -1.
        -11    1    4    4    0    0 -0.29587564661E-01 -0.46618533908E-01 -0.91638565978E-01  0.10698878250E+00  0.51100000000E-03 0.  1.
         11    1    4    4    0    0 -0.15944604899E-01  0.90500963911E-02 -0.19896565311E-01  0.27060471213E-01  0.51100000000E-03 0. -1.
</event>
<event>
 8    1  0.2190512E+004  0.1043930E+01  0.7957747E-01            NaN
         13   -1    0    0    0    0  0.00000000000E+00  0.00000000000E+00  0.74505805969E-08  0.10566000000E+00  0.10566000000E+00 0.  1.
     999900   -1    0    0    0    0 -0.00000000000E+00 -0.00000000000E+00 -0.74505805969E-08  0.93827000000E+00  0.93827000000E+00 0.  1.
     999902    2    1    2    0    0 -0.44718329840E-02  0.96573344878E-02 -0.10520828808E-01  0.10289650664E+01  0.10288562381E+01 0.  0.
     999903    2    3    3    0    0 -0.30557492033E-01 -0.89890544909E-01  0.88613421957E-01  0.13743949659E+00  0.44980065462E-01 0.  0.
         14    1    1    2    0    0  0.44718329840E-02 -0.96573344878E-02  0.10520828808E-01  0.14964933627E-01  0.00000000000E+00 0.  1.
     999901    1    3    3    0    0  0.26085659049E-01  0.99547879397E-01 -0.99134250765E-01  0.89152556978E+00  0.88000000000E+00 0.  1.
        -11    1    4    4    0    0 -0.22355107089E-01 -0.33350951933E-01  0.12077888973E-01  0.41930577516E-01  0.51100000000E-03 0. -1.
         11    1    4    4    0    0 -0.82023849440E-02 -0.56539592976E-01  0.76535532985E-01  0.95508919075E-01  0.51100000000E-03 0.  1.
</event>
<event>
 8    1  0.2190512E+004  0.1043930E+01  0.7957747E-01            NaN
         13   -1    0    0    0    0  0.00000000000E+00  0.00000000000E+00  0.74505805969E-08  0.10566000000E+00  0.10566000000E+00 0. -1.
     999900   -1    0    0    0    0 -0.00000000000E+00 -0.00000000000E+00 -0.74505805969E-08  0.93827000000E+00  0.93827000000E+00 0. -1.
     999902    2    1    2    0    0 -0.78884606919E-04 -0.24939223199E-02  0.12735393959E-01  0.10309524759E+01  0.10308707928E+01 0.  0.
     999903    2    3    3    0    0 -0.43753413487E-01 -0.12608404739E+00  0.10503287710E-01  0.14124074410E+00  0.45023111211E-01 0.  0.
         14    1    1    2    0    0  0.78884606919E-04  0.24939223199E-02 -0.12735393959E-01  0.12977524055E-01  0.00000000000E+00 0.  1.
     999901    1    3    3    0    0  0.43674528880E-01  0.12359012507E+00  0.22321062489E-02  0.88971173185E+00  0.88000000000E+00 0. -1.
        -11    1    4    4    0    0  0.70263183284E-02 -0.11860026054E-01  0.85347695832E-02  0.16221368009E-01  0.51100000000E-03 0. -1.
         11    1    4    4    0    0 -0.50779731815E-01 -0.11422402133E+00  0.19685181266E-02  0.12501937609E+00  0.51100000000E-03 0.  1.
</event>
<event>
 8    1  0.2190512E+004  0.1043930E+01  0.7957747E-01            NaN
         13   -1    0    0    0    0  0.00000000000E+00  0.00000000000E+00  0.74505805969E-08  0.10566000000E+00  0.10566000000E+00 0.  1.
     999900   -1    0    0    0    0 -0.00000000000E+00 -0.00000000000E+00 -0.74505805969E-08  0.93827000000E+00  0.93827000000E+00 0.  1.
     999902    2    1    2    0    0 -0.87013757486E-02  0.10388285248E-01 -0.41698655626E-03  0.10303725560E+01  0.10302833590E+01 0.  0.
     999903    2    3    3    0    0  0.12998892197E+00  0.19361174779E-01 -0.65374164978E-02  0.13944440451E+00  0.46152239515E-01 0.  0.
         14    1    1    2    0    0  0.87013757486E-02 -0.10388285248E-01  0.41698655626E-03  0.13557444011E-01  0.00000000000E+00 0. -1.
     999901    1    3    3    0    0 -0.13869029772E+00 -0.89728895309E-02  0.61204299416E-02  0.89092815147E+00  0.88000000000E+00 0. -1.
        -11    1    4    4    0    0  0.20285322395E-01  0.16498492911E-01 -0.13595946170E-01  0.29475505870E-01  0.51100000000E-03 0. -1.
         11    1    4    4    0    0  0.10970359957E+00  0.28626818684E-02  0.70585296720E-02  0.10996889864E+00  0.51100000000E-03 0.  1.
</event>
<event>
 8    1  0.2190512E+004  0.1043930E+01  0.7957747E-01            NaN
         13   -1    0    0    0    0  0.00000000000E+00  0.00000000000E+00  0.74505805969E-08  0.10566000000E+00  0.10566000000E+00 0.  1.
     999900   -1    0    0    0    0 -0.00000000000E+00 -0.00000000000E+00 -0.74505805969E-08  0.93827000000E+00  0.93827000000E+00 0. -1.
     999902    2    1    2    0    0 -0.21616796285E-02 -0.86885419302E-02 -0.40220853854E-02  0.10341146655E+01  0.10340680832E+01 0.  0.
     999903    2    3    3    0    0  0.11653064940E-01 -0.43798757498E-01  0.12391652078E+00  0.14406305954E+00  0.57833691902E-01 0.  0.
         14    1    1    2    0    0  0.21616796285E-02  0.86885419302E-02  0.40220853854E-02  0.98153344587E-02  0.00000000000E+00 0.  1.
     999901    1    3    3    0    0 -0.13814744568E-01  0.35110215568E-01 -0.12793860617E+00  0.89005160601E+00  0.88000000000E+00 0. -1.
        -11    1    4    4    0    0  0.14600550924E-02 -0.51607761073E-01  0.61322854299E-01  0.80163871814E-01  0.51100000000E-03 0. -1.
         11    1    4    4    0    0  0.10193009847E-01  0.78090035754E-02  0.62593666484E-01  0.63899187722E-01  0.51100000000E-03 0.  1.
</event>
<event>
 8    1  0.2190512E+004  0.1043930E+01  0.7957747E-01            NaN
         13   -1    0    0    0    0  0.00000000000E+00  0.00000000000E+00  0.74505805969E-08  0.10566000000E+00  0.10566000000E+00 0.  1.
     999900   -1    0    0    0    0 -0.00000000000E+00 -0.00000000000E+00 -0.74505805969E-08  0.93827000000E+00  0.93827000000E+00 0.  1.
     999902    2    1    2    0    0  0.12815150303E-02  0.58486851574E-02 -0.13213316472E-01  0.10294234108E+01  0.10293211926E+01 0.  0.
     999903    2    3    3    0    0 -0.10049056288E+00 -0.77840197401E-01  0.31894895247E-01  0.13847103513E+00  0.44715698224E-01 0.  0.
         14    1    1    2    0    0 -0.12815150303E-02 -0.58486851574E-02  0.13213316472E-01  0.14506589228E-01  0.00000000000E+00 0.  1.
     999901    1    3    3    0    0  0.10177207791E+00  0.83688882558E-01 -0.45108211719E-01  0.89095237565E+00  0.88000000000E+00 0.  1.
        -11    1    4    4    0    0 -0.53948619765E-01 -0.50567255730E-01  0.39756970631E-01  0.83954623228E-01  0.51100000000E-03 0.  1.
         11    1    4    4    0    0 -0.46541943111E-01 -0.27272941671E-01 -0.78620753841E-02  0.54516411898E-01  0.51100000000E-03 0. -1.
</event>
<event>
 8    1  0.2190512E+004  0.1043930E+01  0.7957747E-01            NaN
         13   -1    0    0    0    0  0.00000000000E+00  0.00000000000E+00  0.74505805969E-08  0.10566000000E+00  0.10566000000E+00 0.  1.
     999900   -1    0    0    0    0 -0.00000000000E+00 -0.00000000000E+00 -0.74505805969E-08  0.93827000000E+00  0.93827000000E+00 0. -1.
     999902    2    1    2    0    0  0.15449123940E-02  0.17116539642E-02 -0.12608946642E-01  0.10311119639E+01  0.10310322886E+01 0.  0.
     999903    2    3    3    0    0 -0.66463055967E-01 -0.59308218113E-01  0.99575221447E-01  0.13929707499E+00  0.39416339626E-01 0.  0.
         14    1    1    2    0    0 -0.15449123940E-02 -0.17116539642E-02  0.12608946642E-01  0.12818036083E-01  0.00000000000E+00 0.  1.
     999901    1    3    3    0    0  0.68007968361E-01  0.61019872077E-01 -0.11218416809E+00  0.89181488893E+00  0.88000000000E+00 0. -1.
        -11    1    4    4    0    0 -0.53409370604E-01 -0.25867188586E-01  0.75663792779E-01  0.96161026265E-01  0.51100000000E-03 0. -1.
         11    1    4    4    0    0 -0.13053685363E-01 -0.33441029527E-01  0.23911428668E-01  0.43136048722E-01  0.51100000000E-03 0.  1.
</event>
<event>
 8    1  0.2190512E+004  0.1043930E+01  0.7957747E-01            NaN
         13   -1    0    0    0    0  0.00000000000E+00  0.00000000000E+00  0.74505805969E-08  0.10566000000E+00  0.10566000000E+00 0.  1.
     999900   -1    0    0    0    0 -0.00000000000E+00 -0.00000000000E+00 -0.74505805969E-08  0.93827000000E+00  0.93827000000E+00 0.  1.
     999902    2    1    2    0    0 -0.96492691932E-02  0.52474248457E-02  0.97979692684E-02  0.10292111663E+01  0.10291059133E+01 0.  0.
     999903    2    3    3    0    0 -0.18094968285E-01  0.13264142310E+00 -0.11413173818E-02  0.13993042963E+00  0.40719129805E-01 0.  0.
         14    1    1    2    0    0  0.96492691932E-02 -0.52474248457E-02 -0.97979692684E-02  0.14718833692E-01  0.00000000000E+00 0. -1.
     999901    1    3    3    0    0  0.84456990918E-02 -0.12739399826E+00  0.10939286650E-01  0.88928073667E+00  0.88000000000E+00 0. -1.
        -11    1    4    4    0    0 -0.10726285047E-01  0.11379417195E+00  0.13290346284E-01  0.11506981005E+00  0.51100000000E-03 0. -1.
         11    1    4    4    0    0 -0.73686832378E-02  0.18847251155E-01 -0.14431663666E-01  0.24860619580E-01  0.51100000000E-03 0.  1.
</event>
<event>
 8    1  0.2190512E+004  0.1043930E+01  0.7957747E-01            NaN
         13   -1    0    0    0    0  0.00000000000E+00  0.00000000000E+00  0.74505805969E-08  0.10566000000E+00  0.10566000000E+00 0.  1.
     999900   -1    0    0    0    0 -0.00000000000E+00 -0.00000000000E+00 -0.74505805969E-08  0.93827000000E+00  0.93827000000E+00 0.  1.
     999902    2    1    2    0    0  0.12475335676E-01 -0.72328737720E-02  0.22390764359E-02  0.10293367849E+01  0.10292333335E+01 0.  0.
     999903    2    3    3    0    0  0.42226538762E-01  0.15959288264E-01  0.12249264358E+00  0.14035763394E+00  0.51556165631E-01 0.  0.
         14    1    1    2    0    0 -0.12475335676E-01  0.72328737720E-02 -0.22390764359E-02  0.14593215085E-01  0.00000000000E+00 0.  1.
     999901    1    3    3    0    0 -0.29751203086E-01 -0.23192162036E-01 -0.12025356715E+00  0.88897915098E+00  0.88000000000E+00 0.  1.
        -11    1    4    4    0    0  0.42015902575E-02  0.17251656208E-01  0.85369306649E-01  0.87197778878E-01  0.51100000000E-03 0. -1.
         11    1    4    4    0    0  0.38024948504E-01 -0.12923679439E-02  0.37123336933E-01  0.53159855057E-01  0.51100000000E-03 0.  1.
</event>
<event>
 8    1  0.2190512E+004  0.1043930E+01  0.7957747E-01            NaN
         13   -1    0    0    0    0  0.00000000000E+00  0.00000000000E+00  0.74505805969E-08  0.10566000000E+00  0.10566000000E+00 0. -1.
     999900   -1    0    0    0    0 -0.00000000000E+00 -0.00000000000E+00 -0.74505805969E-08  0.93827000000E+00  0.93827000000E+00 0.  1.
     999902    2    1    2    0    0 -0.35703966238E-02 -0.84265667647E-02 -0.10739824810E-01  0.10298197698E+01  0.10297230985E+01 0.  0.
     999903    2    3    3    0    0  0.31498454067E-01 -0.74200006024E-01 -0.10608341320E+00  0.14153694915E+00  0.47762159891E-01 0.  0.
         14    1    1    2    0    0  0.35703966238E-02  0.84265667647E-02  0.10739824810E-01  0.14110230205E-01  0.00000000000E+00 0. -1.
     999901    1    3    3    0    0 -0.35068850691E-01  0.65773439259E-01  0.95343588388E-01  0.88828282064E+00  0.88000000000E+00 0. -1.
        -11    1    4    4    0    0  0.12919720064E-01 -0.21679366423E-01 -0.44447460108E-02  0.25630664899E-01  0.51100000000E-03 0.  1.
         11    1    4    4    0    0  0.18578734003E-01 -0.52520639600E-01 -0.10163866719E+00  0.11590628425E+00  0.51100000000E-03 0. -1.
</event>
<event>
 8    1  0.2190512E+004  0.1043930E+01  0.7957747E-01            NaN
         13   -1    0    0    0    0  0.00000000000E+00  0.00000000000E+00  0.74505805969E-08  0.10566000000E+00  0.10566000000E+00 0.  1.
     999900   -1    0    0    0    0 -0.00000000000E+00 -0.00000000000E+00 -0.74505805969E-08  0.93827000000E+00  0.93827000000E+00 0.  1.
     999902    2    1    2    0    0  0.11695732353E-01 -0.93788061208E-02  0.14543562371E-01  0.10230429857E+01  0.10228297430E+01 0.  0.
     999903    2    3    3    0    0  0.94031145627E-01  0.72797729652E-01 -0.42210187417E-01  0.13357511590E+00  0.43809198524E-01 0.  0.
         14    1    1    2    0    0 -0.11695732353E-01  0.93788061208E-02 -0.14543562371E-01  0.20887014290E-01  0.00000000000E+00 0. -1.
     999901    1    3    3    0    0 -0.82335413274E-01 -0.82176535773E-01  0.56753749788E-01  0.88946786981E+00  0.88000000000E+00 0. -1.
        -11    1    4    4    0    0  0.60267669373E-01  0.67685541148E-01 -0.19922285646E-01  0.92793766162E-01  0.51100000000E-03 0. -1.
         11    1    4    4    0    0  0.33763476253E-01  0.51121885042E-02 -0.22287901771E-01  0.40781349737E-01  0.51100000000E-03 0.  1.
</event>
<event>
 8    1  0.2190512E+004  0.1043930E+01  0.7957747E-01            NaN
         13   -1    0    0    0    0  0.00000000000E+00  0.00000000000E+00  0.74505805969E-08  0.10566000000E+00  0.10566000000E+00 0.  1.
     999900   -1    0    0    0    0 -0.00000000000E+00 -0.00000000000E+00 -0.74505805969E-08  0.93827000000E+00  0.93827000000E+00 0.  1.
     999902    2    1    2    0    0 -0.99915195520E-02 -0.87379007799E-02  0.44841239543E-02  0.10299196916E+01  0.10298243940E+01 0.  0.
     999903    2    3    3    0    0  0.12495455501E-01 -0.37030830831E-01  0.12681792700E+00  0.14072246193E+00  0.46825269287E-01 0.  0.
         14    1    1    2    0    0  0.99915195520E-02  0.87379007799E-02 -0.44841239543E-02  0.14010308370E-01  0.00000000000E+00 0. -1.
     999901    1    3    3    0    0 -0.22486975053E-01  0.28292930051E-01 -0.12233380304E+00  0.88919722970E+00  0.88000000000E+00 0. -1.
        -11    1    4    4    0    0 -0.14543710893E-01 -0.18064338986E-02  0.48745750416E-01  0.50903752657E-01  0.51100000000E-03 0. -1.
         11    1    4    4    0    0  0.27039166394E-01 -0.35224396932E-01  0.78072176581E-01  0.89818709273E-01  0.51100000000E-03 0.  1.
</event>
<event>
 8    1  0.2190512E+004  0.1043930E+01  0.7957747E-01            NaN
         13   -1    0    0    0    0  0.00000000000E+00  0.00000000000E+00  0.74505805969E-08  0.10566000000E+00  0.10566000000E+00 0.  1.
     999900   -1    0    0    0    0 -0.00000000000E+00 -0.00000000000E+00 -0.74505805969E-08  0.93827000000E+00  0.93827000000E+00 0.  1.
     999902    2    1    2    0    0  0.75776704358E-02  0.67174064594E-02 -0.85977253927E-02  0.10306459675E+01  0.10305603547E+01 0.  0.
     999903    2    3    3    0    0  0.82398574214E-01  0.61262507538E-01 -0.82067152606E-01  0.14274333066E+00  0.55659869277E-01 0.  0.
         14    1    1    2    0    0 -0.75776704358E-02 -0.67174064594E-02  0.85977253927E-02  0.13284032547E-01  0.00000000000E+00 0.  1.
     999901    1    3    3    0    0 -0.74820903778E-01 -0.54545101079E-01  0.73469427214E-01  0.88790263680E+00  0.88000000000E+00 0. -1.
        -11    1    4    4    0    0  0.42189211255E-02  0.18529614136E-02 -0.32351803016E-01  0.32682304706E-01  0.51100000000E-03 0. -1.
         11    1    4    4    0    0  0.78179653088E-01  0.59409546124E-01 -0.49715349590E-01  0.11006102595E+00  0.51100000000E-03 0.  1.
</event>
<event>
 8    1  0.2190512E+004  0.1043930E+01  0.7957747E-01            NaN
         13   -1    0    0    0    0  0.00000000000E+00  0.00000000000E+00  0.74505805969E-08  0.10566000000E+00  0.10566000000E+00 0.  1.
     999900   -1    0    0    0    0 -0.00000000000E+00 -0.00000000000E+00 -0.74505805969E-08  0.93827000000E+00  0.93827000000E+00 0. -1.
     999902    2    1    2    0    0  0.44411468373E-02  0.11782133141E-01  0.64632539076E-02  0.10297766930E+01  0.10296794265E+01 0.  0.
     999903    2    3    3    0    0  0.11077440923E+00  0.27416356461E-01  0.66955875439E-01  0.14117636169E+00  0.49244791620E-01 0.  0.
         14    1    1    2    0    0 -0.44411468373E-02 -0.11782133141E-01 -0.64632539076E-02  0.14153306951E-01  0.00000000000E+00 0. -1.
     999901    1    3    3    0    0 -0.10633326240E+00 -0.15634223321E-01 -0.60492621532E-01  0.88860033136E+00  0.88000000000E+00 0. -1.
        -11    1    4    4    0    0  0.23492868217E-01  0.28398950005E-01  0.22970138027E-01  0.43431596568E-01  0.51100000000E-03 0.  1.
         11    1    4    4    0    0  0.87281541016E-01 -0.98259354321E-03  0.43985737412E-01  0.97744765123E-01  0.51100000000E-03 0. -1.
</event>
<event>
 8    1  0.2190512E+004  0.1043930E+01  0.7957747E-01            NaN
         13   -1    0    0    0    0  0.00000000000E+00  0.00000000000E+00  0.74505805969E-08  0.10566000000E+00  0.10566000000E+00 0. -1.
     999900   -1    0    0    0    0 -0.00000000000E+00 -0.00000000000E+00 -0.74505805969E-08  0.93827000000E+00  0.93827000000E+00 0.  1.
     999902    2    1    2    0    0  0.11962979320E-01  0.38516120987E-02  0.73790943265E-03  0.10313406275E+01  0.10312637866E+01 0.  0.
     999903    2    3    3    0    0 -0.61265349802E-01  0.31040481662E-01 -0.11301079989E+00  0.14058791675E+00  0.47713382355E-01 0.  0.
         14    1    1    2    0    0 -0.11962979320E-01 -0.38516120987E-02 -0.73790943265E-03  0.12589372514E-01  0.00000000000E+00 0. -1.
     999901    1    3    3    0    0  0.73228329122E-01 -0.27188869563E-01  0.11374870932E+00  0.89075271074E+00  0.88000000000E+00 0. -1.
        -11    1    4    4    0    0 -0.31464158416E-01  0.41181605449E-01 -0.76115811787E-01  0.92085806817E-01  0.51100000000E-03 0.  1.
         11    1    4    4    0    0 -0.29801191386E-01 -0.10141123786E-01 -0.36894988102E-01  0.48502109931E-01  0.51100000000E-03 0. -1.
</event>
<event>
 8    1  0.2190512E+004  0.1043930E+01  0.7957747E-01            NaN
         13   -1    0    0    0    0  0.00000000000E+00  0.00000000000E+00  0.74505805969E-08  0.10566000000E+00  0.10566000000E+00 0. -1.
     999900   -1    0    0    0    0 -0.00000000000E+00 -0.00000000000E+00 -0.74505805969E-08  0.93827000000E+00  0.93827000000E+00 0. -1.
     999902    2    1    2    0    0  0.12327266377E-01  0.91793717206E-02 -0.66273908413E-02  0.10271924772E+01  0.10270561039E+01 0.  0.
     999903    2    3    3    0    0 -0.38811600284E-01  0.78169309889E-01 -0.97836957192E-01  0.13832016898E+00  0.44086478981E-01 0.  0.
         14    1    1    2    0    0 -0.12327266377E-01 -0.91793717206E-02  0.66273908413E-02  0.16737522842E-01  0.00000000000E+00 0. -1.
     999901    1    3    3    0    0  0.51138866661E-01 -0.68989938168E-01  0.91209566351E-01  0.88887230818E+00  0.88000000000E+00 0. -1.
        -11    1    4    4    0    0 -0.30640532572E-02  0.54961104834E-01 -0.58304991886E-01  0.80186312216E-01  0.51100000000E-03 0. -1.
         11    1    4    4    0    0 -0.35747547027E-01  0.23208205055E-01 -0.39531965307E-01  0.58133856764E-01  0.51100000000E-03 0.  1.
</event>
<event>
 8    1  0.2190512E+004  0.1043930E+01  0.7957747E-01            NaN
         13   -1    0    0    0    0  0.00000000000E+00  0.00000000000E+00  0.74505805969E-08  0.10566000000E+00  0.10566000000E+00 0.  1.
     999900   -1    0    0    0    0 -0.00000000000E+00 -0.00000000000E+00 -0.74505805969E-08  0.93827000000E+00  0.93827000000E+00 0. -1.
     999902    2    1    2    0    0 -0.43285737040E-02  0.46935196153E-02 -0.14090213609E-01  0.10284606821E+01  0.10283443367E+01 0.  0.
     999903    2    3    3    0    0  0.67297600950E-01  0.10926866598E+00  0.24288297972E-01  0.13855103484E+00  0.46236991465E-01 0.  0.
         14    1    1    2    0    0  0.43285737040E-02 -0.46935196153E-02  0.14090213609E-01  0.15469317898E-01  0.00000000000E+00 0.  1.
     999901    1    3    3    0    0 -0.71626174654E-01 -0.10457514636E+00 -0.38378511581E-01  0.88990964726E+00  0.88000000000E+00 0. -1.
        -11    1    4    4    0    0  0.30343829376E-01  0.19386076168E-01 -0.65276997109E-02  0.36598359456E-01  0.51100000000E-03 0. -1.
         11    1    4    4    0    0  0.36953771574E-01  0.89882589810E-01  0.30815997683E-01  0.10195267539E+00  0.51100000000E-03 0.  1.
</event>
<event>
 7    1  0.2190512E+004  0.1043930E+01  0.7957747E-01            NaN
         13   -1    0    0    0    0  0.00000000000E+00  0.00000000000E+00  0.74505805969E-08  0.10566000000E+00  0.10566000000E+00 0.  1.
     999900   -1    0    0    0    0 -0.00000000000E+00 -0.00000000000E+00 -0.74505805969E-08  0.93827000000E+00  0.93827000000E+00 0.  1.
     999903    2    1    2    0    0 -0.10305005600E+00  0.58045916410E-01  0.81404863261E-02  0.12672699440E+00  0.44775229055E-01 0.  0.
         14    1    1    2    0    0  0.70433443092E-02 -0.19150167043E-01 -0.23334071799E-01  0.30997040239E-01  0.00000000000E+00 0. -1.
     999901    1    1    2    0    0  0.96006711694E-01 -0.38895749367E-01  0.15193585473E-01  0.88620596537E+00  0.88000000000E+00 0.  1.
        -11    1    3    3    0    0 -0.74903669876E-01  0.37506847856E-01  0.25808684788E-01  0.87656561240E-01  0.51100000000E-03 0. -1.
         11    1    3    3    0    0 -0.28146386127E-01  0.20539068554E-01 -0.17668198462E-01  0.39070433156E-01  0.51100000000E-03 0.  1.
</event>
<event>
 8    1  0.2190512E+004  0.1043930E+01  0.7957747E-01            NaN
         13   -1    0    0    0    0  0.00000000000E+00  0.00000000000E+00  0.74505805969E-08  0.10566000000E+00  0.10566000000E+00 0. -1.
     999900   -1    0    0    0    0 -0.00000000000E+00 -0.00000000000E+00 -0.74505805969E-08  0.93827000000E+00  0.93827000000E+00 0. -1.
     999902    2    1    2    0    0  0.59171636444E-02 -0.79044632803E-02  0.98594752571E-02  0.10299764120E+01  0.10298818897E+01 0.  0.
     999903    2    3    3    0    0  0.11597108451E+00 -0.55063600441E-01 -0.31604497665E-01  0.14090098734E+00  0.48712949241E-01 0.  0.
         14    1    1    2    0    0 -0.59171636444E-02  0.79044632803E-02 -0.98594752571E-02  0.13953587986E-01  0.00000000000E+00 0.  1.
     999901    1    3    3    0    0 -0.11005392086E+00  0.47159137161E-01  0.41463972923E-01  0.88907542468E+00  0.88000000000E+00 0.  1.
        -11    1    4    4    0    0  0.47932016816E-01 -0.81123461911E-02 -0.32052942356E-01  0.58231783688E-01  0.51100000000E-03 0. -1.
         11    1    4    4    0    0  0.68039067693E-01 -0.46951254250E-01  0.44844469005E-03  0.82669203648E-01  0.51100000000E-03 0.  1.
</event>
<event>
 8    1  0.2190512E+004  0.1043930E+01  0.7957747E-01            NaN
         13   -1    0    0    0    0  0.00000000000E+00  0.00000000000E+00  0.74505805969E-08  0.10566000000E+00  0.10566000000E+00 0.  1.
     999900   -1    0    0    0    0 -0.00000000000E+00 -0.00000000000E+00 -0.74505805969E-08  0.93827000000E+00  0.93827000000E+00 0. -1.
     999902    2    1    2    0    0  0.19332540736E-01 -0.89519087382E-02 -0.38481698942E-02  0.10222806995E+01  0.10220514353E+01 0.  0.
     999903    2    3    3    0    0 -0.33072110030E-01  0.97194157901E-01 -0.68888783714E-01  0.13197540559E+00  0.46166810236E-01 0.  0.
         14    1    1    2    0    0 -0.19332540736E-01  0.89519087382E-02  0.38481698942E-02  0.21649300517E-01  0.00000000000E+00 0.  1.
     999901    1    3    3    0    0  0.52404650765E-01 -0.10614606664E+00  0.65040613820E-01  0.89030529389E+00  0.88000000000E+00 0.  1.
        -11    1    4    4    0    0  0.28686363150E-02  0.62624568325E-01 -0.37658506960E-01  0.73133370629E-01  0.51100000000E-03 0. -1.
         11    1    4    4    0    0 -0.35940746345E-01  0.34569589577E-01 -0.31230276755E-01  0.58842034962E-01  0.51100000000E-03 0.  1.
</event>
<event>
 8    1  0.2190512E+004  0.1043930E+01  0.7957747E-01            NaN
         13   -1    0    0    0    0  0.00000000000E+00  0.00000000000E+00  0.74505805969E-08  0.10566000000E+00  0.10566000000E+00 0. -1.
     999900   -1    0    0    0    0 -0.00000000000E+00 -0.00000000000E+00 -0.74505805969E-08  0.93827000000E+00  0.93827000000E+00 0.  1.
     999902    2    1    2    0    0  0.49633635488E-02  0.13547011562E-01  0.38015134078E-02  0.10290099462E+01  0.10289017744E+01 0.  0.
     999903    2    3    3    0    0 -0.72832118694E-01 -0.91113257374E-01  0.60745332675E-01  0.13757935023E+00  0.40397264578E-01 0.  0.
         14    1    1    2    0    0 -0.49633635488E-02 -0.13547011562E-01 -0.38015134078E-02  0.14920053759E-01  0.00000000000E+00 0.  1.
     999901    1    3    3    0    0  0.77795482243E-01  0.10466026894E+00 -0.56943819267E-01  0.89143059601E+00  0.88000000000E+00 0.  1.
        -11    1    4    4    0    0 -0.40482237206E-01 -0.37890351876E-01  0.81262586931E-02  0.56042729197E-01  0.51100000000E-03 0. -1.
         11    1    4    4    0    0 -0.32349881488E-01 -0.53222905498E-01  0.52619073982E-01  0.81536621034E-01  0.51100000000E-03 0.  1.
</event>
<event>
 8    1  0.2190512E+004  0.1043930E+01  0.7957747E-01            NaN
         13   -1    0    0    0    0  0.00000000000E+00  0.00000000000E+00  0.74505805969E-08  0.10566000000E+00  0.10566000000E+00 0. -1.
     999900   -1    0    0    0    0 -0.00000000000E+00 -0.00000000000E+00 -0.74505805969E-08  0.93827000000E+00  0.93827000000E+00 0.  1.
     999902    2    1    2    0    0 -0.12516237054E-01 -0.11439292608E-02 -0.75092837061E-02  0.10292891631E+01  0.10291850306E+01 0.  0.
     999903    2    3    3    0    0 -0.11797846119E+00 -0.18007967182E-01  0.58566105800E-01  0.14037261266E+00  0.45069695477E-01 0.  0.
         14    1    1    2    0    0  0.12516237054E-01  0.11439292608E-02  0.75092837061E-02  0.14640836927E-01  0.00000000000E+00 0. -1.
     999901    1    3    3    0    0  0.10546222414E+00  0.16864037921E-01 -0.66075389506E-01  0.88891655041E+00  0.88000000000E+00 0.  1.
        -11    1    4    4    0    0 -0.47887494529E-01  0.10815696276E-01  0.37297947361E-01  0.61657030553E-01  0.51100000000E-03 0. -1.
         11    1    4    4    0    0 -0.70090966661E-01 -0.28823663457E-01  0.21268158439E-01  0.78715582110E-01  0.51100000000E-03 0.  1.
</event>
<event>
 8    1  0.2190512E+004  0.1043930E+01  0.7957747E-01            NaN
         13   -1    0    0    0    0  0.00000000000E+00  0.00000000000E+00  0.74505805969E-08  0.10566000000E+00  0.10566000000E+00 0. -1.
     999900   -1    0    0    0    0 -0.00000000000E+00 -0.00000000000E+00 -0.74505805969E-08  0.93827000000E+00  0.93827000000E+00 0.  1.
     999902    2    1    2    0    0  0.37584103633E-02 -0.55346930271E-02  0.11443211986E-01  0.10306746020E+01  0.10305893603E+01 0.  0.
     999903    2    3    3    0    0  0.81932426212E-01 -0.96442461292E-01  0.45910404079E-01  0.14187575727E+00  0.44798376000E-01 0.  0.
         14    1    1    2    0    0 -0.37584103633E-02  0.55346930271E-02 -0.11443211986E-01  0.13255397991E-01  0.00000000000E+00 0.  1.
     999901    1    3    3    0    0 -0.78174015848E-01  0.90907768264E-01 -0.34467192094E-01  0.88879884474E+00  0.88000000000E+00 0.  1.
        -11    1    4    4    0    0  0.35345475967E-01 -0.12124157001E-01  0.18612446837E-01  0.41749037745E-01  0.51100000000E-03 0. -1.
         11    1    4    4    0    0  0.46586950244E-01 -0.84318304291E-01  0.27297957242E-01  0.10012671952E+00  0.51100000000E-03 0.  1.
</event>
<event>
 8    1  0.2190512E+004  0.1043930E+01  0.7957747E-01            NaN
         13   -1    0    0    0    0  0.00000000000E+00  0.00000000000E+00  0.74505805969E-08  0.10566000000E+00  0.10566000000E+00 0.  1.
     999900   -1    0    0    0    0 -0.00000000000E+00 -0.00000000000E+00 -0.74505805969E-08  0.93827000000E+00  0.93827000000E+00 0. -1.
     999902    2    1    2    0    0  0.71982853447E-02 -0.60867940913E-02  0.11120818078E-01  0.10293513523E+01  0.10292481088E+01 0.  0.
     999903    2    3    3    0    0  0.24200567782E-01 -0.11035786741E+00  0.71665968799E-01  0.14096672297E+00  0.44396841359E-01 0.  0.
         14    1    1    2    0    0 -0.71982853447E-02  0.60867940913E-02 -0.11120818078E-01  0.14578647706E-01  0.00000000000E+00 0. -1.
     999901    1    3    3    0    0 -0.17002282438E-01  0.10427107331E+00 -0.60545150722E-01  0.88838462932E+00  0.88000000000E+00 0. -1.
        -11    1    4    4    0    0  0.18202075846E-01 -0.85381070609E-01  0.30566469714E-01  0.92497637674E-01  0.51100000000E-03 0. -1.
         11    1    4    4    0    0  0.59984919365E-02 -0.24976796796E-01  0.41099499085E-01  0.48469085299E-01  0.51100000000E-03 0.  1.
</event>
<event>
 8    1  0.2190512E+004  0.1043930E+01  0.7957747E-01            NaN
         13   -1    0    0    0    0  0.00000000000E+00  0.00000000000E+00  0.74505805969E-08  0.10566000000E+00  0.10566000000E+00 0.  1.
     999900   -1    0    0    0    0 -0.00000000000E+00 -0.00000000000E+00 -0.74505805969E-08  0.93827000000E+00  0.93827000000E+00 0. -1.
     999902    2    1    2    0    0  0.14436200189E-01  0.21504523710E-02 -0.20219707472E-02  0.10291951201E+01  0.10290896358E+01 0.  0.
     999903    2    3    3    0    0  0.13325674600E+00 -0.10418183736E-01 -0.63738491469E-03  0.14111955469E+00  0.45259513363E-01 0.  0.
         14    1    1    2    0    0 -0.14436200189E-01 -0.21504523710E-02  0.20219707472E-02  0.14734879946E-01  0.00000000000E+00 0. -1.
     999901    1    3    3    0    0 -0.11882054581E+00  0.12568636107E-01 -0.13845858325E-02  0.88807556536E+00  0.88000000000E+00 0. -1.
        -11    1    4    4    0    0  0.76874033353E-01  0.73879434205E-02 -0.18376680216E-01  0.79386158798E-01  0.51100000000E-03 0. -1.
         11    1    4    4    0    0  0.56382712645E-01 -0.17806127156E-01  0.17739295301E-01  0.61733395892E-01  0.51100000000E-03 0.  1.
</event>
<event>
 8    1  0.2190512E+004  0.1043930E+01  0.7957747E-01            NaN
         13   -1    0    0    0    0  0.00000000000E+00  0.00000000000E+00  0.74505805969E-08  0.10566000000E+00  0.10566000000E+00 0. -1.
     999900   -1    0    0    0    0 -0.00000000000E+00 -0.00000000000E+00 -0.74505805969E-08  0.93827000000E+00  0.93827000000E+00 0. -1.
     999902    2    1    2    0    0  0.12455743649E-01  0.81474503391E-03 -0.68946867783E-02  0.10296700538E+01  0.10295713058E+01 0.  0.
     999903    2    3    3    0    0 -0.27125897056E-01 -0.98931407751E-01  0.83162835369E-01  0.13858848709E+00  0.42041334844E-01 0.  0.
         14    1    1    2    0    0 -0.12455743649E-01 -0.81474503391E-03  0.68946867783E-02  0.14259946181E-01  0.00000000000E+00 0. -1.
     999901    1    3    3    0    0  0.39581640705E-01  0.99746152785E-01 -0.90057522147E-01  0.89108156673E+00  0.88000000000E+00 0. -1.
        -11    1    4    4    0    0 -0.29064069806E-01 -0.46924871488E-01  0.25171329623E-01  0.60667294927E-01  0.51100000000E-03 0. -1.
         11    1    4    4    0    0  0.19381727497E-02 -0.52006536263E-01  0.57991505746E-01  0.77921192159E-01  0.51100000000E-03 0.  1.
</event>
<event>
 8    1  0.2190512E+004  0.1043930E+01  0.7957747E-01            NaN
         13   -1    0    0    0    0  0.00000000000E+00  0.00000000000E+00  0.74505805969E-08  0.10566000000E+00  0.10566000000E+00 0. -1.
     999900   -1    0    0    0    0 -0.00000000000E+00 -0.00000000000E+00 -0.74505805969E-08  0.93827000000E+00  0.93827000000E+00 0.  1.
     999902    2    1    2    0    0  0.91219266026E-02  0.16446263331E-02 -0.10397236246E-01  0.10300010064E+01  0.10299068193E+01 0.  0.
     999903    2    3    3    0    0 -0.10223597191E+00 -0.57394640497E-01 -0.60809888666E-01  0.13959230693E+00  0.45186622871E-01 0.  0.
         14    1    1    2    0    0 -0.91219266026E-02 -0.16446263331E-02  0.10397236246E-01  0.13928993584E-01  0.00000000000E+00 0. -1.
     999901    1    3    3    0    0  0.11135789851E+00  0.59039266830E-01  0.50412652420E-01  0.89040869948E+00  0.88000000000E+00 0. -1.
        -11    1    4    4    0    0 -0.91501289728E-01 -0.62616613853E-01 -0.44729647545E-01  0.11955889278E+00  0.51100000000E-03 0. -1.
         11    1    4    4    0    0 -0.10734682178E-01  0.52219733559E-02 -0.16080241121E-01  0.20033414155E-01  0.51100000000E-03 0.  1.
</event>
<event>
 8    1  0.2190512E+004  0.1043930E+01  0.7957747E-01            NaN
         13   -1    0    0    0    0  0.00000000000E+00  0.00000000000E+00  0.74505805969E-08  0.10566000000E+00  0.10566000000E+00 0.  1.
     999900   -1    0    0    0    0 -0.00000000000E+00 -0.00000000000E+00 -0.74505805969E-08  0.93827000000E+00  0.93827000000E+00 0. -1.
     999902    2    1    2    0    0 -0.94496919078E-02  0.56799615868E-02  0.12677958964E-01  0.10271285333E+01  0.10269911073E+01 0.  0.
     999903    2    3    3    0    0 -0.18356139966E-01  0.87086240366E-01  0.97062824450E-01  0.13930697881E+00  0.45434362759E-01 0.  0.
         14    1    1    2    0    0  0.94496919078E-02 -0.56799615868E-02 -0.12677958964E-01  0.16801466730E-01  0.00000000000E+00 0. -1.
     999901    1    3    3    0    0  0.89064480579E-02 -0.81406278780E-01 -0.84384865486E-01  0.88782155446E+00  0.88000000000E+00 0. -1.
        -11    1    4    4    0    0  0.13941634874E-02  0.44747315494E-01  0.19664704143E-01  0.48900180426E-01  0.51100000000E-03 0. -1.
         11    1    4    4    0    0 -0.19750303453E-01  0.42338924873E-01  0.77398120307E-01  0.90406798384E-01  0.51100000000E-03 0.  1.
</event>
<event>
 8    1  0.2190512E+004  0.1043930E+01  0.7957747E-01            NaN
         13   -1    0    0    0    0  0.00000000000E+00  0.00000000000E+00  0.74505805969E-08  0.10566000000E+00  0.10566000000E+00 0.  1.
     999900   -1    0    0    0    0 -0.00000000000E+00 -0.00000000000E+00 -0.74505805969E-08  0.93827000000E+00  0.93827000000E+00 0.  1.
     999902    2    1    2    0    0  0.97888199920E-02 -0.42552914763E-02 -0.86357184205E-02  0.10302003192E+01  0.10301088261E+01 0.  0.
     999903    2    3    3    0    0 -0.26148609916E-02 -0.11994332160E+00 -0.59631108345E-01  0.14107822330E+00  0.44203598395E-01 0.  0.
         14    1    1    2    0    0 -0.97888199920E-02  0.42552914763E-02  0.86357184205E-02  0.13729680806E-01  0.00000000000E+00 0.  1.
     999901    1    3    3    0    0  0.12403680984E-01  0.11568803013E+00  0.50995389924E-01  0.88912209590E+00  0.88000000000E+00 0. -1.
        -11    1    4    4    0    0 -0.16301656201E-01 -0.10885662678E+00 -0.53809455184E-01  0.12252031577E+00  0.51100000000E-03 0.  1.
         11    1    4    4    0    0  0.13686795209E-01 -0.11086694827E-01 -0.58216531606E-02  0.18557907528E-01  0.51100000000E-03 0. -1.
</event>
<event>
 8    1  0.2190512E+004  0.1043930E+01  0.7957747E-01            NaN
         13   -1    0    0    0    0  0.00000000000E+00  0.00000000000E+00  0.74505805969E-08  0.10566000000E+00  0.10566000000E+00 0. -1.
     999900   -1    0    0    0    0 -0.00000000000E+00 -0.00000000000E+00 -0.74505805969E-08  0.93827000000E+00  0.93827000000E+00 0. -1.
     999902    2    1    2    0    0  0.11968042523E-01  0.66259912398E-02  0.22429009683E-02  0.10300675180E+01  0.10299742343E+01 0.  0.
     999903    2    3    3    0    0  0.12528745709E+00  0.34753823795E-01  0.35931318952E-01  0.14171658839E+00  0.43448320697E-01 0.  0.
         14    1    1    2    0    0 -0.11968042523E-01 -0.66259912398E-02 -0.22429009683E-02  0.13862481975E-01  0.00000000000E+00 0. -1.
     999901    1    3    3    0    0 -0.11331941456E+00 -0.28127832555E-01 -0.33688417983E-01  0.88835092964E+00  0.88000000000E+00 0. -1.
        -11    1    4    4    0    0  0.10718335812E+00  0.11867594259E-01  0.26542350022E-01  0.11105795567E+00  0.51100000000E-03 0.  1.
         11    1    4    4    0    0  0.18104098966E-01  0.22886229536E-01  0.93889689299E-02  0.30658632720E-01  0.51100000000E-03 0. -1.
</event>
<event>
 8    1  0.2190512E+004  0.1043930E+01  0.7957747E-01            NaN
         13   -1    0    0    0    0  0.00000000000E+00  0.00000000000E+00  0.74505805969E-08  0.10566000000E+00  0.10566000000E+00 0. -1.
     999900   -1    0    0    0    0 -0.00000000000E+00 -0.00000000000E+00 -0.74505805969E-08  0.93827000000E+00  0.93827000000E+00 0. -1.
     999902    2    1    2    0    0 -0.79074917827E-02  0.67438664186E-02  0.87646450967E-02  0.10303348845E+01  0.10302451879E+01 0.  0.
     999903    2    3    3    0    0  0.58970379995E-01 -0.84748341284E-01 -0.80971610261E-01  0.13854114756E+00  0.44468649984E-01 0.  0.
         14    1    1    2    0    0  0.79074917827E-02 -0.67438664186E-02 -0.87646450967E-02  0.13595115455E-01  0.00000000000E+00 0.  1.
     999901    1    3    3    0    0 -0.66877871777E-01  0.91492207702E-01  0.89736255357E-01  0.89179373699E+00  0.88000000000E+00 0.  1.
        -11    1    4    4    0    0  0.12376772569E-01 -0.49923961747E-01 -0.53473540515E-01  0.74197487234E-01  0.51100000000E-03 0.  1.
         11    1    4    4    0    0  0.46593607426E-01 -0.34824379537E-01 -0.27498069746E-01  0.64343660324E-01  0.51100000000E-03 0. -1.
</event>
<event>
 8    1  0.2190512E+004  0.1043930E+01  0.7957747E-01            NaN
         13   -1    0    0    0    0  0.00000000000E+00  0.00000000000E+00  0.74505805969E-08  0.10566000000E+00  0.10566000000E+00 0. -1.
     999900   -1    0    0    0    0 -0.00000000000E+00 -0.00000000000E+00 -0.74505805969E-08  0.93827000000E+00  0.93827000000E+00 0. -1.
     999902    2    1    2    0    0  0.84924631976E-02  0.10248732379E-01 -0.44164302489E-02  0.10299063306E+01  0.10298108499E+01 0.  0.
     999903    2    3    3    0    0  0.56549307351E-01  0.11935837885E+00 -0.22525036830E-01  0.14168209269E+00  0.46067248039E-01 0.  0.
         14    1    1    2    0    0 -0.84924631976E-02 -0.10248732379E-01  0.44164302489E-02  0.14023669373E-01  0.00000000000E+00 0. -1.
     999901    1    3    3    0    0 -0.48056844153E-01 -0.10910964647E+00  0.18108606581E-01  0.88822423794E+00  0.88000000000E+00 0. -1.
        -11    1    4    4    0    0  0.71730128898E-02  0.66157688569E-01 -0.18086696191E-01  0.68961449889E-01  0.51100000000E-03 0. -1.
         11    1    4    4    0    0  0.49376294461E-01  0.53200690281E-01 -0.44383406388E-02  0.72720642803E-01  0.51100000000E-03 0.  1.
</event>
<event>
 8    1  0.2190512E+004  0.1043930E+01  0.7957747E-01            NaN
         13   -1    0    0    0    0  0.00000000000E+00  0.00000000000E+00  0.74505805969E-08  0.10566000000E+00  0.10566000000E+00 0.  1.
     999900   -1    0    0    0    0 -0.00000000000E+00 -0.00000000000E+00 -0.74505805969E-08  0.93827000000E+00  0.93827000000E+00 0. -1.
     999902    2    1    2    0    0 -0.37379379921E-02  0.27386636436E-02 -0.12915167619E-01  0.10302087022E+01  0.10301173215E+01 0.  0.
     999903    2    3    3    0    0  0.45178087908E-01  0.12464893274E+00 -0.12865412634E-01  0.14045879700E+00  0.44550406869E-01 0.  0.
         14    1    1    2    0    0  0.37379379921E-02 -0.27386636436E-02  0.12915167619E-01  0.13721297811E-01  0.00000000000E+00 0.  1.
     999901    1    3    3    0    0 -0.48916025900E-01 -0.12191026910E+00 -0.49754984948E-04  0.88974990519E+00  0.88000000000E+00 0. -1.
        -11    1    4    4    0    0  0.29458827126E-01  0.11302132190E+00  0.44657310255E-03  0.11679941031E+00  0.51100000000E-03 0. -1.
         11    1    4    4    0    0  0.15719260782E-01  0.11627610840E-01 -0.13311985737E-01  0.23659386692E-01  0.51100000000E-03 0.  1.
</event>
<event>
 8    1  0.2190512E+004  0.1043930E+01  0.7957747E-01            NaN
         13   -1    0    0    0    0  0.00000000000E+00  0.00000000000E+00  0.74505805969E-08  0.10566000000E+00  0.10566000000E+00 0. -1.
     999900   -1    0    0    0    0 -0.00000000000E+00 -0.00000000000E+00 -0.74505805969E-08  0.93827000000E+00  0.93827000000E+00 0. -1.
     999902    2    1    2    0    0 -0.92739263629E-02  0.11860821397E-01  0.14235934554E-02  0.10288067922E+01  0.10286956325E+01 0.  0.
     999903    2    3    3    0    0  0.12411382900E-01  0.11600537011E+00  0.63740670155E-01  0.14021253292E+00  0.44557749460E-01 0.  0.
         14    1    1    2    0    0  0.92739263629E-02 -0.11860821397E-01 -0.14235934554E-02  0.15123207752E-01  0.00000000000E+00 0.  1.
     999901    1    3    3    0    0 -0.21685309263E-01 -0.10414454871E+00 -0.62317076700E-01  0.88859425933E+00  0.88000000000E+00 0.  1.
        -11    1    4    4    0    0  0.22199231683E-01  0.36161218964E-01  0.34255434995E-01  0.54535635982E-01  0.51100000000E-03 0.  1.
         11    1    4    4    0    0 -0.97878487825E-02  0.79844151142E-01  0.29485235161E-01  0.85676896937E-01  0.51100000000E-03 0. -1.
</event>
<event>
 8    1  0.2190512E+004  0.1043930E+01  0.7957747E-01            NaN
         13   -1    0    0    0    0  0.00000000000E+00  0.00000000000E+00  0.74505805969E-08  0.10566000000E+00  0.10566000000E+00 0. -1.
     999900   -1    0    0    0    0 -0.00000000000E+00 -0.00000000000E+00 -0.74505805969E-08  0.93827000000E+00  0.93827000000E+00 0.  1.
     999902    2    1    2    0    0 -0.67771543604E-02  0.58314743229E-02 -0.11369854995E-01  0.10294659232E+01  0.10293643075E+01 0.  0.
     999903    2    3    3    0    0 -0.41068491881E-01 -0.43157983228E-01  0.11641693594E+00  0.13822783680E+00  0.44774985772E-01 0.  0.
         14    1    1    2    0    0  0.67771543604E-02 -0.58314743229E-02  0.11369854995E-01  0.14464076763E-01  0.00000000000E+00 0. -1.
     999901    1    3    3    0    0  0.34291337521E-01  0.48989457551E-01 -0.12778679093E+00  0.89123808644E+00  0.88000000000E+00 0.  1.
        -11    1    4    4    0    0 -0.34847433764E-01 -0.49543093364E-02  0.46649949830E-01  0.58441147842E-01  0.51100000000E-03 0. -1.
         11    1    4    4    0    0 -0.62210581172E-02 -0.38203673891E-01  0.69766986109E-01  0.79786688957E-01  0.51100000000E-03 0.  1.
</event>
<event>
 8    1  0.2190512E+004  0.1043930E+01  0.7957747E-01            NaN
         13   -1    0    0    0    0  0.00000000000E+00  0.00000000000E+00  0.74505805969E-08  0.10566000000E+00  0.10566000000E+00 0. -1.
     999900   -1    0    0    0    0 -0.00000000000E+00 -0.00000000000E+00 -0.74505805969E-08  0.93827000000E+00  0.93827000000E+00 0.  1.
     999902    2    1    2    0    0 -0.41853807705E-02  0.71267274527E-02 -0.86640166959E-02  0.10319561601E+01  0.10318866912E+01 0.  0.
     999903    2    3    3    0    0  0.16520986573E-01 -0.89256775746E-02 -0.13417621578E+00  0.14266445011E+00  0.44690913238E-01 0.  0.
         14    1    1    2    0    0  0.41853807705E-02 -0.71267274527E-02  0.86640166959E-02  0.11973839889E-01  0.00000000000E+00 0. -1.
     999901    1    3    3    0    0 -0.20706367343E-01  0.16052405027E-01  0.12551219909E+00  0.88929171000E+00  0.88000000000E+00 0. -1.
        -11    1    4    4    0    0  0.78559557406E-02  0.18242966522E-01 -0.50981279868E-01  0.54716303659E-01  0.51100000000E-03 0.  1.
         11    1    4    4    0    0  0.86650308319E-02 -0.27168644097E-01 -0.83194935915E-01  0.87948146452E-01  0.51100000000E-03 0. -1.
</event>
<event>
 8    1  0.2190512E+004  0.1043930E+01  0.7957747E-01            NaN
         13   -1    0    0    0    0  0.00000000000E+00  0.00000000000E+00  0.74505805969E-08  0.10566000000E+00  0.10566000000E+00 0. -1.
     999900   -1    0    0    0    0 -0.00000000000E+00 -0.00000000000E+00 -0.74505805969E-08  0.93827000000E+00  0.93827000000E+00 0.  1.
     999902    2    1    2    0    0 -0.95271519337E-03 -0.30729807592E-03 -0.14407145260E-01  0.10294881188E+01  0.10293868169E+01 0.  0.
     999903    2    3    3    0    0  0.12357496084E+00 -0.35636932140E-01  0.27710307719E-01  0.13902239514E+00  0.44928869539E-01 0.  0.
         14    1    1    2    0    0  0.95271519337E-03  0.30729807592E-03  0.14407145260E-01  0.14441881211E-01  0.00000000000E+00 0. -1.
     999901    1    3    3    0    0 -0.12452767604E+00  0.35329634064E-01 -0.42117452980E-01  0.89046572365E+00  0.88000000000E+00 0. -1.
        -11    1    4    4    0    0  0.84430181817E-01 -0.14041943356E-01  0.37185421278E-01  0.93320139581E-01  0.51100000000E-03 0.  1.
         11    1    4    4    0    0  0.39144779026E-01 -0.21594988784E-01 -0.94751135591E-02  0.45702255563E-01  0.51100000000E-03 0. -1.
</event>
<event>
 8    1  0.2190512E+004  0.1043930E+01  0.7957747E-01            NaN
         13   -1    0    0    0    0  0.00000000000E+00  0.00000000000E+00  0.74505805969E-08  0.10566000000E+00  0.10566000000E+00 0.  1.
     999900   -1    0    0    0    0 -0.00000000000E+00 -0.00000000000E+00 -0.74505805969E-08  0.93827000000E+00  0.93827000000E+00 0.  1.
     999902    2    1    2    0    0  0.23115374117E-02  0.12812593919E-01 -0.42820832607E-02  0.10302244535E+01  0.10301332839E+01 0.  0.
     999903    2    3    3    0    0  0.69255887428E-01  0.11517057842E+00 -0.15520219121E-02  0.14176164829E+00  0.45092306178E-01 0.  0.
         14    1    1    2    0    0 -0.23115374117E-02 -0.12812593919E-01  0.42820832607E-02  0.13705546512E-01  0.00000000000E+00 0.  1.
     999901    1    3    3    0    0 -0.66944350016E-01 -0.10235798450E+00 -0.27300613486E-02  0.88846280520E+00  0.88000000000E+00 0. -1.
        -11    1    4    4    0    0 -0.48710800313E-02  0.16621706003E-01 -0.60748343493E-02  0.18362278304E-01  0.51100000000E-03 0.  1.
         11    1    4    4    0    0  0.74126967459E-01  0.98548872415E-01  0.45228124372E-02  0.12339936998E+00  0.51100000000E-03 0. -1.
</event>
<event>
 8    1  0.2190512E+004  0.1043930E+01  0.7957747E-01            NaN
         13   -1    0    0    0    0  0.00000000000E+00  0.00000000000E+00  0.74505805969E-08  0.10566000000E+00  0.10566000000E+00 0. -1.
     999900   -1    0    0    0    0 -0.00000000000E+00 -0.00000000000E+00 -0.74505805969E-08  0.93827000000E+00  0.93827000000E+00 0.  1.
     999902    2    1    2    0    0 -0.25684930542E-02  0.96491501435E-02 -0.80111394659E-02  0.10311283747E+01  0.10310489045E+01 0.  0.
     999903    2    3    3    0    0 -0.45838538457E-01  0.12610213122E+00  0.14456249896E-01  0.14211860128E+00  0.44562254915E-01 0.  0.
         14    1    1    2    0    0  0.25684930542E-02 -0.96491501435E-02  0.80111394659E-02  0.12801625311E-01  0.00000000000E+00 0. -1.
     999901    1    3    3    0    0  0.43270045403E-01 -0.11645298108E+00 -0.22467389362E-01  0.88900977341E+00  0.88000000000E+00 0. -1.
        -11    1    4    4    0    0 -0.10459864986E-02  0.32327778909E-01 -0.12622818544E-01  0.34724286112E-01  0.51100000000E-03 0.  1.
         11    1    4    4    0    0 -0.44792551959E-01  0.93774352310E-01  0.27079068441E-01  0.10739431517E+00  0.51100000000E-03 0. -1.
</event>
<event>
 8    1  0.2190512E+004  0.1043930E+01  0.7957747E-01            NaN
         13   -1    0    0    0    0  0.00000000000E+00  0.00000000000E+00  0.74505805969E-08  0.10566000000E+00  0.10566000000E+00 0. -1.
     999900   -1    0    0    0    0 -0.00000000000E+00 -0.00000000000E+00 -0.74505805969E-08  0.93827000000E+00  0.93827000000E+00 0.  1.
     999902    2    1    2    0    0 -0.69487668456E-02 -0.11659308728E-02 -0.11996272814E-01  0.10300175841E+01  0.10299236225E+01 0.  0.
     999903    2    3    3    0    0  0.82853206372E-01  0.25881491745E-01 -0.98393592828E-01  0.14082668535E+00  0.51150276409E-01 0.  0.
         14    1    1    2    0    0  0.69487668456E-02  0.11659308728E-02  0.11996272814E-01  0.13912415926E-01  0.00000000000E+00 0. -1.
     999901    1    3    3    0    0 -0.89801973218E-01 -0.27047422618E-01  0.86397320014E-01  0.88919089872E+00  0.88000000000E+00 0. -1.
        -11    1    4    4    0    0  0.42024156126E-01  0.12535115947E-01 -0.85305625845E-01  0.95919079185E-01  0.51100000000E-03 0.  1.
         11    1    4    4    0    0  0.40829050246E-01  0.13346375798E-01 -0.13087966983E-01  0.44907606168E-01  0.51100000000E-03 0. -1.
</event>
<event>
 8    1  0.2190512E+004  0.1043930E+01  0.7957747E-01            NaN
         13   -1    0    0    0    0  0.00000000000E+00  0.00000000000E+00  0.74505805969E-08  0.10566000000E+00  0.10566000000E+00 0.  1.
     999900   -1    0    0    0    0 -0.00000000000E+00 -0.00000000000E+00 -0.74505805969E-08  0.93827000000E+00  0.93827000000E+00 0.  1.
     999902    2    1    2    0    0  0.87406728146E-02 -0.98612378065E-02 -0.20127698048E-02  0.10305997857E+01  0.10305135727E+01 0.  0.
     999903    2    3    3    0    0  0.10761143062E+00  0.43167694862E-02  0.80036342821E-01  0.14115698281E+00  0.43824914442E-01 0.  0.
         14    1    1    2    0    0 -0.87406728146E-02  0.98612378065E-02  0.20127698048E-02  0.13330214350E-01  0.00000000000E+00 0. -1.
     999901    1    3    3    0    0 -0.98870757803E-01 -0.14178007293E-01 -0.82049112626E-01  0.88944280284E+00  0.88000000000E+00 0.  1.
        -11    1    4    4    0    0  0.50945536884E-01  0.18108040635E-01  0.20533829581E-01  0.57838120148E-01  0.51100000000E-03 0.  1.
         11    1    4    4    0    0  0.56665893734E-01 -0.13791271149E-01  0.59502513240E-01  0.83318862663E-01  0.51100000000E-03 0. -1.
</event>
<event>
 8    1  0.2190512E+004  0.1043930E+01  0.7957747E-01            NaN
         13   -1    0    0    0    0  0.00000000000E+00  0.00000000000E+00  0.74505805969E-08  0.10566000000E+00  0.10566000000E+00 0.  1.
     999900   -1    0    0    0    0 -0.00000000000E+00 -0.00000000000E+00 -0.74505805969E-08  0.93827000000E+00  0.93827000000E+00 0. -1.
     999902    2    1    2    0    0 -0.63456142776E-02  0.74760949703E-02  0.90304167768E-02  0.10305993120E+01  0.10305130929E+01 0.  0.
     999903    2    3    3    0    0 -0.32668167565E-01 -0.11693114444E+00  0.54131737197E-01  0.14031611705E+00  0.44925115694E-01 0.  0.
         14    1    1    2    0    0  0.63456142776E-02 -0.74760949703E-02 -0.90304167768E-02  0.13330688044E-01  0.00000000000E+00 0. -1.
     999901    1    3    3    0    0  0.26322553288E-01  0.12440723941E+00 -0.45101320420E-01  0.89028319491E+00  0.88000000000E+00 0. -1.
        -11    1    4    4    0    0 -0.34804682474E-01 -0.48385271461E-01  0.34979542944E-01  0.69110997403E-01  0.51100000000E-03 0. -1.
         11    1    4    4    0    0  0.21365149086E-02 -0.68545872977E-01  0.19152194253E-01  0.71205119647E-01  0.51100000000E-03 0.  1.
</event>
<event>
 8    1  0.2190512E+004  0.1043930E+01  0.7957747E-01            NaN
         13   -1    0    0    0    0  0.00000000000E+00  0.00000000000E+00  0.74505805969E-08  0.10566000000E+00  0.10566000000E+00 0.  1.
     999900   -1    0    0    0    0 -0.00000000000E+00 -0.00000000000E+00 -0.74505805969E-08  0.93827000000E+00  0.93827000000E+00 0.  1.
     999902    2    1    2    0    0 -0.12327740576E-01 -0.54328021273E-02 -0.30734660789E-02  0.10301120870E+01  0.10300194061E+01 0.  0.
     999903    2    3    3    0    0 -0.11528712992E+00  0.29667900649E-01  0.61065455918E-01  0.14109774710E+00  0.44813811227E-01 0.  0.
         14    1    1    2    0    0  0.12327740576E-01  0.54328021273E-02  0.30734660789E-02  0.13817913026E-01  0.00000000000E+00 0.  1.
     999901    1    3    3    0    0  0.10295938934E+00 -0.35100702776E-01 -0.64138921997E-01  0.88901433988E+00  0.88000000000E+00 0. -1.
        -11    1    4    4    0    0 -0.71223822650E-01  0.34736053629E-01  0.54691789539E-01  0.96285405429E-01  0.51100000000E-03 0. -1.
         11    1    4    4    0    0 -0.44063307266E-01 -0.50681529798E-02  0.63736663790E-02  0.44812341670E-01  0.51100000000E-03 0.  1.
</event>
<event>
 7    1  0.2190512E+004  0.1043930E+01  0.7957747E-01            NaN
         13   -1    0    0    0    0  0.00000000000E+00  0.00000000000E+00  0.74505805969E-08  0.10566000000E+00  0.10566000000E+00 0. -1.
     999900   -1    0    0    0    0 -0.00000000000E+00 -0.00000000000E+00 -0.74505805969E-08  0.93827000000E+00  0.93827000000E+00 0. -1.
     999903    2    1    2    0    0  0.92515128399E-01 -0.45803834679E-01  0.27950994540E-01  0.11745419091E+00  0.48550886837E-01 0.  0.
         14    1    1    2    0    0 -0.28432306058E-01  0.14078161022E-01 -0.29867104469E-01  0.43573324120E-01  0.00000000000E+00 0.  1.
     999901    1    1    2    0    0 -0.64082822341E-01  0.31725673657E-01  0.19161099295E-02  0.88290248497E+00  0.88000000000E+00 0.  1.
        -11    1    3    3    0    0  0.44668197015E-01 -0.20871304813E-01  0.38400693404E-01  0.62495868376E-01  0.51100000000E-03 0. -1.
         11    1    3    3    0    0  0.47846931384E-01 -0.24932529866E-01 -0.10449698865E-01  0.54958322534E-01  0.51100000000E-03 0.  1.
</event>
<event>
 8    1  0.2190512E+004  0.1043930E+01  0.7957747E-01            NaN
         13   -1    0    0    0    0  0.00000000000E+00  0.00000000000E+00  0.74505805969E-08  0.10566000000E+00  0.10566000000E+00 0.  1.
     999900   -1    0    0    0    0 -0.00000000000E+00 -0.00000000000E+00 -0.74505805969E-08  0.93827000000E+00  0.93827000000E+00 0.  1.
     999902    2    1    2    0    0 -0.10858191246E-02  0.11517942183E-01  0.96796216671E-02  0.10288456680E+01  0.10287350833E+01 0.  0.
     999903    2    3    3    0    0  0.96462541688E-01  0.36980254489E-01  0.82988541006E-01  0.14006098674E+00  0.45358801761E-01 0.  0.
         14    1    1    2    0    0  0.10858191246E-02 -0.11517942183E-01 -0.96796216671E-02  0.15084331968E-01  0.00000000000E+00 0. -1.
     999901    1    3    3    0    0 -0.97548360812E-01 -0.25462312305E-01 -0.73308919339E-01  0.88878468129E+00  0.88000000000E+00 0. -1.
        -11    1    4    4    0    0  0.21872970723E-01 -0.10244261011E-02 -0.39180639133E-03  0.21906412996E-01  0.51100000000E-03 0.  1.
         11    1    4    4    0    0  0.74589570965E-01  0.38004680590E-01  0.83380347398E-01  0.11815457374E+00  0.51100000000E-03 0. -1.
</event>
<event>
 8    1  0.2190512E+004  0.1043930E+01  0.7957747E-01            NaN
         13   -1    0    0    0    0  0.00000000000E+00  0.00000000000E+00  0.74505805969E-08  0.10566000000E+00  0.10566000000E+00 0.  1.
     999900   -1    0    0    0    0 -0.00000000000E+00 -0.00000000000E+00 -0.74505805969E-08  0.93827000000E+00  0.93827000000E+00 0.  1.
     999902    2    1    2    0    0  0.81429644733E-02  0.31443108355E-02  0.11044888269E-01  0.10298522119E+01  0.10297559877E+01 0.  0.
     999903    2    3    3    0    0 -0.60189743497E-01  0.11069931198E+00  0.42032426647E-01  0.14013446745E+00  0.44652000887E-01 0.  0.
         14    1    1    2    0    0 -0.81429644733E-02 -0.31443108355E-02 -0.11044888269E-01  0.14077788105E-01  0.00000000000E+00 0.  1.
     999901    1    3    3    0    0  0.68332707970E-01 -0.10755500114E+00 -0.30987538377E-01  0.88971774445E+00  0.88000000000E+00 0.  1.
        -11    1    4    4    0    0 -0.22160101587E-01  0.81603978279E-01  0.17589050105E-01  0.86370800493E-01  0.51100000000E-03 0.  1.
         11    1    4    4    0    0 -0.38029641910E-01  0.29095333697E-01  0.24443376541E-01  0.53763666955E-01  0.51100000000E-03 0. -1.
</event>
<event>
 8    1  0.2190512E+004  0.1043930E+01  0.7957747E-01            NaN
         13   -1    0    0    0    0  0.00000000000E+00  0.00000000000E+00  0.74505805969E-08  0.10566000000E+00  0.10566000000E+00 0.  1.
     999900   -1    0    0    0    0 -0.00000000000E+00 -0.00000000000E+00 -0.74505805969E-08  0.93827000000E+00  0.93827000000E+00 0.  1.
     999902    2    1    2    0    0 -0.40535262363E-02  0.82499169809E-02 -0.96988953032E-02  0.10305673365E+01  0.10304807006E+01 0.  0.
     999903    2    3    3    0    0 -0.29635455769E-01  0.11934576218E+00 -0.55991389463E-01  0.14200686196E+00  0.43694873383E-01 0.  0.
         14    1    1    2    0    0  0.40535262363E-02 -0.82499169809E-02  0.96988953032E-02  0.13362663479E-01  0.00000000000E+00 0.  1.
     999901    1    3    3    0    0  0.25581929532E-01 -0.11109584520E+00  0.46292494160E-01  0.88856047456E+00  0.88000000000E+00 0. -1.
        -11    1    4    4    0    0 -0.18670175131E-01  0.73796027268E-01 -0.57070602185E-01  0.95140652903E-01  0.51100000000E-03 0.  1.
         11    1    4    4    0    0 -0.10965280638E-01  0.45549734914E-01  0.10792127218E-02  0.46866209056E-01  0.51100000000E-03 0. -1.
</event>
<event>
 8    1  0.2190512E+004  0.1043930E+01  0.7957747E-01            NaN
         13   -1    0    0    0    0  0.00000000000E+00  0.00000000000E+00  0.74505805969E-08  0.10566000000E+00  0.10566000000E+00 0. -1.
     999900   -1    0    0    0    0 -0.00000000000E+00 -0.00000000000E+00 -0.74505805969E-08  0.93827000000E+00  0.93827000000E+00 0. -1.
     999902    2    1    2    0    0 -0.69285572399E-02 -0.95171541702E-02 -0.22451663975E-02  0.10319457645E+01  0.10318761742E+01 0.  0.
     999903    2    3    3    0    0  0.65271016378E-01  0.10607959368E+00 -0.46885514266E-01  0.14033590181E+00  0.44527835293E-01 0.  0.
         14    1    1    2    0    0  0.69285572399E-02  0.95171541702E-02  0.22451663975E-02  0.11984235523E-01  0.00000000000E+00 0.  1.
     999901    1    3    3    0    0 -0.72199573618E-01 -0.11559674785E+00  0.44640347869E-01  0.89160986266E+00  0.88000000000E+00 0.  1.
        -11    1    4    4    0    0  0.37384620166E-01  0.53991638854E-01 -0.12604414343E-02  0.65685285450E-01  0.51100000000E-03 0.  1.
         11    1    4    4    0    0  0.27886396212E-01  0.52087954822E-01 -0.45625072832E-01  0.74650616362E-01  0.51100000000E-03 0. -1.
</event>
<event>
 8    1  0.2190512E+004  0.1043930E+01  0.7957747E-01            NaN
         13   -1    0    0    0    0  0.00000000000E+00  0.00000000000E+00  0.74505805969E-08  0.10566000000E+00  0.10566000000E+00 0. -1.
     999900   -1    0    0    0    0 -0.00000000000E+00 -0.00000000000E+00 -0.74505805969E-08  0.93827000000E+00  0.93827000000E+00 0. -1.
     999902    2    1    2    0    0 -0.29729389655E-02  0.47048480921E-02  0.12516043992E-01  0.10302323608E+01  0.10301412971E+01 0.  0.
     999903    2    3    3    0    0  0.39442004765E-01  0.11030276648E+00  0.64450049497E-01  0.14138643000E+00  0.45977621476E-01 0.  0.
         14    1    1    2    0    0  0.29729389655E-02 -0.47048480921E-02 -0.12516043992E-01  0.13697639171E-01  0.00000000000E+00 0.  1.
     999901    1    3    3    0    0 -0.42414943730E-01 -0.10559791838E+00 -0.51934005505E-01  0.88884593083E+00  0.88000000000E+00 0. -1.
        -11    1    4    4    0    0  0.35070232483E-01  0.32536765906E-01  0.21663421027E-01  0.52517875753E-01  0.51100000000E-03 0.  1.
         11    1    4    4    0    0  0.43717722817E-02  0.77766000569E-01  0.42786628470E-01  0.88868554249E-01  0.51100000000E-03 0. -1.
</event>
<event>
 7    1  0.2190512E+004  0.1043930E+01  0.7957747E-01            NaN
         13   -1    0    0    0    0  0.00000000000E+00  0.00000000000E+00  0.74505805969E-08  0.10566000000E+00  0.10566000000E+00 0. -1.
     999900   -1    0    0    0    0 -0.00000000000E+00 -0.00000000000E+00 -0.74505805969E-08  0.93827000000E+00  0.93827000000E+00 0. -1.
     999902    2    1    2    0    0 -0.10976697409E-01  0.69484818915E-03  0.70355311278E-02  0.10308736070E+01  0.10307909217E+01 0.  0.
         14    1    1    2    0    0  0.10976697409E-01 -0.69484818915E-03 -0.70355311278E-02  0.13056393003E-01  0.00000000000E+00 0. -1.
     999901    1    3    3    0    0  0.94124750904E-03 -0.14929807594E-02  0.13217265684E+00  0.88987230890E+00  0.88000000000E+00 0.  1.
        -11    1    3    3    0    0  0.71577372234E-03  0.21743270810E-01 -0.10756832207E-01  0.24274528166E-01  0.51100000000E-03 0.  1.
         11    1    3    3    0    0 -0.12633718640E-01 -0.19555441862E-01 -0.11438029351E+00  0.11672676993E+00  0.51100000000E-03 0. -1.
</event>
<event>
 8    1  0.2190512E+004  0.1043930E+01  0.7957747E-01            NaN
         13   -1    0    0    0    0  0.00000000000E+00  0.00000000000E+00  0.74505805969E-08  0.10566000000E+00  0.10566000000E+00 0.  1.
     999900   -1    0    0    0    0 -0.00000000000E+00 -0.00000000000E+00 -0.74505805969E-08  0.93827000000E+00  0.93827000000E+00 0. -1.
     999902    2    1    2    0    0  0.58872187363E-02 -0.10581010820E-01 -0.76649070114E-02  0.10295993359E+01  0.10294995991E+01 0.  0.
     999903    2    3    3    0    0 -0.71041556085E-01  0.10743045284E+00  0.15822877948E-01  0.13808578131E+00  0.47213500662E-01 0.  0.
         14    1    1    2    0    0 -0.58872187363E-02  0.10581010820E-01  0.76649070114E-02  0.14330664113E-01  0.00000000000E+00 0.  1.
     999901    1    3    3    0    0  0.76928774822E-01 -0.11801146366E+00 -0.23487784959E-01  0.89151355458E+00  0.88000000000E+00 0. -1.
        -11    1    4    4    0    0 -0.28060528336E-01  0.99697866850E-02  0.99649527872E-02  0.31406230307E-01  0.51100000000E-03 0. -1.
         11    1    4    4    0    0 -0.42981027749E-01  0.97460666157E-01  0.58579251608E-02  0.10667955100E+00  0.51100000000E-03 0.  1.
</event>
<event>
 8    1  0.2190512E+004  0.1043930E+01  0.7957747E-01            NaN
         13   -1    0    0    0    0  0.00000000000E+00  0.00000000000E+00  0.74505805969E-08  0.10566000000E+00  0.10566000000E+00 0.  1.
     999900   -1    0    0    0    0 -0.00000000000E+00 -0.00000000000E+00 -0.74505805969E-08  0.93827000000E+00  0.93827000000E+00 0.  1.
     999902    2    1    2    0    0 -0.15453097522E-03 -0.73310945403E-02 -0.10906470424E-01  0.10307877048E+01  0.10307039208E+01 0.  0.
     999903    2    3    3    0    0  0.32816052811E-01  0.12756147611E+00  0.17222306183E-01  0.13945483031E+00  0.42452542403E-01 0.  0.
         14    1    1    2    0    0  0.15453097522E-03  0.73310945403E-02  0.10906470424E-01  0.13142295237E-01  0.00000000000E+00 0.  1.
     999901    1    3    3    0    0 -0.32970583786E-01 -0.13489257065E+00 -0.28128776608E-01  0.89133287446E+00  0.88000000000E+00 0. -1.
        -11    1    4    4    0    0  0.66429638063E-02  0.64424240678E-01  0.27450048393E-01  0.70344708634E-01  0.51100000000E-03 0. -1.
         11    1    4    4    0    0  0.26173089004E-01  0.63137235432E-01 -0.10227742209E-01  0.69110121673E-01  0.51100000000E-03 0.  1.
</event>
<event>
 8    1  0.2190512E+004  0.1043930E+01  0.7957747E-01            NaN
         13   -1    0    0    0    0  0.00000000000E+00  0.00000000000E+00  0.74505805969E-08  0.10566000000E+00  0.10566000000E+00 0. -1.
     999900   -1    0    0    0    0 -0.00000000000E+00 -0.00000000000E+00 -0.74505805969E-08  0.93827000000E+00  0.93827000000E+00 0. -1.
     999902    2    1    2    0    0 -0.13178151072E-03  0.12937076633E-02 -0.16339644473E-01  0.10275386905E+01  0.10274079450E+01 0.  0.
     999903    2    3    3    0    0 -0.87043015970E-01  0.38494092088E-01 -0.91312519013E-01  0.13930540852E+00  0.44830112212E-01 0.  0.
         14    1    1    2    0    0  0.13178151072E-03 -0.12937076633E-02  0.16339644473E-01  0.16391309508E-01  0.00000000000E+00 0. -1.
     999901    1    3    3    0    0  0.86911234459E-01 -0.37200384425E-01  0.74972874540E-01  0.88823328197E+00  0.88000000000E+00 0. -1.
        -11    1    4    4    0    0 -0.36311366894E-01  0.76736908300E-02 -0.96570601026E-02  0.38352585669E-01  0.51100000000E-03 0.  1.
         11    1    4    4    0    0 -0.50731649075E-01  0.30820401258E-01 -0.81655458911E-01  0.10095282286E+00  0.51100000000E-03 0. -1.
</event>
<event>
 8    1  0.2190512E+004  0.1043930E+01  0.7957747E-01            NaN
         13   -1    0    0    0    0  0.00000000000E+00  0.00000000000E+00  0.74505805969E-08  0.10566000000E+00  0.10566000000E+00 0.  1.
     999900   -1    0    0    0    0 -0.00000000000E+00 -0.00000000000E+00 -0.74505805969E-08  0.93827000000E+00  0.93827000000E+00 0.  1.
     999902    2    1    2    0    0  0.28708038287E-02  0.12384468764E-01  0.61617258352E-02  0.10298025994E+01  0.10297056911E+01 0.  0.
     999903    2    3    3    0    0  0.21657328167E-01 -0.12216324550E+00  0.41957028431E-01  0.13865877009E+00  0.45529813031E-01 0.  0.
         14    1    1    2    0    0 -0.28708038287E-02 -0.12384468764E-01 -0.61617258352E-02  0.14127400556E-01  0.00000000000E+00 0. -1.
     999901    1    3    3    0    0 -0.18786524338E-01  0.13454771426E+00 -0.35795302595E-01  0.89114382935E+00  0.88000000000E+00 0. -1.
        -11    1    4    4    0    0  0.22922035025E-01 -0.35380252502E-01 -0.21886587041E-03  0.42160300995E-01  0.51100000000E-03 0.  1.
         11    1    4    4    0    0 -0.12647068576E-02 -0.86782992994E-01  0.42175894301E-01  0.96498469094E-01  0.51100000000E-03 0. -1.
</event>
<event>
 8    1  0.2190512E+004  0.1043930E+01  0.7957747E-01            NaN
         13   -1    0    0    0    0  0.00000000000E+00  0.00000000000E+00  0.74505805969E-08  0.10566000000E+00  0.10566000000E+00 0.  1.
     999900   -1    0    0    0    0 -0.00000000000E+00 -0.00000000000E+00 -0.74505805969E-08  0.93827000000E+00  0.93827000000E+00 0.  1.
     999902    2    1    2    0    0 -0.11789826292E-01 -0.66379607255E-02  0.38681819326E-02  0.10298578517E+01  0.10297617051E+01 0.  0.
     999903    2    3    3    0    0 -0.44567475443E-01 -0.12591430135E+00  0.50159050572E-02  0.14120576173E+00  0.45532808958E-01 0.  0.
         14    1    1    2    0    0  0.11789826292E-01  0.66379607255E-02 -0.38681819326E-02  0.14072148310E-01  0.00000000000E+00 0. -1.
     999901    1    3    3    0    0  0.32777649151E-01  0.11927634062E+00 -0.11477231246E-02  0.88865208996E+00  0.88000000000E+00 0. -1.
        -11    1    4    4    0    0 -0.23207527856E-01 -0.34835236751E-01  0.20115741976E-01  0.46443376976E-01  0.51100000000E-03 0. -1.
         11    1    4    4    0    0 -0.21359947587E-01 -0.91079064598E-01 -0.15099836919E-01  0.94762384757E-01  0.51100000000E-03 0.  1.
</event>
<event>
 8    1  0.2190512E+004  0.1043930E+01  0.7957747E-01            NaN
         13   -1    0    0    0    0  0.00000000000E+00  0.00000000000E+00  0.74505805969E-08  0.10566000000E+00  0.10566000000E+00 0. -1.
     999900   -1    0    0    0    0 -0.00000000000E+00 -0.00000000000E+00 -0.74505805969E-08  0.93827000000E+00  0.93827000000E+00 0. -1.
     999902    2    1    2    0    0  0.11318300549E-01 -0.61034726304E-02  0.31723894606E-02  0.10306853648E+01  0.10306002624E+01 0.  0.
     999903    2    3    3    0    0 -0.59783957749E-01  0.10302342216E+00 -0.54822708122E-01  0.13921038390E+00  0.46755262205E-01 0.  0.
         14    1    1    2    0    0 -0.11318300549E-01  0.61034726304E-02 -0.31723894606E-02  0.13244635154E-01  0.00000000000E+00 0.  1.
     999901    1    3    3    0    0  0.71102258299E-01 -0.10912689479E+00  0.57995097583E-01  0.89147498094E+00  0.88000000000E+00 0.  1.
        -11    1    4    4    0    0 -0.54204438625E-01  0.75234948967E-01 -0.20996506808E-01  0.95076459399E-01  0.51100000000E-03 0. -1.
         11    1    4    4    0    0 -0.55795191242E-02  0.27788473190E-01 -0.33826201314E-01  0.44133924505E-01  0.51100000000E-03 0.  1.
</event>
<event>
 8    1  0.2190512E+004  0.1043930E+01  0.7957747E-01            NaN
         13   -1    0    0    0    0  0.00000000000E+00  0.00000000000E+00  0.74505805969E-08  0.10566000000E+00  0.10566000000E+00 0.  1.
     999900   -1    0    0    0    0 -0.00000000000E+00 -0.00000000000E+00 -0.74505805969E-08  0.93827000000E+00  0.93827000000E+00 0. -1.
     999902    2    1    2    0    0  0.14416049117E-01  0.61677794645E-03 -0.28164226904E-02  0.10292284653E+01  0.10291234613E+01 0.  0.
     999903    2    3    3    0    0 -0.66470393092E-01 -0.10738086859E+00 -0.34569730049E-01  0.13837809582E+00  0.44771275045E-01 0.  0.
         14    1    1    2    0    0 -0.14416049117E-01 -0.61677794645E-03  0.28164226904E-02  0.14701534748E-01  0.00000000000E+00 0.  1.
     999901    1    3    3    0    0  0.80886442209E-01  0.10799764654E+00  0.31753307358E-01  0.89085036943E+00  0.88000000000E+00 0.  1.
        -11    1    4    4    0    0 -0.31878041385E-02 -0.30578677359E-01 -0.22565453291E-01  0.38140246558E-01  0.51100000000E-03 0.  1.
         11    1    4    4    0    0 -0.63282588954E-01 -0.76802191234E-01 -0.12004276758E-01  0.10023784926E+00  0.51100000000E-03 0. -1.
</event>
<event>
 8    1  0.2190512E+004  0.1043930E+01  0.7957747E-01            NaN
         13   -1    0    0    0    0  0.00000000000E+00  0.00000000000E+00  0.74505805969E-08  0.10566000000E+00  0.10566000000E+00 0. -1.
     999900   -1    0    0    0    0 -0.00000000000E+00 -0.00000000000E+00 -0.74505805969E-08  0.93827000000E+00  0.93827000000E+00 0.  1.
     999902    2    1    2    0    0  0.55489591387E-02  0.30425136559E-02  0.13117399993E-01  0.10293658653E+01  0.10292628287E+01 0.  0.
     999903    2    3    3    0    0  0.98770171969E-01 -0.77506539824E-01  0.44205530680E-01  0.14023999322E+00  0.44162384101E-01 0.  0.
         14    1    1    2    0    0 -0.55489591387E-02 -0.30425136559E-02 -0.13117399993E-01  0.14564134696E-01  0.00000000000E+00 0.  1.
     999901    1    3    3    0    0 -0.93221212830E-01  0.80549053480E-01 -0.31088130687E-01  0.88912587208E+00  0.88000000000E+00 0.  1.
        -11    1    4    4    0    0  0.56156893334E-01 -0.25465841406E-01  0.38150742292E-02  0.61781240355E-01  0.51100000000E-03 0. -1.
         11    1    4    4    0    0  0.42613278635E-01 -0.52040698418E-01  0.40390456451E-01  0.78458752865E-01  0.51100000000E-03 0.  1.
</event>
<event>
 8    1  0.2190512E+004  0.1043930E+01  0.7957747E-01            NaN
         13   -1    0    0    0    0  0.00000000000E+00  0.00000000000E+00  0.74505805969E-08  0.10566000000E+00  0.10566000000E+00 0. -1.
     999900   -1    0    0    0    0 -0.00000000000E+00 -0.00000000000E+00 -0.74505805969E-08  0.93827000000E+00  0.93827000000E+00 0. -1.
     999902    2    1    2    0    0  0.12314500985E-01 -0.24237109162E-02  0.62565288676E-02  0.10299062536E+01  0.10298107718E+01 0.  0.
     999903    2    3    3    0    0 -0.81274908835E-01  0.75690646647E-01  0.70356597825E-01  0.13919325308E+00  0.45716802706E-01 0.  0.
         14    1    1    2    0    0 -0.12314500985E-01  0.24237109162E-02 -0.62565288676E-02  0.14023746382E-01  0.00000000000E+00 0.  1.
     999901    1    3    3    0    0  0.93589409819E-01 -0.78114357563E-01 -0.64100068957E-01  0.89071300054E+00  0.88000000000E+00 0.  1.
        -11    1    4    4    0    0 -0.49235294728E-01  0.35093012849E-01  0.12783535976E-01  0.61800596363E-01  0.51100000000E-03 0.  1.
         11    1    4    4    0    0 -0.32039614107E-01  0.40597633798E-01  0.57573061849E-01  0.77392656717E-01  0.51100000000E-03 0. -1.
</event>
<event>
 8    1  0.2190512E+004  0.1043930E+01  0.7957747E-01            NaN
         13   -1    0    0    0    0  0.00000000000E+00  0.00000000000E+00  0.74505805969E-08  0.10566000000E+00  0.10566000000E+00 0.  1.
     999900   -1    0    0    0    0 -0.00000000000E+00 -0.00000000000E+00 -0.74505805969E-08  0.93827000000E+00  0.93827000000E+00 0. -1.
     999902    2    1    2    0    0 -0.37319482532E-02 -0.12038168096E-01  0.52323615099E-02  0.10302836622E+01  0.10301932838E+01 0.  0.
     999903    2    3    3    0    0 -0.34023534008E-01  0.10282173988E+00  0.75494276779E-01  0.13952717730E+00  0.45150153047E-01 0.  0.
         14    1    1    2    0    0  0.37319482532E-02  0.12038168096E-01 -0.52323615099E-02  0.13646337818E-01  0.00000000000E+00 0.  1.
     999901    1    3    3    0    0  0.30291585754E-01 -0.11485990797E+00 -0.70261915269E-01  0.89075648488E+00  0.88000000000E+00 0. -1.
        -11    1    4    4    0    0 -0.19033766602E-01  0.25620909969E-01  0.45012157779E-01  0.55182159867E-01  0.51100000000E-03 0.  1.
         11    1    4    4    0    0 -0.14989767405E-01  0.77200829909E-01  0.30482119001E-01  0.84345017430E-01  0.51100000000E-03 0. -1.
</event>
<event>
 7    1  0.2190512E+004  0.1043930E+01  0.7957747E-01            NaN
         13   -1    0    0    0    0  0.00000000000E+00  0.00000000000E+00  0.74505805969E-08  0.10566000000E+00  0.10566000000E+00 0. -1.
     999900   -1    0    0    0    0 -0.00000000000E+00 -0.00000000000E+00 -0.74505805969E-08  0.93827000000E+00  0.93827000000E+00 0. -1.
     999903    2    1    2    0    0  0.26394504035E-01 -0.31389366294E-01  0.10064379922E+00  0.11780119194E+00  0.45453100463E-01 0.  0.
         14    1    1    2    0    0  0.24104694100E-01 -0.25808923058E-01  0.78862485778E-02  0.36184661167E-01  0.00000000000E+00 0. -1.
     999901    1    1    2    0    0 -0.50499198135E-01  0.57198289352E-01 -0.10853004780E+00  0.88994414689E+00  0.88000000000E+00 0.  1.
        -11    1    3    3    0    0  0.16466462900E-01  0.15346740460E-02  0.68623568552E-02  0.17912361304E-01  0.51100000000E-03 0. -1.
         11    1    3    3    0    0  0.99280411346E-02 -0.32924040340E-01  0.93781442363E-01  0.99888830635E-01  0.51100000000E-03 0.  1.
</event>
<event>
 8    1  0.2190512E+004  0.1043930E+01  0.7957747E-01            NaN
         13   -1    0    0    0    0  0.00000000000E+00  0.00000000000E+00  0.74505805969E-08  0.10566000000E+00  0.10566000000E+00 0.  1.
     999900   -1    0    0    0    0 -0.00000000000E+00 -0.00000000000E+00 -0.74505805969E-08  0.93827000000E+00  0.93827000000E+00 0.  1.
     999902    2    1    2    0    0  0.67559669488E-02 -0.11800604894E-01  0.13868199126E-02  0.10302617655E+01  0.10301710949E+01 0.  0.
     999903    2    3    3    0    0 -0.46063881580E-01  0.86706411518E-01  0.87309996917E-01  0.13903992945E+00  0.45488277997E-01 0.  0.
         14    1    1    2    0    0 -0.67559669488E-02  0.11800604894E-01 -0.13868199126E-02  0.13668234514E-01  0.00000000000E+00 0. -1.
     999901    1    3    3    0    0  0.52819848529E-01 -0.98507016411E-01 -0.85923177005E-01  0.89122183604E+00  0.88000000000E+00 0. -1.
        -11    1    4    4    0    0 -0.20942220547E-01  0.54175928294E-01  0.22492822912E-01  0.62288008569E-01  0.51100000000E-03 0. -1.
         11    1    4    4    0    0 -0.25121661034E-01  0.32530483224E-01  0.64817174005E-01  0.76751920881E-01  0.51100000000E-03 0.  1.
</event>
<event>
 8    1  0.2190512E+004  0.1043930E+01  0.7957747E-01            NaN
         13   -1    0    0    0    0  0.00000000000E+00  0.00000000000E+00  0.74505805969E-08  0.10566000000E+00  0.10566000000E+00 0. -1.
     999900   -1    0    0    0    0 -0.00000000000E+00 -0.00000000000E+00 -0.74505805969E-08  0.93827000000E+00  0.93827000000E+00 0.  1.
     999902    2    1    2    0    0 -0.98372543249E-02 -0.38915145935E-02 -0.89039428092E-02  0.10301026483E+01  0.10300098399E+01 0.  0.
     999903    2    3    3    0    0  0.26669859737E-01 -0.94435292106E-01  0.86988275080E-01  0.13952628294E+00  0.47658344662E-01 0.  0.
         14    1    1    2    0    0  0.98372543249E-02  0.38915145935E-02  0.89039428092E-02  0.13827351736E-01  0.00000000000E+00 0.  1.
     999901    1    3    3    0    0 -0.36507114062E-01  0.90543777512E-01 -0.95892217889E-01  0.89057636532E+00  0.88000000000E+00 0.  1.
        -11    1    4    4    0    0  0.38751377758E-01 -0.83962014320E-01  0.68524560421E-01  0.11509633195E+00  0.51100000000E-03 0.  1.
         11    1    4    4    0    0 -0.12081518020E-01 -0.10473277786E-01  0.18463714659E-01  0.24429950988E-01  0.51100000000E-03 0. -1.
</event>
<event>
 8    1  0.2190512E+004  0.1043930E+01  0.7957747E-01            NaN
         13   -1    0    0    0    0  0.00000000000E+00  0.00000000000E+00  0.74505805969E-08  0.10566000000E+00  0.10566000000E+00 0.  1.
     999900   -1    0    0    0    0 -0.00000000000E+00 -0.00000000000E+00 -0.74505805969E-08  0.93827000000E+00  0.93827000000E+00 0. -1.
     999902    2    1    2    0    0 -0.86431762190E-03  0.13156396292E-01  0.46155212645E-02  0.10299607178E+01  0.10298659813E+01 0.  0.
     999903    2    3    3    0    0  0.10814691064E+00  0.42873302516E-01  0.65018966097E-01  0.14068285429E+00  0.45059129907E-01 0.  0.
         14    1    1    2    0    0  0.86431762190E-03 -0.13156396292E-01 -0.46155212645E-02  0.13969282189E-01  0.00000000000E+00 0. -1.
     999901    1    3    3    0    0 -0.10901122827E+00 -0.29716906224E-01 -0.60403444833E-01  0.88927786352E+00  0.88000000000E+00 0. -1.
        -11    1    4    4    0    0  0.76768259884E-01  0.22009075906E-01  0.20688409138E-01  0.82498706302E-01  0.51100000000E-03 0. -1.
         11    1    4    4    0    0  0.31378650759E-01  0.20864226610E-01  0.44330556960E-01  0.58184147986E-01  0.51100000000E-03 0.  1.
</event>
<event>
 8    1  0.2190512E+004  0.1043930E+01  0.7957747E-01            NaN
         13   -1    0    0    0    0  0.00000000000E+00  0.00000000000E+00  0.74505805969E-08  0.10566000000E+00  0.10566000000E+00 0.  1.
     999900   -1    0    0    0    0 -0.00000000000E+00 -0.00000000000E+00 -0.74505805969E-08  0.93827000000E+00  0.93827000000E+00 0.  1.
     999902    2    1    2    0    0  0.12301452399E-02  0.82305124177E-02  0.10077595209E-01  0.10308604737E+01  0.10307776209E+01 0.  0.
     999903    2    3    3    0    0  0.57413272012E-01 -0.16081820518E-01  0.12051840678E+00  0.14184708455E+00  0.45177430957E-01 0.  0.
         14    1    1    2    0    0 -0.12301452399E-02 -0.82305124177E-02 -0.10077595209E-01  0.13069526280E-01  0.00000000000E+00 0. -1.
     999901    1    3    3    0    0 -0.56183126773E-01  0.24312332936E-01 -0.11044081157E+00  0.88901338917E+00  0.88000000000E+00 0.  1.
        -11    1    4    4    0    0  0.68107614916E-02 -0.60703723408E-02  0.66607896204E-01  0.67231754775E-01  0.51100000000E-03 0. -1.
         11    1    4    4    0    0  0.50602510521E-01 -0.10011448178E-01  0.53910510576E-01  0.74615329773E-01  0.51100000000E-03 0.  1.
</event>
<event>
 8    1  0.2190512E+004  0.1043930E+01  0.7957747E-01            NaN
         13   -1    0    0    0    0  0.00000000000E+00  0.00000000000E+00  0.74505805969E-08  0.10566000000E+00  0.10566000000E+00 0.  1.
     999900   -1    0    0    0    0 -0.00000000000E+00 -0.00000000000E+00 -0.74505805969E-08  0.93827000000E+00  0.93827000000E+00 0.  1.
     999902    2    1    2    0    0  0.62808034219E-03 -0.30217485389E-02  0.13149602994E-01  0.10304230570E+01  0.10303345277E+01 0.  0.
     999903    2    3    3    0    0  0.11647098265E+00 -0.15183569703E-01 -0.60103258871E-01  0.13973036611E+00  0.46001553215E-01 0.  0.
         14    1    1    2    0    0 -0.62808034219E-03  0.30217485389E-02 -0.13149602994E-01  0.13506942957E-01  0.00000000000E+00 0. -1.
     999901    1    3    3    0    0 -0.11584290231E+00  0.12161821164E-01  0.73252861864E-01  0.89069269093E+00  0.88000000000E+00 0.  1.
        -11    1    4    4    0    0  0.98203272897E-01 -0.59438823522E-02 -0.29141764220E-01  0.10260953215E+00  0.51100000000E-03 0. -1.
         11    1    4    4    0    0  0.18267709753E-01 -0.92396873510E-02 -0.30961494651E-01  0.37120833961E-01  0.51100000000E-03 0.  1.
</event>
<event>
 8    1  0.2190512E+004  0.1043930E+01  0.7957747E-01            NaN
         13   -1    0    0    0    0  0.00000000000E+00  0.00000000000E+00  0.74505805969E-08  0.10566000000E+00  0.10566000000E+00 0. -1.
     999900   -1    0    0    0    0 -0.00000000000E+00 -0.00000000000E+00 -0.74505805969E-08  0.93827000000E+00  0.93827000000E+00 0.  1.
     999902    2    1    2    0    0 -0.44346150348E-02  0.11306524551E-01  0.67717412433E-02  0.10300246130E+01  0.10299307470E+01 0.  0.
     999903    2    3    3    0    0  0.11759695858E+00 -0.45157387636E-01  0.38452169625E-01  0.13924768926E+00  0.45200832845E-01 0.  0.
         14    1    1    2    0    0  0.44346150348E-02 -0.11306524551E-01 -0.67717412433E-02  0.13905386992E-01  0.00000000000E+00 0.  1.
     999901    1    3    3    0    0 -0.12203157362E+00  0.56463912186E-01 -0.31680428382E-01  0.89077692375E+00  0.88000000000E+00 0. -1.
        -11    1    4    4    0    0  0.19138290294E-01  0.92376411626E-02  0.79936830805E-02  0.22710531914E-01  0.51100000000E-03 0. -1.
         11    1    4    4    0    0  0.98458668287E-01 -0.54395028798E-01  0.30458486545E-01  0.11653715735E+00  0.51100000000E-03 0.  1.
</event>
<event>
 8    1  0.2190512E+004  0.1043930E+01  0.7957747E-01            NaN
         13   -1    0    0    0    0  0.00000000000E+00  0.00000000000E+00  0.74505805969E-08  0.10566000000E+00  0.10566000000E+00 0. -1.
     999900   -1    0    0    0    0 -0.00000000000E+00 -0.00000000000E+00 -0.74505805969E-08  0.93827000000E+00  0.93827000000E+00 0.  1.
     999902    2    1    2    0    0  0.12433011251E-02  0.91709610892E-02 -0.10968046684E-01  0.10295790288E+01  0.10294790072E+01 0.  0.
     999903    2    3    3    0    0  0.10968221767E+00 -0.17964690982E-01 -0.72984338808E-01  0.14034263580E+00  0.44904595721E-01 0.  0.
         14    1    1    2    0    0 -0.12433011251E-02 -0.91709610892E-02  0.10968046684E-01  0.14350971154E-01  0.00000000000E+00 0. -1.
     999901    1    3    3    0    0 -0.10843891654E+00  0.27135652071E-01  0.62016292124E-01  0.88923639305E+00  0.88000000000E+00 0.  1.
        -11    1    4    4    0    0  0.65293505259E-01 -0.31959644775E-01 -0.37403970766E-01  0.81755604537E-01  0.51100000000E-03 0. -1.
         11    1    4    4    0    0  0.44388712408E-01  0.13994953793E-01 -0.35580368042E-01  0.58587031260E-01  0.51100000000E-03 0.  1.
</event>
<event>
 8    1  0.2190512E+004  0.1043930E+01  0.7957747E-01            NaN
         13   -1    0    0    0    0  0.00000000000E+00  0.00000000000E+00  0.74505805969E-08  0.10566000000E+00  0.10566000000E+00 0. -1.
     999900   -1    0    0    0    0 -0.00000000000E+00 -0.00000000000E+00 -0.74505805969E-08  0.93827000000E+00  0.93827000000E+00 0. -1.
     999902    2    1    2    0    0 -0.72693575096E-02  0.20147026927E-02 -0.11526742281E-01  0.10301543558E+01  0.10300622449E+01 0.  0.
     999903    2    3    3    0    0  0.58497031818E-01  0.11825797176E+00  0.96689383900E-02  0.13982465707E+00  0.45283504038E-01 0.  0.
         14    1    1    2    0    0  0.72693575096E-02 -0.20147026927E-02  0.11526742281E-01  0.13775644201E-01  0.00000000000E+00 0. -1.
     999901    1    3    3    0    0 -0.65766389327E-01 -0.11624326907E+00 -0.21195680671E-01  0.89032969873E+00  0.88000000000E+00 0.  1.
        -11    1    4    4    0    0  0.41414447051E-01  0.48309094672E-01 -0.11731117541E-01  0.64705527525E-01  0.51100000000E-03 0. -1.
         11    1    4    4    0    0  0.17082584767E-01  0.69948877087E-01  0.21400055931E-01  0.75119129540E-01  0.51100000000E-03 0.  1.
</event>
<event>
 8    1  0.2190512E+004  0.1043930E+01  0.7957747E-01            NaN
         13   -1    0    0    0    0  0.00000000000E+00  0.00000000000E+00  0.74505805969E-08  0.10566000000E+00  0.10566000000E+00 0. -1.
     999900   -1    0    0    0    0 -0.00000000000E+00 -0.00000000000E+00 -0.74505805969E-08  0.93827000000E+00  0.93827000000E+00 0.  1.
     999902    2    1    2    0    0  0.12729040193E-01  0.10000390768E-02  0.37704846837E-02  0.10306166572E+01  0.10305306638E+01 0.  0.
     999903    2    3    3    0    0 -0.15841395497E-02 -0.33976649387E-01  0.12940652971E+00  0.14089049050E+00  0.44126615329E-01 0.  0.
         14    1    1    2    0    0 -0.12729040193E-01 -0.10000390768E-02 -0.37704846837E-02  0.13313342824E-01  0.00000000000E+00 0. -1.
     999901    1    3    3    0    0  0.14313179743E-01  0.34976688464E-01 -0.12563604503E+00  0.88972616667E+00  0.88000000000E+00 0.  1.
        -11    1    4    4    0    0 -0.16270754266E-01 -0.34451512019E-01  0.11084294639E+00  0.11720948771E+00  0.51100000000E-03 0.  1.
         11    1    4    4    0    0  0.14686614716E-01  0.47486263157E-03  0.18563583323E-01  0.23681002790E-01  0.51100000000E-03 0. -1.
</event>
<event>
 8    1  0.2190512E+004  0.1043930E+01  0.7957747E-01            NaN
         13   -1    0    0    0    0  0.00000000000E+00  0.00000000000E+00  0.74505805969E-08  0.10566000000E+00  0.10566000000E+00 0. -1.
     999900   -1    0    0    0    0 -0.00000000000E+00 -0.00000000000E+00 -0.74505805969E-08  0.93827000000E+00  0.93827000000E+00 0.  1.
     999902    2    1    2    0    0  0.50760264724E-02  0.73003438800E-02 -0.11008945895E-01  0.10297787472E+01  0.10296815091E+01 0.  0.
     999903    2    3    3    0    0  0.88315174435E-02  0.12944621760E+00 -0.31545644241E-01  0.14109687267E+00  0.45594745909E-01 0.  0.
         14    1    1    2    0    0 -0.50760264724E-02 -0.73003438800E-02  0.11008945895E-01  0.14151252780E-01  0.00000000000E+00 0. -1.
     999901    1    3    3    0    0 -0.37554909712E-02 -0.12214587372E+00  0.20536698346E-01  0.88868187455E+00  0.88000000000E+00 0. -1.
        -11    1    4    4    0    0 -0.31226200213E-02  0.74885290982E-01  0.37097554408E-02  0.75043860293E-01  0.51100000000E-03 0.  1.
         11    1    4    4    0    0  0.11954137465E-01  0.54560926619E-01 -0.35255399682E-01  0.66053012375E-01  0.51100000000E-03 0. -1.
</event>
<event>
 8    1  0.2190512E+004  0.1043930E+01  0.7957747E-01            NaN
         13   -1    0    0    0    0  0.00000000000E+00  0.00000000000E+00  0.74505805969E-08  0.10566000000E+00  0.10566000000E+00 0. -1.
     999900   -1    0    0    0    0 -0.00000000000E+00 -0.00000000000E+00 -0.74505805969E-08  0.93827000000E+00  0.93827000000E+00 0. -1.
     999902    2    1    2    0    0 -0.44976023628E-02  0.11374927071E-01  0.59858534118E-02  0.10303120767E+01  0.10302220769E+01 0.  0.
     999903    2    3    3    0    0 -0.59343839896E-01 -0.11705494940E+00  0.74323948103E-02  0.13929892564E+00  0.46102035529E-01 0.  0.
         14    1    1    2    0    0  0.44976023628E-02 -0.11374927071E-01 -0.59858534118E-02  0.13617923261E-01  0.00000000000E+00 0.  1.
     999901    1    3    3    0    0  0.54846237534E-01  0.12842987647E+00 -0.14465413984E-02  0.89101315110E+00  0.88000000000E+00 0.  1.
        -11    1    4    4    0    0 -0.22953923039E-01 -0.98116737278E-02  0.74245237139E-02  0.26048727370E-01  0.51100000000E-03 0. -1.
         11    1    4    4    0    0 -0.36389916857E-01 -0.10724327567E+00  0.78710963438E-05  0.11325019827E+00  0.51100000000E-03 0.  1.
</event>
<event>
 8    1  0.2190512E+004  0.1043930E+01  0.7957747E-01            NaN
         13   -1    0    0    0    0  0.00000000000E+00  0.00000000000E+00  0.74505805969E-08  0.10566000000E+00  0.10566000000E+00 0. -1.
     999900   -1    0    0    0    0 -0.00000000000E+00 -0.00000000000E+00 -0.74505805969E-08  0.93827000000E+00  0.93827000000E+00 0.  1.
     999902    2    1    2    0    0 -0.24139452221E-03  0.83354827206E-02 -0.11630259858E-01  0.10296191130E+01  0.10295196532E+01 0.  0.
     999903    2    3    3    0    0  0.21116455507E-01  0.13172568077E+00 -0.39852675372E-02  0.14072106220E+00  0.44597929575E-01 0.  0.
         14    1    1    2    0    0  0.24139452221E-03 -0.83354827206E-02  0.11630259858E-01  0.14310887040E-01  0.00000000000E+00 0. -1.
     999901    1    3    3    0    0 -0.21357850030E-01 -0.12339019805E+00 -0.76449923208E-02  0.88889805076E+00  0.88000000000E+00 0. -1.
        -11    1    4    4    0    0  0.30217408224E-01  0.12444353227E+00 -0.81830400982E-02  0.12832189116E+00  0.51100000000E-03 0.  1.
         11    1    4    4    0    0 -0.91009527165E-02  0.72821484968E-02  0.41977725610E-02  0.12399171043E-01  0.51100000000E-03 0. -1.
</event>
<event>
 8    1  0.2190512E+004  0.1043930E+01  0.7957747E-01            NaN
         13   -1    0    0    0    0  0.00000000000E+00  0.00000000000E+00  0.74505805969E-08  0.10566000000E+00  0.10566000000E+00 0. -1.
     999900   -1    0    0    0    0 -0.00000000000E+00 -0.00000000000E+00 -0.74505805969E-08  0.93827000000E+00  0.93827000000E+00 0. -1.
     999902    2    1    2    0    0  0.78561128988E-02 -0.11968679361E-01  0.16963428953E-02  0.10295131566E+01  0.10294122081E+01 0.  0.
     999903    2    3    3    0    0 -0.82315969857E-02 -0.55813238257E-01 -0.11986392362E+00  0.13993007548E+00  0.45057619597E-01 0.  0.
         14    1    1    2    0    0 -0.78561128988E-02  0.11968679361E-01 -0.16963428953E-02  0.14416843439E-01  0.00000000000E+00 0. -1.
     999901    1    3    3    0    0  0.16087709885E-01  0.43844558897E-01  0.12156026652E+00  0.88958308108E+00  0.88000000000E+00 0.  1.
        -11    1    4    4    0    0 -0.20724984812E-01 -0.40811076200E-01 -0.10743663618E+00  0.11678168029E+00  0.51100000000E-03 0.  1.
         11    1    4    4    0    0  0.12493387826E-01 -0.15002162057E-01 -0.12427287441E-01  0.23148395191E-01  0.51100000000E-03 0. -1.
</event>
<event>
 8    1  0.2190512E+004  0.1043930E+01  0.7957747E-01            NaN
         13   -1    0    0    0    0  0.00000000000E+00  0.00000000000E+00  0.74505805969E-08  0.10566000000E+00  0.10566000000E+00 0. -1.
     999900   -1    0    0    0    0 -0.00000000000E+00 -0.00000000000E+00 -0.74505805969E-08  0.93827000000E+00  0.93827000000E+00 0.  1.
     999902    2    1    2    0    0 -0.36787928158E-03  0.43145532784E-03 -0.14318145484E-01  0.10296006323E+01  0.10295009137E+01 0.  0.
     999903    2    3    3    0    0  0.70007545062E-01  0.73741380934E-01 -0.86473694039E-01  0.14081861811E+00  0.44870210807E-01 0.  0.
         14    1    1    2    0    0  0.36787928158E-03 -0.43145532784E-03  0.14318145484E-01  0.14329367710E-01  0.00000000000E+00 0. -1.
     999901    1    3    3    0    0 -0.70375424344E-01 -0.73309925606E-01  0.72155548555E-01  0.88878201418E+00  0.88000000000E+00 0. -1.
        -11    1    4    4    0    0  0.15841375761E-01  0.15824931616E-01  0.14153333080E-02  0.22441968185E-01  0.51100000000E-03 0.  1.
         11    1    4    4    0    0  0.54166169301E-01  0.57916449319E-01 -0.87889027347E-01  0.11837664992E+00  0.51100000000E-03 0. -1.
</event>
<event>
 8    1  0.2190512E+004  0.1043930E+01  0.7957747E-01            NaN
         13   -1    0    0    0    0  0.00000000000E+00  0.00000000000E+00  0.74505805969E-08  0.10566000000E+00  0.10566000000E+00 0. -1.
     999900   -1    0    0    0    0 -0.00000000000E+00 -0.00000000000E+00 -0.74505805969E-08  0.93827000000E+00  0.93827000000E+00 0. -1.
     999902    2    1    2    0    0  0.14362715443E-01 -0.51388888552E-02  0.18363927948E-03  0.10286745257E+01  0.10285613984E+01 0.  0.
     999903    2    3    3    0    0 -0.22291538526E-01 -0.10811654420E+00 -0.71752261121E-01  0.13899890748E+00  0.44566910216E-01 0.  0.
         14    1    1    2    0    0 -0.14362715443E-01  0.51388888552E-02 -0.18363927948E-03  0.15255474328E-01  0.00000000000E+00 0.  1.
     999901    1    3    3    0    0  0.36654253969E-01  0.10297765534E+00  0.71935900400E-01  0.88967561819E+00  0.88000000000E+00 0.  1.
        -11    1    4    4    0    0 -0.30824015349E-02 -0.34144472564E-01 -0.47956752012E-01  0.58953010021E-01  0.51100000000E-03 0. -1.
         11    1    4    4    0    0 -0.19209136991E-01 -0.73972071635E-01 -0.23795509109E-01  0.80045897463E-01  0.51100000000E-03 0.  1.
</event>
<event>
 8    1  0.2190512E+004  0.1043930E+01  0.7957747E-01            NaN
         13   -1    0    0    0    0  0.00000000000E+00  0.00000000000E+00  0.74505805969E-08  0.10566000000E+00  0.10566000000E+00 0.  1.
     999900   -1    0    0    0    0 -0.00000000000E+00 -0.00000000000E+00 -0.74505805969E-08  0.93827000000E+00  0.93827000000E+00 0. -1.
     999902    2    1    2    0    0  0.17641792978E-02  0.10805244015E-01 -0.95016658854E-02  0.10294335425E+01  0.10293314680E+01 0.  0.
     999903    2    3    3    0    0  0.45117520149E-01 -0.28399669881E-01 -0.12186303601E+00  0.14036570762E+00  0.44830798072E-01 0.  0.
         14    1    1    2    0    0 -0.17641792978E-02 -0.10805244015E-01  0.95016658854E-02  0.14496457547E-01  0.00000000000E+00 0.  1.
     999901    1    3    3    0    0 -0.43353340851E-01  0.39204913895E-01  0.11236137013E+00  0.88906783483E+00  0.88000000000E+00 0.  1.
        -11    1    4    4    0    0  0.43823769166E-01 -0.63851003874E-02 -0.59201154508E-01  0.73934633745E-01  0.51100000000E-03 0. -1.
         11    1    4    4    0    0  0.12937509832E-02 -0.22014569494E-01 -0.62661881505E-01  0.66431073876E-01  0.51100000000E-03 0.  1.
</event>
<event>
 8    1  0.2190512E+004  0.1043930E+01  0.7957747E-01            NaN
         13   -1    0    0    0    0  0.00000000000E+00  0.00000000000E+00  0.74505805969E-08  0.10566000000E+00  0.10566000000E+00 0. -1.
     999900   -1    0    0    0    0 -0.00000000000E+00 -0.00000000000E+00 -0.74505805969E-08  0.93827000000E+00  0.93827000000E+00 0. -1.
     999902    2    1    2    0    0  0.94161529843E-02  0.59681784282E-02 -0.59228646854E-02  0.10313060776E+01  0.10312288118E+01 0.  0.
     999903    2    3    3    0    0  0.51394682039E-01  0.69268733357E-01  0.10139053077E+00  0.14153907326E+00  0.48100922725E-01 0.  0.
         14    1    1    2    0    0 -0.94161529843E-02 -0.59681784282E-02  0.59228646854E-02  0.12623922404E-01  0.00000000000E+00 0. -1.
     999901    1    3    3    0    0 -0.41978529055E-01 -0.63300554929E-01 -0.10731339546E+00  0.88976700433E+00  0.88000000000E+00 0. -1.
        -11    1    4    4    0    0  0.33889212883E-01  0.99624507105E-02  0.49503919632E-01  0.60816349397E-01  0.51100000000E-03 0. -1.
         11    1    4    4    0    0  0.17505469156E-01  0.59306282647E-01  0.51886611140E-01  0.80722723866E-01  0.51100000000E-03 0.  1.
</event>
<event>
 8    1  0.2190512E+004  0.1043930E+01  0.7957747E-01            NaN
         13   -1    0    0    0    0  0.00000000000E+00  0.00000000000E+00  0.74505805969E-08  0.10566000000E+00  0.10566000000E+00 0.  1.
     999900   -1    0    0    0    0 -0.00000000000E+00 -0.00000000000E+00 -0.74505805969E-08  0.93827000000E+00  0.93827000000E+00 0. -1.
     999902    2    1    2    0    0  0.95638530978E-02 -0.98141523307E-02 -0.13027050131E-02  0.10301647571E+01  0.10300727862E+01 0.  0.
     999903    2    3    3    0    0  0.85964177609E-01 -0.99367857672E-01 -0.29141211325E-01  0.14189010465E+00  0.44941969590E-01 0.  0.
         14    1    1    2    0    0 -0.95638530978E-02  0.98141523307E-02  0.13027050131E-02  0.13765242911E-01  0.00000000000E+00 0.  1.
     999901    1    3    3    0    0 -0.76400324512E-01  0.89553705342E-01  0.27838506312E-01  0.88827465244E+00  0.88000000000E+00 0.  1.
        -11    1    4    4    0    0  0.36851292393E-01 -0.46748757159E-01  0.93593490672E-02  0.60260456212E-01  0.51100000000E-03 0. -1.
         11    1    4    4    0    0  0.49112885216E-01 -0.52619100514E-01 -0.38500560393E-01  0.81629648441E-01  0.51100000000E-03 0.  1.
</event>
<event>
 8    1  0.2190512E+004  0.1043930E+01  0.7957747E-01            NaN
         13   -1    0    0    0    0  0.00000000000E+00  0.00000000000E+00  0.74505805969E-08  0.10566000000E+00  0.10566000000E+00 0. -1.
     999900   -1    0    0    0    0 -0.00000000000E+00 -0.00000000000E+00 -0.74505805969E-08  0.93827000000E+00  0.93827000000E+00 0.  1.
     999902    2    1    2    0    0 -0.15302727662E-02  0.90544149283E-02 -0.10310107902E-01  0.10301233896E+01  0.10300308614E+01 0.  0.
     999903    2    3    3    0    0  0.13325701473E-01  0.88283939677E-01 -0.10057570435E+00  0.14184083580E+00  0.45074627801E-01 0.  0.
         14    1    1    2    0    0  0.15302727662E-02 -0.90544149283E-02  0.10310107902E-01  0.13806610351E-01  0.00000000000E+00 0. -1.
     999901    1    3    3    0    0 -0.14855974240E-01 -0.79229524749E-01  0.90265596448E-01  0.88828255384E+00  0.88000000000E+00 0. -1.
        -11    1    4    4    0    0  0.21316002890E-01  0.42475385411E-01 -0.74939356394E-01  0.88739498549E-01  0.51100000000E-03 0.  1.
         11    1    4    4    0    0 -0.79903014172E-02  0.45808554267E-01 -0.25636347956E-01  0.53101337255E-01  0.51100000000E-03 0. -1.
</event>
<event>
 8    1  0.2190512E+004  0.1043930E+01  0.7957747E-01            NaN
         13   -1    0    0    0    0  0.00000000000E+00  0.00000000000E+00  0.74505805969E-08  0.10566000000E+00  0.10566000000E+00 0.  1.
     999900   -1    0    0    0    0 -0.00000000000E+00 -0.00000000000E+00 -0.74505805969E-08  0.93827000000E+00  0.93827000000E+00 0. -1.
     999902    2    1    2    0    0 -0.46246665380E-02 -0.24621577130E-02 -0.11610089870E-01  0.10311924984E+01  0.10311138272E+01 0.  0.
     999903    2    3    3    0    0  0.83297939748E-01  0.43288058837E-01 -0.95737449152E-01  0.14164155570E+00  0.45653787649E-01 0.  0.
         14    1    1    2    0    0  0.46246665380E-02  0.24621577130E-02  0.11610089870E-01  0.12737501639E-01  0.00000000000E+00 0.  1.
     999901    1    3    3    0    0 -0.87922606286E-01 -0.45750216550E-01  0.84127359282E-01  0.88955094266E+00  0.88000000000E+00 0.  1.
        -11    1    4    4    0    0  0.42472164309E-01  0.46562591597E-01 -0.64013574388E-01  0.89832947766E-01  0.51100000000E-03 0.  1.
         11    1    4    4    0    0  0.40825775439E-01 -0.32745327603E-02 -0.31723874764E-01  0.51808607934E-01  0.51100000000E-03 0. -1.
</event>
<event>
 8    1  0.2190512E+004  0.1043930E+01  0.7957747E-01            NaN
         13   -1    0    0    0    0  0.00000000000E+00  0.00000000000E+00  0.74505805969E-08  0.10566000000E+00  0.10566000000E+00 0.  1.
     999900   -1    0    0    0    0 -0.00000000000E+00 -0.00000000000E+00 -0.74505805969E-08  0.93827000000E+00  0.93827000000E+00 0.  1.
     999902    2    1    2    0    0  0.14013640441E-01  0.15209148009E-02  0.59348890969E-02  0.10286356151E+01  0.10285219057E+01 0.  0.
     999903    2    3    3    0    0 -0.12766750865E+00 -0.15137053514E-01 -0.11693357725E-01  0.13697324011E+00  0.45790946027E-01 0.  0.
         14    1    1    2    0    0 -0.14013640441E-01 -0.15209148009E-02 -0.59348890969E-02  0.15294384880E-01  0.00000000000E+00 0. -1.
     999901    1    3    3    0    0  0.14168114909E+00  0.16657968315E-01  0.17628246822E-01  0.89166237501E+00  0.88000000000E+00 0. -1.
        -11    1    4    4    0    0 -0.57620415619E-01  0.66862117344E-02  0.13206236141E-01  0.59493558622E-01  0.51100000000E-03 0.  1.
         11    1    4    4    0    0 -0.70047093032E-01 -0.21823265249E-01 -0.24899593866E-01  0.77479681492E-01  0.51100000000E-03 0. -1.
</event>
<event>
 8    1  0.2190512E+004  0.1043930E+01  0.7957747E-01            NaN
         13   -1    0    0    0    0  0.00000000000E+00  0.00000000000E+00  0.74505805969E-08  0.10566000000E+00  0.10566000000E+00 0. -1.
     999900   -1    0    0    0    0 -0.00000000000E+00 -0.00000000000E+00 -0.74505805969E-08  0.93827000000E+00  0.93827000000E+00 0. -1.
     999902    2    1    2    0    0  0.10614611875E-02 -0.88644608531E-02  0.56612145771E-02  0.10333585897E+01  0.10333045147E+01 0.  0.
     999903    2    3    3    0    0 -0.23811042095E-01 -0.83675623804E-01  0.10658692253E+00  0.14408846757E+00  0.42803489191E-01 0.  0.
         14    1    1    2    0    0 -0.10614611875E-02  0.88644608531E-02 -0.56612145771E-02  0.10571410339E-01  0.00000000000E+00 0. -1.
     999901    1    3    3    0    0  0.24872503283E-01  0.74811162951E-01 -0.10092570795E+00  0.88927012209E+00  0.88000000000E+00 0.  1.
        -11    1    4    4    0    0 -0.22612631848E-01 -0.60846384150E-01  0.10178538934E+00  0.12072340364E+00  0.51100000000E-03 0.  1.
         11    1    4    4    0    0 -0.11984102472E-02 -0.22829239654E-01  0.48015331936E-02  0.23365063927E-01  0.51100000000E-03 0. -1.
</event>
<event>
 8    1  0.2190512E+004  0.1043930E+01  0.7957747E-01            NaN
         13   -1    0    0    0    0  0.00000000000E+00  0.00000000000E+00  0.74505805969E-08  0.10566000000E+00  0.10566000000E+00 0. -1.
     999900   -1    0    0    0    0 -0.00000000000E+00 -0.00000000000E+00 -0.74505805969E-08  0.93827000000E+00  0.93827000000E+00 0. -1.
     999902    2    1    2    0    0 -0.12609889270E-02 -0.46397775367E-02 -0.11354169606E-01  0.10315997609E+01  0.10315260694E+01 0.  0.
     999903    2    3    3    0    0  0.87164539658E-02  0.54159705751E-01 -0.12423073342E+00  0.14238772362E+00  0.42798813218E-01 0.  0.
         14    1    1    2    0    0  0.12609889270E-02  0.46397775367E-02  0.11354169606E-01  0.12330239094E-01  0.00000000000E+00 0. -1.
     999901    1    3    3    0    0 -0.99774428928E-02 -0.58799483288E-01  0.11287656382E+00  0.88921203729E+00  0.88000000000E+00 0. -1.
        -11    1    4    4    0    0  0.21051125010E-01  0.49285098604E-01 -0.80678410088E-01  0.96857822523E-01  0.51100000000E-03 0. -1.
         11    1    4    4    0    0 -0.12334671045E-01  0.48746071475E-02 -0.43552323336E-01  0.45529901094E-01  0.51100000000E-03 0.  1.
</event>
<event>
 8    1  0.2190512E+004  0.1043930E+01  0.7957747E-01            NaN
         13   -1    0    0    0    0  0.00000000000E+00  0.00000000000E+00  0.74505805969E-08  0.10566000000E+00  0.10566000000E+00 0. -1.
     999900   -1    0    0    0    0 -0.00000000000E+00 -0.00000000000E+00 -0.74505805969E-08  0.93827000000E+00  0.93827000000E+00 0.  1.
     999902    2    1    2    0    0  0.17191890788E-02 -0.75753777939E-03  0.15733493660E-01  0.10280847390E+01  0.10279626249E+01 0.  0.
     999903    2    3    3    0    0  0.80299945827E-01  0.10337021748E+00  0.75051905587E-02  0.13843018257E+00  0.44419639779E-01 0.  0.
         14    1    1    2    0    0 -0.17191890788E-02  0.75753777939E-03 -0.15733493660E-01  0.15845261037E-01  0.00000000000E+00 0.  1.
     999901    1    3    3    0    0 -0.78580756748E-01 -0.10412775526E+00  0.82283031011E-02  0.88965455640E+00  0.88000000000E+00 0. -1.
        -11    1    4    4    0    0  0.62883258233E-01  0.68723973892E-01 -0.13819561657E-01  0.94172873796E-01  0.51100000000E-03 0.  1.
         11    1    4    4    0    0  0.17416687594E-01  0.34646243588E-01  0.21324752215E-01  0.44257308770E-01  0.51100000000E-03 0. -1.
</event>
<event>
 8    1  0.2190512E+004  0.1043930E+01  0.7957747E-01            NaN
         13   -1    0    0    0    0  0.00000000000E+00  0.00000000000E+00  0.74505805969E-08  0.10566000000E+00  0.10566000000E+00 0. -1.
     999900   -1    0    0    0    0 -0.00000000000E+00 -0.00000000000E+00 -0.74505805969E-08  0.93827000000E+00  0.93827000000E+00 0.  1.
     999902    2    1    2    0    0 -0.31779078667E-02 -0.11564765607E-01  0.37678032072E-02  0.10313586340E+01  0.10312820141E+01 0.  0.
     999903    2    3    3    0    0  0.12251663665E-01 -0.57147307545E-01 -0.12091263821E+00  0.14126815980E+00  0.43828174387E-01 0.  0.
         14    1    1    2    0    0  0.31779078667E-02  0.11564765607E-01 -0.37678032072E-02  0.12571365995E-01  0.00000000000E+00 0.  1.
     999901    1    3    3    0    0 -0.15429571532E-01  0.45582541937E-01  0.12468044142E+00  0.89009047421E+00  0.88000000000E+00 0. -1.
        -11    1    4    4    0    0  0.45780158766E-02 -0.51172668879E-01 -0.57495763677E-01  0.77107873991E-01  0.51100000000E-03 0. -1.
         11    1    4    4    0    0  0.76736477885E-02 -0.59746386654E-02 -0.63416874536E-01  0.64160285804E-01  0.51100000000E-03 0.  1.
</event>
<event>
 8    1  0.2190512E+004  0.1043930E+01  0.7957747E-01            NaN
         13   -1    0    0    0    0  0.00000000000E+00  0.00000000000E+00  0.74505805969E-08  0.10566000000E+00  0.10566000000E+00 0.  1.
     999900   -1    0    0    0    0 -0.00000000000E+00 -0.00000000000E+00 -0.74505805969E-08  0.93827000000E+00  0.93827000000E+00 0. -1.
     999902    2    1    2    0    0  0.79499096097E-02 -0.82978389118E-02 -0.59290644019E-02  0.10309990682E+01  0.10309179742E+01 0.  0.
     999903    2    3    3    0    0 -0.10170013417E+00  0.35572623581E-01  0.76042660851E-01  0.13933370867E+00  0.44978520036E-01 0.  0.
         14    1    1    2    0    0 -0.79499096097E-02  0.82978389118E-02  0.59290644019E-02  0.12930931834E-01  0.00000000000E+00 0. -1.
     999901    1    3    3    0    0  0.10965004378E+00 -0.43870462492E-01 -0.81971725253E-01  0.89166535949E+00  0.88000000000E+00 0. -1.
        -11    1    4    4    0    0 -0.92475855169E-01  0.39501476466E-01  0.80042496419E-01  0.12852708970E+00  0.51100000000E-03 0.  1.
         11    1    4    4    0    0 -0.92242790004E-02 -0.39288528856E-02 -0.39998355686E-02  0.10806618974E-01  0.51100000000E-03 0. -1.
</event>
<event>
 8    1  0.2190512E+004  0.1043930E+01  0.7957747E-01            NaN
         13   -1    0    0    0    0  0.00000000000E+00  0.00000000000E+00  0.74505805969E-08  0.10566000000E+00  0.10566000000E+00 0. -1.
     999900   -1    0    0    0    0 -0.00000000000E+00 -0.00000000000E+00 -0.74505805969E-08  0.93827000000E+00  0.93827000000E+00 0. -1.
     999902    2    1    2    0    0  0.35599657398E-02 -0.82309423846E-02 -0.11942787963E-01  0.10289950761E+01  0.10288866870E+01 0.  0.
     999903    2    3    3    0    0 -0.52047538236E-01 -0.82648357091E-01 -0.91056170981E-01  0.14057565176E+00  0.43938484587E-01 0.  0.
         14    1    1    2    0    0 -0.35599657398E-02  0.82309423846E-02  0.11942787963E-01  0.14934923935E-01  0.00000000000E+00 0. -1.
     999901    1    3    3    0    0  0.55607503976E-01  0.74417414706E-01  0.79113383018E-01  0.88841942431E+00  0.88000000000E+00 0.  1.
        -11    1    4    4    0    0 -0.39097171037E-01 -0.61440120549E-01 -0.89896103494E-01  0.11569376708E+00  0.51100000000E-03 0.  1.
         11    1    4    4    0    0 -0.12950367199E-01 -0.21208236542E-01 -0.11600674873E-02  0.24881884683E-01  0.51100000000E-03 0. -1.
</event>
<event>
 8    1  0.2190512E+004  0.1043930E+01  0.7957747E-01            NaN
         13   -1    0    0    0    0  0.00000000000E+00  0.00000000000E+00  0.74505805969E-08  0.10566000000E+00  0.10566000000E+00 0. -1.
     999900   -1    0    0    0    0 -0.00000000000E+00 -0.00000000000E+00 -0.74505805969E-08  0.93827000000E+00  0.93827000000E+00 0.  1.
     999902    2    1    2    0    0  0.12580007336E-01  0.33798957525E-02  0.49134746466E-02  0.10300079846E+01  0.10299138924E+01 0.  0.
     999903    2    3    3    0    0 -0.13087191765E+00 -0.64658010273E-03 -0.21949538999E-02  0.13835491470E+00  0.44826194382E-01 0.  0.
         14    1    1    2    0    0 -0.12580007336E-01 -0.33798957525E-02 -0.49134746466E-02  0.13922015407E-01  0.00000000000E+00 0.  1.
     999901    1    3    3    0    0  0.14345192499E+00  0.40264758553E-02  0.71084285465E-02  0.89165306989E+00  0.88000000000E+00 0.  1.
        -11    1    4    4    0    0 -0.51269786137E-01  0.18318250457E-01  0.10773318084E-01  0.55502024953E-01  0.51100000000E-03 0.  1.
         11    1    4    4    0    0 -0.79602131518E-01 -0.18964830560E-01 -0.12968271984E-01  0.82852889748E-01  0.51100000000E-03 0. -1.
</event>
<event>
 8    1  0.2190512E+004  0.1043930E+01  0.7957747E-01            NaN
         13   -1    0    0    0    0  0.00000000000E+00  0.00000000000E+00  0.74505805969E-08  0.10566000000E+00  0.10566000000E+00 0. -1.
     999900   -1    0    0    0    0 -0.00000000000E+00 -0.00000000000E+00 -0.74505805969E-08  0.93827000000E+00  0.93827000000E+00 0. -1.
     999902    2    1    2    0    0 -0.18754992858E-02 -0.19318115076E-02 -0.13788269348E-01  0.10298813074E+01  0.10297854832E+01 0.  0.
     999903    2    3    3    0    0  0.41050860159E-01 -0.12438155932E+00 -0.23017255655E-01  0.14031861296E+00  0.44761296528E-01 0.  0.
         14    1    1    2    0    0  0.18754992858E-02  0.19318115076E-02  0.13788269348E-01  0.14048692640E-01  0.00000000000E+00 0. -1.
     999901    1    3    3    0    0 -0.42926359444E-01  0.12244974781E+00  0.92289863067E-02  0.88956269440E+00  0.88000000000E+00 0. -1.
        -11    1    4    4    0    0  0.50143818440E-01 -0.10853035928E+00 -0.24271899039E-01  0.12199437535E+00  0.51100000000E-03 0. -1.
         11    1    4    4    0    0 -0.90929582810E-02 -0.15851200042E-01  0.12546433840E-02  0.18324237612E-01  0.51100000000E-03 0.  1.
</event>
<event>
 8    1  0.2190512E+004  0.1043930E+01  0.7957747E-01            NaN
         13   -1    0    0    0    0  0.00000000000E+00  0.00000000000E+00  0.74505805969E-08  0.10566000000E+00  0.10566000000E+00 0.  1.
     999900   -1    0    0    0    0 -0.00000000000E+00 -0.00000000000E+00 -0.74505805969E-08  0.93827000000E+00  0.93827000000E+00 0. -1.
     999902    2    1    2    0    0  0.10504123037E-01  0.84334840641E-02 -0.22178627382E-02  0.10302779244E+01  0.10301874695E+01 0.  0.
     999903    2    3    3    0    0  0.54847999283E-01  0.34117791360E-01 -0.11902183558E+00  0.14108209043E+00  0.39568070242E-01 0.  0.
         14    1    1    2    0    0 -0.10504123037E-01 -0.84334840641E-02  0.22178627382E-02  0.13652075643E-01  0.00000000000E+00 0.  1.
     999901    1    3    3    0    0 -0.44343876247E-01 -0.25684307296E-01  0.11680397284E+00  0.88919583393E+00  0.88000000000E+00 0.  1.
        -11    1    4    4    0    0  0.13929107938E-01  0.21239841047E-01 -0.76786721216E-01  0.80880235977E-01  0.51100000000E-03 0. -1.
         11    1    4    4    0    0  0.40918891346E-01  0.12877950314E-01 -0.42235114364E-01  0.60201854453E-01  0.51100000000E-03 0.  1.
</event>
<event>
 8    1  0.2190512E+004  0.1043930E+01  0.7957747E-01            NaN
         13   -1    0    0    0    0  0.00000000000E+00  0.00000000000E+00  0.74505805969E-08  0.10566000000E+00  0.10566000000E+00 0.  1.
     999900   -1    0    0    0    0 -0.00000000000E+00 -0.00000000000E+00 -0.74505805969E-08  0.93827000000E+00  0.93827000000E+00 0. -1.
     999902    2    1    2    0    0 -0.45318590032E-02  0.20161952179E-02 -0.14546813478E-01  0.10285607914E+01  0.10284459583E+01 0.  0.
     999903    2    3    3    0    0  0.11427356034E+00 -0.45779568782E-01  0.41910832089E-01  0.13750151819E+00  0.44675878802E-01 0.  0.
         14    1    1    2    0    0  0.45318590032E-02 -0.20161952179E-02  0.14546813478E-01  0.15369208553E-01  0.00000000000E+00 0.  1.
     999901    1    3    3    0    0 -0.11880541934E+00  0.47795764000E-01 -0.56457645567E-01  0.89105927326E+00  0.88000000000E+00 0. -1.
        -11    1    4    4    0    0  0.23043700514E-01 -0.27857490302E-02  0.26903975329E-01  0.35536706946E-01  0.51100000000E-03 0. -1.
         11    1    4    4    0    0  0.91229859824E-01 -0.42993819752E-01  0.15006856760E-01  0.10196481124E+00  0.51100000000E-03 0.  1.
</event>
<event>
 7    1  0.2190512E+004  0.1043930E+01  0.7957747E-01            NaN
         13   -1    0    0    0    0  0.00000000000E+00  0.00000000000E+00  0.74505805969E-08  0.10566000000E+00  0.10566000000E+00 0. -1.
     999900   -1    0    0    0    0 -0.00000000000E+00 -0.00000000000E+00 -0.74505805969E-08  0.93827000000E+00  0.93827000000E+00 0.  1.
     999903    2    1    2    0    0 -0.63305694871E-01 -0.68676583936E-01 -0.59584683978E-01  0.11915136872E+00  0.43847804046E-01 0.  0.
         14    1    1    2    0    0 -0.16721296319E-01 -0.20380545219E-01 -0.20031395435E-01  0.33109291401E-01  0.00000000000E+00 0.  1.
     999901    1    1    2    0    0  0.80026991191E-01  0.89057129155E-01  0.79616079413E-01  0.89166933988E+00  0.88000000000E+00 0. -1.
        -11    1    3    3    0    0 -0.27159988085E-01 -0.16964963454E-01  0.49122130166E-03  0.32030881304E-01  0.51100000000E-03 0.  1.
         11    1    3    3    0    0 -0.36145706787E-01 -0.51711620482E-01 -0.60075905280E-01  0.87120487419E-01  0.51100000000E-03 0. -1.
</event>
<event>
 8    1  0.2190512E+004  0.1043930E+01  0.7957747E-01            NaN
         13   -1    0    0    0    0  0.00000000000E+00  0.00000000000E+00  0.74505805969E-08  0.10566000000E+00  0.10566000000E+00 0. -1.
     999900   -1    0    0    0    0 -0.00000000000E+00 -0.00000000000E+00 -0.74505805969E-08  0.93827000000E+00  0.93827000000E+00 0. -1.
     999902    2    1    2    0    0  0.99835059812E-02  0.12358003367E-02 -0.90540203593E-02  0.10303958625E+01  0.10303069739E+01 0.  0.
     999903    2    3    3    0    0  0.70736243460E-01  0.11333072227E+00  0.28571101050E-02  0.14112760054E+00  0.45402288572E-01 0.  0.
         14    1    1    2    0    0 -0.99835059812E-02 -0.12358003367E-02  0.90540203593E-02  0.13534137535E-01  0.00000000000E+00 0. -1.
     999901    1    3    3    0    0 -0.60752737479E-01 -0.11209492193E+00 -0.11911130464E-01  0.88926826192E+00  0.88000000000E+00 0. -1.
        -11    1    4    4    0    0  0.47223001086E-01  0.40710907933E-01  0.14223253710E-01  0.63952731946E-01  0.51100000000E-03 0.  1.
         11    1    4    4    0    0  0.23513242374E-01  0.72619814337E-01 -0.11366143605E-01  0.77174868596E-01  0.51100000000E-03 0. -1.
</event>
<event>
 8    1  0.2190512E+004  0.1043930E+01  0.7957747E-01            NaN
         13   -1    0    0    0    0  0.00000000000E+00  0.00000000000E+00  0.74505805969E-08  0.10566000000E+00  0.10566000000E+00 0. -1.
     999900   -1    0    0    0    0 -0.00000000000E+00 -0.00000000000E+00 -0.74505805969E-08  0.93827000000E+00  0.93827000000E+00 0. -1.
     999902    2    1    2    0    0  0.13546410110E-01 -0.33083216472E-02  0.44505013030E-02  0.10292924735E+01  0.10291883884E+01 0.  0.
     999903    2    3    3    0    0 -0.35774610234E-02 -0.86814821460E-01 -0.99378039723E-01  0.13909759128E+00  0.43846706466E-01 0.  0.
         14    1    1    2    0    0 -0.13546410110E-01  0.33083216472E-02 -0.44505013030E-02  0.14637526459E-01  0.00000000000E+00 0. -1.
     999901    1    3    3    0    0  0.17123871134E-01  0.83506499813E-01  0.10382854103E+00  0.89019488226E+00  0.88000000000E+00 0. -1.
        -11    1    4    4    0    0 -0.16024096798E-01 -0.88565728769E-02 -0.16814872277E-01  0.24863861567E-01  0.51100000000E-03 0.  1.
         11    1    4    4    0    0  0.12446635775E-01 -0.77958248583E-01 -0.82563167446E-01  0.11423372971E+00  0.51100000000E-03 0. -1.
</event>
<event>
 8    1  0.2190512E+004  0.1043930E+01  0.7957747E-01            NaN
         13   -1    0    0    0    0  0.00000000000E+00  0.00000000000E+00  0.74505805969E-08  0.10566000000E+00  0.10566000000E+00 0.  1.
     999900   -1    0    0    0    0 -0.00000000000E+00 -0.00000000000E+00 -0.74505805969E-08  0.93827000000E+00  0.93827000000E+00 0. -1.
     999902    2    1    2    0    0  0.32720697516E-02  0.83495255015E-02  0.10251231540E-01  0.10303098398E+01  0.10302198101E+01 0.  0.
     999903    2    3    3    0    0 -0.98677642656E-01 -0.67910968990E-01  0.56524913949E-01  0.13994437517E+00  0.45168411242E-01 0.  0.
         14    1    1    2    0    0 -0.32720697516E-02 -0.83495255015E-02 -0.10251231540E-01  0.13620160229E-01  0.00000000000E+00 0. -1.
     999901    1    3    3    0    0  0.10194971241E+00  0.76260494491E-01 -0.46273682408E-01  0.89036546461E+00  0.88000000000E+00 0.  1.
        -11    1    4    4    0    0 -0.66544390583E-01 -0.54908055275E-01  0.18028044372E-01  0.88138084600E-01  0.51100000000E-03 0. -1.
         11    1    4    4    0    0 -0.32133252074E-01 -0.13002913715E-01  0.38496869577E-01  0.51806290565E-01  0.51100000000E-03 0.  1.
</event>
<event>
 8    1  0.2190512E+004  0.1043930E+01  0.7957747E-01            NaN
         13   -1    0    0    0    0  0.00000000000E+00  0.00000000000E+00  0.74505805969E-08  0.10566000000E+00  0.10566000000E+00 0.  1.
     999900   -1    0    0    0    0 -0.00000000000E+00 -0.00000000000E+00 -0.74505805969E-08  0.93827000000E+00  0.93827000000E+00 0.  1.
     999902    2    1    2    0    0 -0.95742714318E-02 -0.87841669931E-02  0.51165577052E-02  0.10299654941E+01  0.10298708227E+01 0.  0.
     999903    2    3    3    0    0 -0.10958384382E+00 -0.62513215079E-01  0.46430594209E-01  0.14171126537E+00  0.44830366613E-01 0.  0.
         14    1    1    2    0    0  0.95742714318E-02  0.87841669931E-02 -0.51165577052E-02  0.13964505933E-01  0.00000000000E+00 0. -1.
     999901    1    3    3    0    0  0.10000957238E+00  0.53729048086E-01 -0.41314036504E-01  0.88825422869E+00  0.88000000000E+00 0.  1.
        -11    1    4    4    0    0 -0.10601021409E+00 -0.43718241984E-01  0.41468544132E-01  0.12193995017E+00  0.51100000000E-03 0.  1.
         11    1    4    4    0    0 -0.35736297264E-02 -0.18794973095E-01  0.49620500766E-02  0.19771315207E-01  0.51100000000E-03 0. -1.
</event>
<event>
 8    1  0.2190512E+004  0.1043930E+01  0.7957747E-01            NaN
         13   -1    0    0    0    0  0.00000000000E+00  0.00000000000E+00  0.74505805969E-08  0.10566000000E+00  0.10566000000E+00 0.  1.
     999900   -1    0    0    0    0 -0.00000000000E+00 -0.00000000000E+00 -0.74505805969E-08  0.93827000000E+00  0.93827000000E+00 0.  1.
     999902    2    1    2    0    0  0.17425747981E-03 -0.13531528138E-01  0.91876541909E-02  0.10275731785E+01  0.10274429870E+01 0.  0.
     999903    2    3    3    0    0  0.46825387364E-01 -0.21774645187E-01  0.12122149235E+00  0.13920621730E+00  0.44910674145E-01 0.  0.
         14    1    1    2    0    0 -0.17425747981E-03  0.13531528138E-01 -0.91876541909E-02  0.16356821481E-01  0.00000000000E+00 0. -1.
     999901    1    3    3    0    0 -0.46651129884E-01  0.82431170487E-02 -0.11203383816E+00  0.88836696122E+00  0.88000000000E+00 0.  1.
        -11    1    4    4    0    0  0.40586590660E-01 -0.11236614387E-01  0.43588080716E-01  0.60611176740E-01  0.51100000000E-03 0. -1.
         11    1    4    4    0    0  0.62387967035E-02 -0.10538030800E-01  0.77633411633E-01  0.78595040557E-01  0.51100000000E-03 0.  1.
</event>
<event>
 8    1  0.2190512E+004  0.1043930E+01  0.7957747E-01            NaN
         13   -1    0    0    0    0  0.00000000000E+00  0.00000000000E+00  0.74505805969E-08  0.10566000000E+00  0.10566000000E+00 0.  1.
     999900   -1    0    0    0    0 -0.00000000000E+00 -0.00000000000E+00 -0.74505805969E-08  0.93827000000E+00  0.93827000000E+00 0. -1.
     999902    2    1    2    0    0 -0.14343383015E-01 -0.28077689733E-02 -0.87401663301E-03  0.10292882751E+01  0.10291841299E+01 0.  0.
     999903    2    3    3    0    0 -0.42363516608E-01  0.97862836505E-03  0.12534449304E+00  0.13983306157E+00  0.45237350950E-01 0.  0.
         14    1    1    2    0    0  0.14343383015E-01  0.28077689733E-02  0.87401663301E-03  0.14641724898E-01  0.00000000000E+00 0. -1.
     999901    1    3    3    0    0  0.28020133594E-01 -0.37863973384E-02 -0.12621850967E+00  0.88945521353E+00  0.88000000000E+00 0. -1.
        -11    1    4    4    0    0  0.89580730000E-02  0.50100384927E-02  0.25610859938E-01  0.27595739260E-01  0.51100000000E-03 0. -1.
         11    1    4    4    0    0 -0.51321589608E-01 -0.40314101276E-02  0.99733633100E-01  0.11223732231E+00  0.51100000000E-03 0.  1.
</event>
<event>
 8    1  0.2190512E+004  0.1043930E+01  0.7957747E-01            NaN
         13   -1    0    0    0    0  0.00000000000E+00  0.00000000000E+00  0.74505805969E-08  0.10566000000E+00  0.10566000000E+00 0. -1.
     999900   -1    0    0    0    0 -0.00000000000E+00 -0.00000000000E+00 -0.74505805969E-08  0.93827000000E+00  0.93827000000E+00 0.  1.
     999902    2    1    2    0    0  0.76030787051E-02  0.14471596203E-01  0.35843551946E-02  0.10271943642E+01  0.10270580219E+01 0.  0.
     999903    2    3    3    0    0 -0.64478683942E-01 -0.94884725166E-01 -0.55494972204E-01  0.13554143149E+00  0.46164661363E-01 0.  0.
         14    1    1    2    0    0 -0.76030787051E-02 -0.14471596203E-01 -0.35843551946E-02  0.16735635770E-01  0.00000000000E+00 0.  1.
     999901    1    3    3    0    0  0.72081762648E-01  0.10935632137E+00  0.59079327399E-01  0.89165293274E+00  0.88000000000E+00 0. -1.
        -11    1    4    4    0    0 -0.28165150731E-01 -0.29620287424E-01  0.25405241328E-02  0.40955494463E-01  0.51100000000E-03 0.  1.
         11    1    4    4    0    0 -0.36313533211E-01 -0.65264437742E-01 -0.58035496337E-01  0.94585937032E-01  0.51100000000E-03 0. -1.
</event>
<event>
 8    1  0.2190512E+004  0.1043930E+01  0.7957747E-01            NaN
         13   -1    0    0    0    0  0.00000000000E+00  0.00000000000E+00  0.74505805969E-08  0.10566000000E+00  0.10566000000E+00 0.  1.
     999900   -1    0    0    0    0 -0.00000000000E+00 -0.00000000000E+00 -0.74505805969E-08  0.93827000000E+00  0.93827000000E+00 0.  1.
     999902    2    1    2    0    0 -0.12919638400E-01 -0.15977932543E-02  0.44111866354E-02  0.10301848711E+01  0.10300931706E+01 0.  0.
     999903    2    3    3    0    0 -0.31035271818E-01 -0.35954632428E-01  0.12508155213E+00  0.14110112611E+00  0.44813049633E-01 0.  0.
         14    1    1    2    0    0  0.12919638400E-01  0.15977932543E-02 -0.44111866354E-02  0.13745128853E-01  0.00000000000E+00 0. -1.
     999901    1    3    3    0    0  0.18115633418E-01  0.34356839174E-01 -0.12067036550E+00  0.88908374503E+00  0.88000000000E+00 0.  1.
        -11    1    4    4    0    0 -0.13969583967E-01 -0.14980601624E-01  0.98424109219E-02  0.22731077295E-01  0.51100000000E-03 0.  1.
         11    1    4    4    0    0 -0.17065687851E-01 -0.20974030804E-01  0.11523914121E+00  0.11837004882E+00  0.51100000000E-03 0. -1.
</event>
<event>
 8    1  0.2190512E+004  0.1043930E+01  0.7957747E-01            NaN
         13   -1    0    0    0    0  0.00000000000E+00  0.00000000000E+00  0.74505805969E-08  0.10566000000E+00  0.10566000000E+00 0. -1.
     999900   -1    0    0    0    0 -0.00000000000E+00 -0.00000000000E+00 -0.74505805969E-08  0.93827000000E+00  0.93827000000E+00 0.  1.
     999902    2    1    2    0    0 -0.14004286160E-01 -0.88130575643E-02 -0.90967571822E-03  0.10273584121E+01  0.10272247512E+01 0.  0.
     999903    2    3    3    0    0  0.65902421345E-01  0.10870610149E+00 -0.16937157223E-01  0.13581328439E+00  0.44701625029E-01 0.  0.
         14    1    1    2    0    0  0.14004286160E-01  0.88130575643E-02  0.90967571822E-03  0.16571587866E-01  0.00000000000E+00 0.  1.
     999901    1    3    3    0    0 -0.79906707505E-01 -0.11751915906E+00  0.16027481504E-01  0.89154512775E+00  0.88000000000E+00 0. -1.
        -11    1    4    4    0    0  0.28810841049E-02  0.35634757421E-01 -0.16350981423E-01  0.39316056473E-01  0.51100000000E-03 0.  1.
         11    1    4    4    0    0  0.63021337241E-01  0.73071344070E-01 -0.58617580006E-03  0.96497227912E-01  0.51100000000E-03 0. -1.
</event>
<event>
 8    1  0.2190512E+004  0.1043930E+01  0.7957747E-01            NaN
         13   -1    0    0    0    0  0.00000000000E+00  0.00000000000E+00  0.74505805969E-08  0.10566000000E+00  0.10566000000E+00 0.  1.
     999900   -1    0    0    0    0 -0.00000000000E+00 -0.00000000000E+00 -0.74505805969E-08  0.93827000000E+00  0.93827000000E+00 0. -1.
     999902    2    1    2    0    0  0.11531319531E-01  0.78598026153E-02 -0.31038887204E-02  0.10296337784E+01  0.10295345238E+01 0.  0.
     999903    2    3    3    0    0 -0.32612706932E-01  0.98290747276E-01  0.81061778968E-01  0.13990892741E+00  0.47737158547E-01 0.  0.
         14    1    1    2    0    0 -0.11531319531E-01 -0.78598026153E-02  0.31038887204E-02  0.14296221615E-01  0.00000000000E+00 0. -1.
     999901    1    3    3    0    0  0.44144026463E-01 -0.90430944660E-01 -0.84165667689E-01  0.88972485097E+00  0.88000000000E+00 0. -1.
        -11    1    4    4    0    0 -0.17071093103E-02  0.26788716913E-01  0.48591668209E-01  0.55515411522E-01  0.51100000000E-03 0.  1.
         11    1    4    4    0    0 -0.30905597622E-01  0.71502030363E-01  0.32470110759E-01  0.84393515888E-01  0.51100000000E-03 0. -1.
</event>
<event>
 8    1  0.2190512E+004  0.1043930E+01  0.7957747E-01            NaN
         13   -1    0    0    0    0  0.00000000000E+00  0.00000000000E+00  0.74505805969E-08  0.10566000000E+00  0.10566000000E+00 0.  1.
     999900   -1    0    0    0    0 -0.00000000000E+00 -0.00000000000E+00 -0.74505805969E-08  0.93827000000E+00  0.93827000000E+00 0. -1.
     999902    2    1    2    0    0 -0.11465945931E-01  0.12558102953E-02  0.90957688884E-02  0.10292406165E+01  0.10291357873E+01 0.  0.
     999903    2    3    3    0    0 -0.96141994608E-01  0.80280068807E-01 -0.42998137444E-01  0.14012384031E+00  0.45800417287E-01 0.  0.
         14    1    1    2    0    0  0.11465945931E-01 -0.12558102953E-02 -0.90957688884E-02  0.14689383488E-01  0.00000000000E+00 0. -1.
     999901    1    3    3    0    0  0.84676048677E-01 -0.79024258512E-01  0.52093906333E-01  0.88911677621E+00  0.88000000000E+00 0.  1.
        -11    1    4    4    0    0 -0.48237873831E-01  0.53412704736E-01 -0.27421977253E-02  0.72024928104E-01  0.51100000000E-03 0.  1.
         11    1    4    4    0    0 -0.47904120777E-01  0.26867364071E-01 -0.40255939719E-01  0.68098912203E-01  0.51100000000E-03 0. -1.
</event>
<event>
 8    1  0.2190512E+004  0.1043930E+01  0.7957747E-01            NaN
         13   -1    0    0    0    0  0.00000000000E+00  0.00000000000E+00  0.74505805969E-08  0.10566000000E+00  0.10566000000E+00 0.  1.
     999900   -1    0    0    0    0 -0.00000000000E+00 -0.00000000000E+00 -0.74505805969E-08  0.93827000000E+00  0.93827000000E+00 0.  1.
     999902    2    1    2    0    0 -0.13862371152E-01  0.22354916634E-02  0.62290377015E-02  0.10285688911E+01  0.10284541798E+01 0.  0.
     999903    2    3    3    0    0  0.10265972132E+00  0.21086697437E-01 -0.75955985061E-01  0.13689229950E+00  0.44570425230E-01 0.  0.
         14    1    1    2    0    0  0.13862371152E-01 -0.22354916634E-02 -0.62290377015E-02  0.15361108932E-01  0.00000000000E+00 0.  1.
     999901    1    3    3    0    0 -0.11652209247E+00 -0.18851205773E-01  0.82185022762E-01  0.89167659157E+00  0.88000000000E+00 0. -1.
        -11    1    4    4    0    0  0.30822746688E-01  0.25974590600E-01 -0.38436042092E-01  0.55698397848E-01  0.51100000000E-03 0. -1.
         11    1    4    4    0    0  0.71836974627E-01 -0.48878931634E-02 -0.37519942969E-01  0.81193901647E-01  0.51100000000E-03 0.  1.
</event>
<event>
 8    1  0.2190512E+004  0.1043930E+01  0.7957747E-01            NaN
         13   -1    0    0    0    0  0.00000000000E+00  0.00000000000E+00  0.74505805969E-08  0.10566000000E+00  0.10566000000E+00 0. -1.
     999900   -1    0    0    0    0 -0.00000000000E+00 -0.00000000000E+00 -0.74505805969E-08  0.93827000000E+00  0.93827000000E+00 0. -1.
     999902    2    1    2    0    0  0.16999126429E-02 -0.13381210212E-01 -0.14234610093E-02  0.10303663452E+01  0.10302770660E+01 0.  0.
     999903    2    3    3    0    0 -0.18282522352E-01 -0.13086797058E+00  0.26129500028E-01  0.14190610287E+00  0.44653274395E-01 0.  0.
         14    1    1    2    0    0 -0.16999126429E-02  0.13381210212E-01  0.14234610093E-02  0.13563654780E-01  0.00000000000E+00 0. -1.
     999901    1    3    3    0    0  0.19982434995E-01  0.11748676037E+00 -0.27552961037E-01  0.88846024235E+00  0.88000000000E+00 0. -1.
        -11    1    4    4    0    0  0.65786755420E-02 -0.24225482147E-01 -0.93591999311E-02  0.26795684382E-01  0.51100000000E-03 0.  1.
         11    1    4    4    0    0 -0.24861197894E-01 -0.10664248843E+00  0.35488699959E-01  0.11511041849E+00  0.51100000000E-03 0. -1.
</event>
<event>
 8    1  0.2190512E+004  0.1043930E+01  0.7957747E-01            NaN
         13   -1    0    0    0    0  0.00000000000E+00  0.00000000000E+00  0.74505805969E-08  0.10566000000E+00  0.10566000000E+00 0. -1.
     999900   -1    0    0    0    0 -0.00000000000E+00 -0.00000000000E+00 -0.74505805969E-08  0.93827000000E+00  0.93827000000E+00 0. -1.
     999902    2    1    2    0    0  0.68580992879E-03  0.56510586355E-02  0.12840156873E-01  0.10298845585E+01  0.10297887790E+01 0.  0.
     999903    2    3    3    0    0 -0.10985082477E+00 -0.71616901168E-01  0.14529273672E-01  0.13960845617E+00  0.45642491223E-01 0.  0.
         14    1    1    2    0    0 -0.68580992879E-03 -0.56510586355E-02 -0.12840156873E-01  0.14045441519E-01  0.00000000000E+00 0.  1.
     999901    1    3    3    0    0  0.11053663470E+00  0.77267959803E-01 -0.16891167995E-02  0.89027610231E+00  0.88000000000E+00 0.  1.
        -11    1    4    4    0    0 -0.87661741485E-01 -0.66458471633E-01  0.27495332677E-01  0.11339119812E+00  0.51100000000E-03 0.  1.
         11    1    4    4    0    0 -0.22189083290E-01 -0.51584295352E-02 -0.12966059005E-01  0.26217258050E-01  0.51100000000E-03 0. -1.
</event>
<event>
 8    1  0.2190512E+004  0.1043930E+01  0.7957747E-01            NaN
         13   -1    0    0    0    0  0.00000000000E+00  0.00000000000E+00  0.74505805969E-08  0.10566000000E+00  0.10566000000E+00 0. -1.
     999900   -1    0    0    0    0 -0.00000000000E+00 -0.00000000000E+00 -0.74505805969E-08  0.93827000000E+00  0.93827000000E+00 0. -1.
     999902    2    1    2    0    0 -0.37510690261E-02 -0.24529570078E-01  0.13083956874E-01  0.10158771881E+01  0.10154897838E+01 0.  0.
     999903    2    3    3    0    0 -0.82394525407E-01  0.83473323520E-01  0.24477832197E-02  0.12572970233E+00  0.45225135154E-01 0.  0.
         14    1    1    2    0    0  0.37510690261E-02  0.24529570078E-01 -0.13083956874E-01  0.28052811883E-01  0.00000000000E+00 0.  1.
     999901    1    3    3    0    0  0.78643456381E-01 -0.10800289360E+00  0.10636173654E-01  0.89014748578E+00  0.88000000000E+00 0.  1.
        -11    1    4    4    0    0 -0.36883622971E-01  0.52960664786E-01  0.21012342281E-01  0.67874982926E-01  0.51100000000E-03 0.  1.
         11    1    4    4    0    0 -0.45510902437E-01  0.30512658733E-01 -0.18564559062E-01  0.57854719408E-01  0.51100000000E-03 0. -1.
</event>
<event>
 8    1  0.2190512E+004  0.1043930E+01  0.7957747E-01            NaN
         13   -1    0    0    0    0  0.00000000000E+00  0.00000000000E+00  0.74505805969E-08  0.10566000000E+00  0.10566000000E+00 0.  1.
     999900   -1    0    0    0    0 -0.00000000000E+00 -0.00000000000E+00 -0.74505805969E-08  0.93827000000E+00  0.93827000000E+00 0. -1.
     999902    2    1    2    0    0  0.45823108871E-02  0.35200750839E-02  0.12156428714E-01  0.10304701612E+01  0.10303822523E+01 0.  0.
     999903    2    3    3    0    0  0.11511904415E+00  0.27526669303E-01  0.63956850832E-01  0.14171936952E+00  0.44539747178E-01 0.  0.
         14    1    1    2    0    0 -0.45823108871E-02 -0.35200750839E-02 -0.12156428714E-01  0.13459838808E-01  0.00000000000E+00 0.  1.
     999901    1    3    3    0    0 -0.11053673327E+00 -0.24006594219E-01 -0.51800422118E-01  0.88875079167E+00  0.88000000000E+00 0. -1.
        -11    1    4    4    0    0  0.55508398159E-01 -0.78974083623E-03  0.98606623773E-02  0.56385279464E-01  0.51100000000E-03 0. -1.
         11    1    4    4    0    0  0.59610645995E-01  0.28316410139E-01  0.54096188455E-01  0.85334090054E-01  0.51100000000E-03 0.  1.
</event>
<event>
 8    1  0.2190512E+004  0.1043930E+01  0.7957747E-01            NaN
         13   -1    0    0    0    0  0.00000000000E+00  0.00000000000E+00  0.74505805969E-08  0.10566000000E+00  0.10566000000E+00 0.  1.
     999900   -1    0    0    0    0 -0.00000000000E+00 -0.00000000000E+00 -0.74505805969E-08  0.93827000000E+00  0.93827000000E+00 0.  1.
     999902    2    1    2    0    0 -0.13217905902E-01  0.27357808405E-02 -0.22613838837E-02  0.10302438248E+01  0.10301529145E+01 0.  0.
     999903    2    3    3    0    0  0.47314386042E-03  0.85584127465E-01  0.10164194799E+00  0.14016113444E+00  0.44600350646E-01 0.  0.
         14    1    1    2    0    0  0.13217905902E-01 -0.27357808405E-02  0.22613838837E-02  0.13686175152E-01  0.00000000000E+00 0.  1.
     999901    1    3    3    0    0 -0.13691049762E-01 -0.82848346625E-01 -0.10390333188E+00  0.89008269040E+00  0.88000000000E+00 0.  1.
        -11    1    4    4    0    0 -0.77219961709E-02  0.26287406455E-01  0.63551120007E-01  0.69207390776E-01  0.51100000000E-03 0. -1.
         11    1    4    4    0    0  0.81951400313E-02  0.59296721011E-01  0.38090827985E-01  0.70953743667E-01  0.51100000000E-03 0.  1.
</event>
<event>
 8    1  0.2190512E+004  0.1043930E+01  0.7957747E-01            NaN
         13   -1    0    0    0    0  0.00000000000E+00  0.00000000000E+00  0.74505805969E-08  0.10566000000E+00  0.10566000000E+00 0. -1.
     999900   -1    0    0    0    0 -0.00000000000E+00 -0.00000000000E+00 -0.74505805969E-08  0.93827000000E+00  0.93827000000E+00 0. -1.
     999902    2    1    2    0    0  0.13628581991E-01  0.16793478532E-03 -0.76236617594E-02  0.10283131287E+01  0.10281945361E+01 0.  0.
     999903    2    3    3    0    0  0.99228795440E-01 -0.68802758117E-01  0.53150552269E-01  0.13939363964E+00  0.45004801924E-01 0.  0.
         14    1    1    2    0    0 -0.13628581991E-01 -0.16793478532E-03  0.76236617594E-02  0.15616871255E-01  0.00000000000E+00 0. -1.
     999901    1    3    3    0    0 -0.85600213449E-01  0.68970692902E-01 -0.60774214028E-01  0.88891948911E+00  0.88000000000E+00 0. -1.
        -11    1    4    4    0    0  0.56856896817E-01 -0.57861693368E-01  0.50481843669E-01  0.95547684097E-01  0.51100000000E-03 0.  1.
         11    1    4    4    0    0  0.42371898624E-01 -0.10941064750E-01  0.26687085995E-02  0.43845955542E-01  0.51100000000E-03 0. -1.
</event>
<event>
 8    1  0.2190512E+004  0.1043930E+01  0.7957747E-01            NaN
         13   -1    0    0    0    0  0.00000000000E+00  0.00000000000E+00  0.74505805969E-08  0.10566000000E+00  0.10566000000E+00 0.  1.
     999900   -1    0    0    0    0 -0.00000000000E+00 -0.00000000000E+00 -0.74505805969E-08  0.93827000000E+00  0.93827000000E+00 0. -1.
     999902    2    1    2    0    0  0.65864429905E-02 -0.11364785720E-01  0.12051909340E-02  0.10307393946E+01  0.10306549896E+01 0.  0.
     999903    2    3    3    0    0 -0.74679451589E-01 -0.83748228710E-01  0.73131803478E-01  0.14112321554E+00  0.44460262972E-01 0.  0.
         14    1    1    2    0    0 -0.65864429905E-02  0.11364785720E-01 -0.12051909340E-02  0.13190605404E-01  0.00000000000E+00 0.  1.
     999901    1    3    3    0    0  0.81265894580E-01  0.72383442990E-01 -0.71926612544E-01  0.88961617905E+00  0.88000000000E+00 0. -1.
        -11    1    4    4    0    0 -0.55863091168E-01 -0.67175606828E-01  0.76104973681E-01  0.11586835309E+00  0.51100000000E-03 0. -1.
         11    1    4    4    0    0 -0.18816360422E-01 -0.16572621882E-01 -0.29731702022E-02  0.25254862455E-01  0.51100000000E-03 0.  1.
</event>
<event>
 8    1  0.2190512E+004  0.1043930E+01  0.7957747E-01            NaN
         13   -1    0    0    0    0  0.00000000000E+00  0.00000000000E+00  0.74505805969E-08  0.10566000000E+00  0.10566000000E+00 0.  1.
     999900   -1    0    0    0    0 -0.00000000000E+00 -0.00000000000E+00 -0.74505805969E-08  0.93827000000E+00  0.93827000000E+00 0. -1.
     999902    2    1    2    0    0  0.47539642259E-02  0.13252607543E-01  0.17203683648E-02  0.10297458028E+01  0.10296481083E+01 0.  0.
     999903    2    3    3    0    0 -0.79083791137E-01 -0.68116541754E-01  0.76479715418E-01  0.13888180216E+00  0.50446990202E-01 0.  0.
         14    1    1    2    0    0 -0.47539642259E-02 -0.13252607543E-01 -0.17203683648E-02  0.14184197187E-01  0.00000000000E+00 0.  1.
     999901    1    3    3    0    0  0.83837755362E-01  0.81369149297E-01 -0.74759347054E-01  0.89086400065E+00  0.88000000000E+00 0. -1.
        -11    1    4    4    0    0  0.52033306418E-02 -0.82761813102E-03  0.12266734671E-01  0.13360146034E-01  0.51100000000E-03 0. -1.
         11    1    4    4    0    0 -0.84287121778E-01 -0.67288923623E-01  0.64212980747E-01  0.12552165613E+00  0.51100000000E-03 0.  1.
</event>
<event>
 8    1  0.2190512E+004  0.1043930E+01  0.7957747E-01            NaN
         13   -1    0    0    0    0  0.00000000000E+00  0.00000000000E+00  0.74505805969E-08  0.10566000000E+00  0.10566000000E+00 0. -1.
     999900   -1    0    0    0    0 -0.00000000000E+00 -0.00000000000E+00 -0.74505805969E-08  0.93827000000E+00  0.93827000000E+00 0.  1.
     999902    2    1    2    0    0  0.10577813054E-01  0.35483145341E-02 -0.51454922609E-02  0.10316435540E+01  0.10315703882E+01 0.  0.
     999903    2    3    3    0    0  0.91097991985E-01 -0.42796781501E-01 -0.90681418082E-01  0.14262850251E+00  0.44602258833E-01 0.  0.
         14    1    1    2    0    0 -0.10577813054E-01 -0.35483145341E-02  0.51454922609E-02  0.12286446014E-01  0.00000000000E+00 0. -1.
     999901    1    3    3    0    0 -0.80520178931E-01  0.46345096035E-01  0.85535925821E-01  0.88901505147E+00  0.88000000000E+00 0.  1.
        -11    1    4    4    0    0  0.41726908741E-01 -0.98593327938E-02 -0.12877274610E-01  0.44770823966E-01  0.51100000000E-03 0.  1.
         11    1    4    4    0    0  0.49371083244E-01 -0.32937448707E-01 -0.77804143472E-01  0.97857678546E-01  0.51100000000E-03 0. -1.
</event>
<event>
 8    1  0.2190512E+004  0.1043930E+01  0.7957747E-01            NaN
         13   -1    0    0    0    0  0.00000000000E+00  0.00000000000E+00  0.74505805969E-08  0.10566000000E+00  0.10566000000E+00 0.  1.
     999900   -1    0    0    0    0 -0.00000000000E+00 -0.00000000000E+00 -0.74505805969E-08  0.93827000000E+00  0.93827000000E+00 0.  1.
     999902    2    1    2    0    0 -0.11721092034E-01 -0.28955444033E-02  0.57023561942E-02  0.10305776578E+01  0.10304911566E+01 0.  0.
     999903    2    3    3    0    0 -0.28106152636E-01 -0.12004792571E+00 -0.50426072012E-01  0.14089032447E+00  0.45889372487E-01 0.  0.
         14    1    1    2    0    0  0.11721092034E-01  0.28955444033E-02 -0.57023561942E-02  0.13352342193E-01  0.00000000000E+00 0. -1.
     999901    1    3    3    0    0  0.16385060602E-01  0.11715238130E+00  0.56128428206E-01  0.88968733334E+00  0.88000000000E+00 0. -1.
        -11    1    4    4    0    0 -0.19025004787E-01 -0.11797571108E+00 -0.53688950047E-01  0.13100757111E+00  0.51100000000E-03 0. -1.
         11    1    4    4    0    0 -0.90811478492E-02 -0.20722146288E-02  0.32628780350E-02  0.98827533511E-02  0.51100000000E-03 0.  1.
</event>
<event>
 8    1  0.2190512E+004  0.1043930E+01  0.7957747E-01            NaN
         13   -1    0    0    0    0  0.00000000000E+00  0.00000000000E+00  0.74505805969E-08  0.10566000000E+00  0.10566000000E+00 0.  1.
     999900   -1    0    0    0    0 -0.00000000000E+00 -0.00000000000E+00 -0.74505805969E-08  0.93827000000E+00  0.93827000000E+00 0.  1.
     999902    2    1    2    0    0 -0.11992985133E-01 -0.47513760121E-02  0.61225966922E-02  0.10296508734E+01  0.10295518577E+01 0.  0.
     999903    2    3    3    0    0 -0.43544654141E-01 -0.12159806606E+00 -0.31397236878E-01  0.14057472665E+00  0.45751947676E-01 0.  0.
         14    1    1    2    0    0  0.11992985133E-01  0.47513760121E-02 -0.61225966922E-02  0.14279126607E-01  0.00000000000E+00 0. -1.
     999901    1    3    3    0    0  0.31551669009E-01  0.11684669005E+00  0.37519833571E-01  0.88907614674E+00  0.88000000000E+00 0.  1.
        -11    1    4    4    0    0 -0.94424098682E-02 -0.74722227704E-01 -0.33799745817E-01  0.82554553814E-01  0.51100000000E-03 0. -1.
         11    1    4    4    0    0 -0.34102244273E-01 -0.46875838355E-01  0.24025089387E-02  0.58020172838E-01  0.51100000000E-03 0.  1.
</event>
<event>
 8    1  0.2190512E+004  0.1043930E+01  0.7957747E-01            NaN
         13   -1    0    0    0    0  0.00000000000E+00  0.00000000000E+00  0.74505805969E-08  0.10566000000E+00  0.10566000000E+00 0. -1.
     999900   -1    0    0    0    0 -0.00000000000E+00 -0.00000000000E+00 -0.74505805969E-08  0.93827000000E+00  0.93827000000E+00 0. -1.
     999902    2    1    2    0    0  0.42849231310E-02 -0.10975771815E-01 -0.53013161787E-02  0.10310097799E+01  0.10309288211E+01 0.  0.
     999903    2    3    3    0    0  0.16247524222E-01 -0.12445066412E+00 -0.50953720720E-01  0.14246951802E+00  0.44151240825E-01 0.  0.
         14    1    1    2    0    0 -0.42849231310E-02  0.10975771815E-01  0.53013161787E-02  0.12920220060E-01  0.00000000000E+00 0. -1.
     999901    1    3    3    0    0 -0.11962601091E-01  0.11347489231E+00  0.45652404541E-01  0.88854026192E+00  0.88000000000E+00 0.  1.
        -11    1    4    4    0    0  0.17372269342E-01 -0.13316699405E-01 -0.77303865337E-02  0.23219608569E-01  0.51100000000E-03 0.  1.
         11    1    4    4    0    0 -0.11247451205E-02 -0.11113396472E+00 -0.43223334186E-01  0.11924990945E+00  0.51100000000E-03 0. -1.
</event>
<event>
 8    1  0.2190512E+004  0.1043930E+01  0.7957747E-01            NaN
         13   -1    0    0    0    0  0.00000000000E+00  0.00000000000E+00  0.74505805969E-08  0.10566000000E+00  0.10566000000E+00 0.  1.
     999900   -1    0    0    0    0 -0.00000000000E+00 -0.00000000000E+00 -0.74505805969E-08  0.93827000000E+00  0.93827000000E+00 0.  1.
     999902    2    1    2    0    0 -0.60122756946E-02  0.11280089711E-01 -0.53686867764E-02  0.10300659933E+01  0.10299726889E+01 0.  0.
     999903    2    3    3    0    0 -0.73524760824E-01 -0.10917650001E+00 -0.65723385658E-02  0.13929712633E+00  0.45112029015E-01 0.  0.
         14    1    1    2    0    0  0.60122756946E-02 -0.11280089711E-01  0.53686867764E-02  0.13864006658E-01  0.00000000000E+00 0.  1.
     999901    1    3    3    0    0  0.67512485129E-01  0.12045658972E+00  0.12036517894E-02  0.89076886701E+00  0.88000000000E+00 0. -1.
        -11    1    4    4    0    0 -0.48567293447E-01 -0.52266959687E-01 -0.23093993331E-01  0.74994737927E-01  0.51100000000E-03 0.  1.
         11    1    4    4    0    0 -0.24957467377E-01 -0.56909540321E-01  0.16521654766E-01  0.64302388405E-01  0.51100000000E-03 0. -1.
</event>
<event>
 8    1  0.2190512E+004  0.1043930E+01  0.7957747E-01            NaN
         13   -1    0    0    0    0  0.00000000000E+00  0.00000000000E+00  0.74505805969E-08  0.10566000000E+00  0.10566000000E+00 0.  1.
     999900   -1    0    0    0    0 -0.00000000000E+00 -0.00000000000E+00 -0.74505805969E-08  0.93827000000E+00  0.93827000000E+00 0.  1.
     999902    2    1    2    0    0  0.61024910599E-02  0.12257145281E-01  0.23296731454E-02  0.10300409617E+01  0.10299473178E+01 0.  0.
     999903    2    3    3    0    0  0.21572578517E-01 -0.24445457274E-01  0.12985670552E+00  0.13995694960E+00  0.40770421223E-01 0.  0.
         14    1    1    2    0    0 -0.61024910599E-02 -0.12257145281E-01 -0.23296731454E-02  0.13889038287E-01  0.00000000000E+00 0. -1.
     999901    1    3    3    0    0 -0.15470087457E-01  0.36702602555E-01 -0.12752703237E+00  0.89008401212E+00  0.88000000000E+00 0.  1.
        -11    1    4    4    0    0 -0.54527229414E-02 -0.18547476923E-01  0.25551472858E-01  0.32044967997E-01  0.51100000000E-03 0.  1.
         11    1    4    4    0    0  0.27025301458E-01 -0.58979803506E-02  0.10430523266E+00  0.10791198160E+00  0.51100000000E-03 0. -1.
</event>
<event>
 8    1  0.2190512E+004  0.1043930E+01  0.7957747E-01            NaN
         13   -1    0    0    0    0  0.00000000000E+00  0.00000000000E+00  0.74505805969E-08  0.10566000000E+00  0.10566000000E+00 0.  1.
     999900   -1    0    0    0    0 -0.00000000000E+00 -0.00000000000E+00 -0.74505805969E-08  0.93827000000E+00  0.93827000000E+00 0.  1.
     999902    2    1    2    0    0  0.13793457120E-02  0.13873443985E-01 -0.29888246686E-02  0.10296713845E+01  0.10295726550E+01 0.  0.
     999903    2    3    3    0    0 -0.10178571151E+00 -0.42598760404E-01  0.71016817286E-01  0.13876792513E+00  0.45146021436E-01 0.  0.
         14    1    1    2    0    0 -0.13793457120E-02 -0.13873443985E-01  0.29888246686E-02  0.14258615484E-01  0.00000000000E+00 0.  1.
     999901    1    3    3    0    0  0.10316505723E+00  0.56472204389E-01 -0.74005641955E-01  0.89090345938E+00  0.88000000000E+00 0.  1.
        -11    1    4    4    0    0 -0.83403046064E-01 -0.52259122099E-01  0.57623580050E-01  0.11405183924E+00  0.51100000000E-03 0.  1.
         11    1    4    4    0    0 -0.18382665450E-01  0.96603616951E-02  0.13393237236E-01  0.24716085892E-01  0.51100000000E-03 0. -1.
</event>
<event>
 8    1  0.2190512E+004  0.1043930E+01  0.7957747E-01            NaN
         13   -1    0    0    0    0  0.00000000000E+00  0.00000000000E+00  0.74505805969E-08  0.10566000000E+00  0.10566000000E+00 0. -1.
     999900   -1    0    0    0    0 -0.00000000000E+00 -0.00000000000E+00 -0.74505805969E-08  0.93827000000E+00  0.93827000000E+00 0. -1.
     999902    2    1    2    0    0 -0.10812758955E-02 -0.13954289282E-01  0.39773723819E-02  0.10293797135E+01  0.10292768742E+01 0.  0.
     999903    2    3    3    0    0 -0.68382129365E-01 -0.11206223605E+00  0.24883660484E-01  0.14112769576E+00  0.45428730834E-01 0.  0.
         14    1    1    2    0    0  0.10812758955E-02  0.13954289282E-01 -0.39773723819E-02  0.14550286526E-01  0.00000000000E+00 0.  1.
     999901    1    3    3    0    0  0.67300853469E-01  0.98107946770E-01 -0.20906288102E-01  0.88825201772E+00  0.88000000000E+00 0.  1.
        -11    1    4    4    0    0 -0.30664069970E-01 -0.81682691682E-01  0.30368680992E-01  0.92384334244E-01  0.51100000000E-03 0.  1.
         11    1    4    4    0    0 -0.37718059394E-01 -0.30379544369E-01 -0.54850205075E-02  0.48743361512E-01  0.51100000000E-03 0. -1.
</event>
<event>
 8    1  0.2190512E+004  0.1043930E+01  0.7957747E-01            NaN
         13   -1    0    0    0    0  0.00000000000E+00  0.00000000000E+00  0.74505805969E-08  0.10566000000E+00  0.10566000000E+00 0.  1.
     999900   -1    0    0    0    0 -0.00000000000E+00 -0.00000000000E+00 -0.74505805969E-08  0.93827000000E+00  0.93827000000E+00 0.  1.
     999902    2    1    2    0    0 -0.76657787348E-02  0.75235366801E-02 -0.74893436067E-02  0.10308358015E+01  0.10307526335E+01 0.  0.
     999903    2    3    3    0    0 -0.96161259981E-01 -0.75445116326E-01  0.53344371996E-01  0.14043365156E+00  0.44011759443E-01 0.  0.
         14    1    1    2    0    0  0.76657787348E-02 -0.75235366801E-02  0.74893436067E-02  0.13094198542E-01  0.00000000000E+00 0.  1.
     999901    1    3    3    0    0  0.88495481246E-01  0.82968653007E-01 -0.60833715603E-01  0.89040214989E+00  0.88000000000E+00 0. -1.
        -11    1    4    4    0    0 -0.93671992380E-01 -0.72512241649E-01  0.59955155751E-01  0.13276802765E+00  0.51100000000E-03 0. -1.
         11    1    4    4    0    0 -0.24892676012E-02 -0.29328746779E-02 -0.66107837543E-02  0.76656239089E-02  0.51100000000E-03 0.  1.
</event>
<event>
 8    1  0.2190512E+004  0.1043930E+01  0.7957747E-01            NaN
         13   -1    0    0    0    0  0.00000000000E+00  0.00000000000E+00  0.74505805969E-08  0.10566000000E+00  0.10566000000E+00 0. -1.
     999900   -1    0    0    0    0 -0.00000000000E+00 -0.00000000000E+00 -0.74505805969E-08  0.93827000000E+00  0.93827000000E+00 0. -1.
     999902    2    1    2    0    0 -0.17262862526E-02  0.90673703370E-02 -0.95840607687E-02  0.10306239303E+01  0.10305380315E+01 0.  0.
     999903    2    3    3    0    0 -0.27682814822E-01 -0.72999575921E-01  0.10553073308E+00  0.13896248068E+00  0.45591217263E-01 0.  0.
         14    1    1    2    0    0  0.17262862526E-02 -0.90673703370E-02  0.95840607687E-02  0.13306069663E-01  0.00000000000E+00 0. -1.
     999901    1    3    3    0    0  0.25956528569E-01  0.82066946258E-01 -0.11511479385E+00  0.89166144966E+00  0.88000000000E+00 0. -1.
        -11    1    4    4    0    0 -0.59859276811E-03 -0.36243845362E-01  0.18542818110E-01  0.40719428586E-01  0.51100000000E-03 0. -1.
         11    1    4    4    0    0 -0.27084222054E-01 -0.36755730560E-01  0.86987914968E-01  0.98243052093E-01  0.51100000000E-03 0.  1.
</event>
<event>
 8    1  0.2190512E+004  0.1043930E+01  0.7957747E-01            NaN
         13   -1    0    0    0    0  0.00000000000E+00  0.00000000000E+00  0.74505805969E-08  0.10566000000E+00  0.10566000000E+00 0.  1.
     999900   -1    0    0    0    0 -0.00000000000E+00 -0.00000000000E+00 -0.74505805969E-08  0.93827000000E+00  0.93827000000E+00 0. -1.
     999902    2    1    2    0    0 -0.42962176549E-02  0.90768606524E-02  0.63849868244E-02  0.10320297923E+01  0.10319611802E+01 0.  0.
     999903    2    3    3    0    0  0.69833706996E-01  0.10358027116E+00 -0.51091243081E-01  0.14201313108E+00  0.44179124867E-01 0.  0.
         14    1    1    2    0    0  0.42962176549E-02 -0.90768606524E-02 -0.63849868244E-02  0.11900207653E-01  0.00000000000E+00 0. -1.
     999901    1    3    3    0    0 -0.74129924651E-01 -0.94503410506E-01  0.57476229906E-01  0.89001666127E+00  0.88000000000E+00 0.  1.
        -11    1    4    4    0    0  0.38434071852E-01  0.89697525552E-01 -0.43530574423E-01  0.10685502328E+00  0.51100000000E-03 0. -1.
         11    1    4    4    0    0  0.31399635143E-01  0.13882745606E-01 -0.75606686582E-02  0.35158107803E-01  0.51100000000E-03 0.  1.
</event>
<event>
 8    1  0.2190512E+004  0.1043930E+01  0.7957747E-01            NaN
         13   -1    0    0    0    0  0.00000000000E+00  0.00000000000E+00  0.74505805969E-08  0.10566000000E+00  0.10566000000E+00 0. -1.
     999900   -1    0    0    0    0 -0.00000000000E+00 -0.00000000000E+00 -0.74505805969E-08  0.93827000000E+00  0.93827000000E+00 0.  1.
     999902    2    1    2    0    0  0.11535632631E-01  0.34282038784E-03  0.71508481187E-02  0.10303534402E+01  0.10302639899E+01 0.  0.
     999903    2    3    3    0    0  0.55923342582E-01 -0.11706505803E+00  0.32262812307E-01  0.14109223595E+00  0.45105231736E-01 0.  0.
         14    1    1    2    0    0 -0.11535632631E-01 -0.34282038784E-03 -0.71508481187E-02  0.13576559757E-01  0.00000000000E+00 0.  1.
     999901    1    3    3    0    0 -0.44387709951E-01  0.11740787842E+00 -0.25111964188E-01  0.88926120429E+00  0.88000000000E+00 0.  1.
        -11    1    4    4    0    0  0.38922012318E-01 -0.40746102790E-01 -0.40145969509E-03  0.56352375516E-01  0.51100000000E-03 0.  1.
         11    1    4    4    0    0  0.17001330264E-01 -0.76318955244E-01  0.32664272002E-01  0.84739860436E-01  0.51100000000E-03 0. -1.
</event>
<event>
 8    1  0.2190512E+004  0.1043930E+01  0.7957747E-01            NaN
         13   -1    0    0    0    0  0.00000000000E+00  0.00000000000E+00  0.74505805969E-08  0.10566000000E+00  0.10566000000E+00 0.  1.
     999900   -1    0    0    0    0 -0.00000000000E+00 -0.00000000000E+00 -0.74505805969E-08  0.93827000000E+00  0.93827000000E+00 0.  1.
     999902    2    1    2    0    0  0.91809012299E-02  0.84566110028E-02 -0.61261026073E-02  0.10300255996E+01  0.10299317470E+01 0.  0.
     999903    2    3    3    0    0  0.60329446156E-01 -0.10432598036E+00 -0.55861385879E-01  0.13996398098E+00  0.44112008415E-01 0.  0.
         14    1    1    2    0    0 -0.91809012299E-02 -0.84566110028E-02  0.61261026073E-02  0.13904400390E-01  0.00000000000E+00 0. -1.
     999901    1    3    3    0    0 -0.51148544926E-01  0.11278259137E+00  0.49735283271E-01  0.89006161863E+00  0.88000000000E+00 0. -1.
        -11    1    4    4    0    0  0.26795125303E-01 -0.17357455199E-01 -0.28553678018E-01  0.42834958158E-01  0.51100000000E-03 0. -1.
         11    1    4    4    0    0  0.33534320853E-01 -0.86968525163E-01 -0.27307707861E-01  0.97129022819E-01  0.51100000000E-03 0.  1.
</event>
<event>
 8    1  0.2190512E+004  0.1043930E+01  0.7957747E-01            NaN
         13   -1    0    0    0    0  0.00000000000E+00  0.00000000000E+00  0.74505805969E-08  0.10566000000E+00  0.10566000000E+00 0.  1.
     999900   -1    0    0    0    0 -0.00000000000E+00 -0.00000000000E+00 -0.74505805969E-08  0.93827000000E+00  0.93827000000E+00 0. -1.
     999902    2    1    2    0    0  0.97866080016E-02 -0.63387020748E-02  0.74469968171E-02  0.10300947334E+01  0.10300018180E+01 0.  0.
     999903    2    3    3    0    0  0.11528839131E+00 -0.10808035578E-01  0.67395941629E-01  0.14175669121E+00  0.46308959744E-01 0.  0.
         14    1    1    2    0    0 -0.97866080016E-02  0.63387020748E-02 -0.74469968171E-02  0.13835266595E-01  0.00000000000E+00 0.  1.
     999901    1    3    3    0    0 -0.10550178330E+00  0.44693335032E-02 -0.59948944811E-01  0.88833804219E+00  0.88000000000E+00 0. -1.
        -11    1    4    4    0    0  0.62838984382E-01  0.33607154702E-02  0.59952706159E-01  0.86917319698E-01  0.51100000000E-03 0.  1.
         11    1    4    4    0    0  0.52449406923E-01 -0.14168751048E-01  0.74432354700E-02  0.54839371515E-01  0.51100000000E-03 0. -1.
</event>
<event>
 8    1  0.2190512E+004  0.1043930E+01  0.7957747E-01            NaN
         13   -1    0    0    0    0  0.00000000000E+00  0.00000000000E+00  0.74505805969E-08  0.10566000000E+00  0.10566000000E+00 0. -1.
     999900   -1    0    0    0    0 -0.00000000000E+00 -0.00000000000E+00 -0.74505805969E-08  0.93827000000E+00  0.93827000000E+00 0.  1.
     999902    2    1    2    0    0  0.35662124929E-02 -0.13042458287E-02  0.12123920254E-01  0.10312253406E+01  0.10311470771E+01 0.  0.
     999903    2    3    3    0    0 -0.11737398312E+00  0.56348638803E-01  0.30846137921E-01  0.14088781612E+00  0.44114300386E-01 0.  0.
         14    1    1    2    0    0 -0.35662124929E-02  0.13042458287E-02 -0.12123920254E-01  0.12704659423E-01  0.00000000000E+00 0.  1.
     999901    1    3    3    0    0  0.12094019561E+00 -0.57652884632E-01 -0.18722217667E-01  0.89033752446E+00  0.88000000000E+00 0.  1.
        -11    1    4    4    0    0 -0.52460030969E-01  0.28573362832E-01  0.36576788092E-01  0.70047230216E-01  0.51100000000E-03 0. -1.
         11    1    4    4    0    0 -0.64913952149E-01  0.27775275971E-01 -0.57306501712E-02  0.70840585904E-01  0.51100000000E-03 0.  1.
</event>
<event>
 8    1  0.2190512E+004  0.1043930E+01  0.7957747E-01            NaN
         13   -1    0    0    0    0  0.00000000000E+00  0.00000000000E+00  0.74505805969E-08  0.10566000000E+00  0.10566000000E+00 0. -1.
     999900   -1    0    0    0    0 -0.00000000000E+00 -0.00000000000E+00 -0.74505805969E-08  0.93827000000E+00  0.93827000000E+00 0.  1.
     999902    2    1    2    0    0  0.22735008974E-02  0.20251874868E-02  0.12746069991E-01  0.10308253256E+01  0.10307420237E+01 0.  0.
     999903    2    3    3    0    0  0.11509048262E+00  0.60220164887E-01 -0.29689594695E-01  0.14070448415E+00  0.45210533916E-01 0.  0.
         14    1    1    2    0    0 -0.22735008974E-02 -0.20251874868E-02 -0.12746069991E-01  0.13104674392E-01  0.00000000000E+00 0.  1.
     999901    1    3    3    0    0 -0.11281698173E+00 -0.58194977400E-01  0.42435664687E-01  0.89012084146E+00  0.88000000000E+00 0. -1.
        -11    1    4    4    0    0  0.16955189784E-01  0.26287122680E-01 -0.18299744455E-01  0.36244076034E-01  0.51100000000E-03 0.  1.
         11    1    4    4    0    0  0.98135292841E-01  0.33933042206E-01 -0.11389850240E-01  0.10446040812E+00  0.51100000000E-03 0. -1.
</event>
<event>
 8    1  0.2190512E+004  0.1043930E+01  0.7957747E-01            NaN
         13   -1    0    0    0    0  0.00000000000E+00  0.00000000000E+00  0.74505805969E-08  0.10566000000E+00  0.10566000000E+00 0.  1.
     999900   -1    0    0    0    0 -0.00000000000E+00 -0.00000000000E+00 -0.74505805969E-08  0.93827000000E+00  0.93827000000E+00 0. -1.
     999902    2    1    2    0    0 -0.13353197204E-01 -0.17750892188E-02  0.29251051075E-02  0.10301454051E+01  0.10300531736E+01 0.  0.
     999903    2    3    3    0    0 -0.11624667387E+00 -0.56943421199E-01  0.36343935299E-01  0.14180570057E+00  0.45079182293E-01 0.  0.
         14    1    1    2    0    0  0.13353197204E-01  0.17750892188E-02 -0.29251051075E-02  0.13784594923E-01  0.00000000000E+00 0. -1.
     999901    1    3    3    0    0  0.10289347667E+00  0.55168331981E-01 -0.33418830192E-01  0.88833970451E+00  0.88000000000E+00 0. -1.
        -11    1    4    4    0    0 -0.75745589626E-02 -0.69671113968E-02  0.18073276414E-01  0.20804303065E-01  0.51100000000E-03 0.  1.
         11    1    4    4    0    0 -0.10867211491E+00 -0.49976309803E-01  0.18270658885E-01  0.12100139750E+00  0.51100000000E-03 0. -1.
</event>
<event>
 8    1  0.2190512E+004  0.1043930E+01  0.7957747E-01            NaN
         13   -1    0    0    0    0  0.00000000000E+00  0.00000000000E+00  0.74505805969E-08  0.10566000000E+00  0.10566000000E+00 0. -1.
     999900   -1    0    0    0    0 -0.00000000000E+00 -0.00000000000E+00 -0.74505805969E-08  0.93827000000E+00  0.93827000000E+00 0.  1.
     999902    2    1    2    0    0  0.93389722891E-02  0.11018053213E-01  0.86020724188E-03  0.10294609345E+01  0.10293592482E+01 0.  0.
     999903    2    3    3    0    0 -0.50333688010E-01  0.21586113543E-01 -0.11957625909E+00  0.13919274305E+00  0.45570796915E-01 0.  0.
         14    1    1    2    0    0 -0.93389722891E-02 -0.11018053213E-01 -0.86020724188E-03  0.14469065502E-01  0.00000000000E+00 0.  1.
     999901    1    3    3    0    0  0.59672660300E-01 -0.10568060330E-01  0.12043646634E+00  0.89026819145E+00  0.88000000000E+00 0. -1.
        -11    1    4    4    0    0 -0.49531387894E-01  0.80453733779E-02 -0.11392739229E+00  0.12449015325E+00  0.51100000000E-03 0. -1.
         11    1    4    4    0    0 -0.80230011631E-03  0.13540740165E-01 -0.56488667984E-02  0.14702589799E-01  0.51100000000E-03 0.  1.
</event>
<event>
 8    1  0.2190512E+004  0.1043930E+01  0.7957747E-01            NaN
         13   -1    0    0    0    0  0.00000000000E+00  0.00000000000E+00  0.74505805969E-08  0.10566000000E+00  0.10566000000E+00 0.  1.
     999900   -1    0    0    0    0 -0.00000000000E+00 -0.00000000000E+00 -0.74505805969E-08  0.93827000000E+00  0.93827000000E+00 0.  1.
     999902    2    1    2    0    0 -0.12416482272E-01 -0.11508659571E-02 -0.11633302307E-03  0.10314597531E+01  0.10313843683E+01 0.  0.
     999903    2    3    3    0    0 -0.62839825394E-01  0.99305537199E-01  0.64201229868E-01  0.14198195609E+00  0.47187334798E-01 0.  0.
         14    1    1    2    0    0  0.12416482272E-01  0.11508659571E-02  0.11633302307E-03  0.12470246904E-01  0.00000000000E+00 0.  1.
     999901    1    3    3    0    0  0.50423343121E-01 -0.10045640316E+00 -0.64317562891E-01  0.88947779700E+00  0.88000000000E+00 0. -1.
        -11    1    4    4    0    0 -0.36565027375E-01  0.27564512123E-01  0.42696466456E-01  0.62610326020E-01  0.51100000000E-03 0. -1.
         11    1    4    4    0    0 -0.26274798018E-01  0.71741025076E-01  0.21504763412E-01  0.79371630072E-01  0.51100000000E-03 0.  1.
</event>
<event>
 8    1  0.2190512E+004  0.1043930E+01  0.7957747E-01            NaN
         13   -1    0    0    0    0  0.00000000000E+00  0.00000000000E+00  0.74505805969E-08  0.10566000000E+00  0.10566000000E+00 0.  1.
     999900   -1    0    0    0    0 -0.00000000000E+00 -0.00000000000E+00 -0.74505805969E-08  0.93827000000E+00  0.93827000000E+00 0.  1.
     999902    2    1    2    0    0 -0.58578050361E-02 -0.98809745354E-02 -0.76588114531E-02  0.10301240256E+01  0.10300315059E+01 0.  0.
     999903    2    3    3    0    0 -0.35648474968E-01  0.10832745952E+00 -0.67060167954E-01  0.13973689680E+00  0.44985352575E-01 0.  0.
         14    1    1    2    0    0  0.58578050361E-02  0.98809745354E-02  0.76588114531E-02  0.13805974449E-01  0.00000000000E+00 0.  1.
     999901    1    3    3    0    0  0.29790669932E-01 -0.11820843406E+00  0.59401356501E-01  0.89038712875E+00  0.88000000000E+00 0.  1.
        -11    1    4    4    0    0 -0.20811423125E-01  0.73884672236E-01 -0.67514875584E-01  0.10222807672E+00  0.51100000000E-03 0.  1.
         11    1    4    4    0    0 -0.14837051843E-01  0.34442787286E-01  0.45470763046E-03  0.37508820076E-01  0.51100000000E-03 0. -1.
</event>
<event>
 8    1  0.2190512E+004  0.1043930E+01  0.7957747E-01            NaN
         13   -1    0    0    0    0  0.00000000000E+00  0.00000000000E+00  0.74505805969E-08  0.10566000000E+00  0.10566000000E+00 0.  1.
     999900   -1    0    0    0    0 -0.00000000000E+00 -0.00000000000E+00 -0.74505805969E-08  0.93827000000E+00  0.93827000000E+00 0.  1.
     999902    2    1    2    0    0  0.64648713182E-02 -0.90124438957E-02 -0.86557036683E-02  0.10298608880E+01  0.10297647832E+01 0.  0.
     999903    2    3    3    0    0 -0.12104113175E+00  0.15585345910E-01  0.46247940099E-01  0.13863855763E+00  0.46775197650E-01 0.  0.
         14    1    1    2    0    0 -0.64648713182E-02  0.90124438957E-02  0.86557036683E-02  0.14069111988E-01  0.00000000000E+00 0.  1.
     999901    1    3    3    0    0  0.12750600307E+00 -0.24597789805E-01 -0.54903643767E-01  0.89122233039E+00  0.88000000000E+00 0.  1.
        -11    1    4    4    0    0 -0.39089043195E-01  0.23483129034E-01  0.31620396063E-02  0.45712911334E-01  0.51100000000E-03 0. -1.
         11    1    4    4    0    0 -0.81952088553E-01 -0.78977831248E-02  0.43085900492E-01  0.92925646291E-01  0.51100000000E-03 0.  1.
</event>
<event>
 8    1  0.2190512E+004  0.1043930E+01  0.7957747E-01            NaN
         13   -1    0    0    0    0  0.00000000000E+00  0.00000000000E+00  0.74505805969E-08  0.10566000000E+00  0.10566000000E+00 0.  1.
     999900   -1    0    0    0    0 -0.00000000000E+00 -0.00000000000E+00 -0.74505805969E-08  0.93827000000E+00  0.93827000000E+00 0.  1.
     999902    2    1    2    0    0  0.32253160722E-02  0.13131615964E-01  0.42900194615E-03  0.10304012882E+01  0.10303124713E+01 0.  0.
     999903    2    3    3    0    0 -0.58766501108E-01  0.89886161251E-01 -0.80418221681E-01  0.14120472991E+00  0.44030236589E-01 0.  0.
         14    1    1    2    0    0 -0.32253160722E-02 -0.13131615964E-01 -0.42900194615E-03  0.13528711848E-01  0.00000000000E+00 0.  1.
     999901    1    3    3    0    0  0.61991817180E-01 -0.76754545287E-01  0.80847223627E-01  0.88919655824E+00  0.88000000000E+00 0. -1.
        -11    1    4    4    0    0 -0.15784787542E-01  0.48307454360E-01 -0.15945857590E-01  0.53266322942E-01  0.51100000000E-03 0. -1.
         11    1    4    4    0    0 -0.42981713566E-01  0.41578706891E-01 -0.64472364091E-01  0.87938406969E-01  0.51100000000E-03 0.  1.
</event>
<event>
 8    1  0.2190512E+004  0.1043930E+01  0.7957747E-01            NaN
         13   -1    0    0    0    0  0.00000000000E+00  0.00000000000E+00  0.74505805969E-08  0.10566000000E+00  0.10566000000E+00 0. -1.
     999900   -1    0    0    0    0 -0.00000000000E+00 -0.00000000000E+00 -0.74505805969E-08  0.93827000000E+00  0.93827000000E+00 0. -1.
     999902    2    1    2    0    0 -0.46386638313E-02 -0.12065428311E-01  0.42769434430E-02  0.10303144204E+01  0.10302244517E+01 0.  0.
     999903    2    3    3    0    0 -0.10337072606E+00 -0.53836577435E-02 -0.83655588782E-01  0.14041285484E+00  0.44755128137E-01 0.  0.
         14    1    1    2    0    0  0.46386638313E-02  0.12065428311E-01 -0.42769434430E-02  0.13615579594E-01  0.00000000000E+00 0. -1.
     999901    1    3    3    0    0  0.98732062224E-01 -0.66817705678E-02  0.87932532225E-01  0.88990156556E+00  0.88000000000E+00 0.  1.
        -11    1    4    4    0    0 -0.80535491964E-01 -0.13706349779E-01 -0.41214723630E-01  0.91502699715E-01  0.51100000000E-03 0. -1.
         11    1    4    4    0    0 -0.22835234091E-01  0.83226920360E-02 -0.42440865152E-01  0.48910155127E-01  0.51100000000E-03 0.  1.
</event>
<event>
 8    1  0.2190512E+004  0.1043930E+01  0.7957747E-01            NaN
         13   -1    0    0    0    0  0.00000000000E+00  0.00000000000E+00  0.74505805969E-08  0.10566000000E+00  0.10566000000E+00 0. -1.
     999900   -1    0    0    0    0 -0.00000000000E+00 -0.00000000000E+00 -0.74505805969E-08  0.93827000000E+00  0.93827000000E+00 0.  1.
     999902    2    1    2    0    0 -0.75625585665E-02 -0.11412535690E-01  0.23954307096E-02  0.10300312104E+01  0.10299374341E+01 0.  0.
     999903    2    3    3    0    0 -0.92369124064E-01 -0.29086173079E-01  0.93553811233E-01  0.14109118921E+00  0.42146738081E-01 0.  0.
         14    1    1    2    0    0  0.75625585665E-02  0.11412535690E-01 -0.23954307096E-02  0.13898789560E-01  0.00000000000E+00 0.  1.
     999901    1    3    3    0    0  0.84806565497E-01  0.17673637389E-01 -0.91158380524E-01  0.88894002123E+00  0.88000000000E+00 0.  1.
        -11    1    4    4    0    0 -0.22757173538E-01 -0.18214251587E-01  0.51101444795E-01  0.58832530878E-01  0.51100000000E-03 0. -1.
         11    1    4    4    0    0 -0.69611950526E-01 -0.10871921492E-01  0.42452366438E-01  0.82258658329E-01  0.51100000000E-03 0.  1.
</event>
<event>
 8    1  0.2190512E+004  0.1043930E+01  0.7957747E-01            NaN
         13   -1    0    0    0    0  0.00000000000E+00  0.00000000000E+00  0.74505805969E-08  0.10566000000E+00  0.10566000000E+00 0. -1.
     999900   -1    0    0    0    0 -0.00000000000E+00 -0.00000000000E+00 -0.74505805969E-08  0.93827000000E+00  0.93827000000E+00 0. -1.
     999902    2    1    2    0    0 -0.12020125989E-01  0.38476565589E-02 -0.88019190222E-02  0.10285429383E+01  0.10284278362E+01 0.  0.
     999903    2    3    3    0    0  0.40717094582E-01 -0.13147699527E-01 -0.12460825767E+00  0.13922794087E+00  0.45016195360E-01 0.  0.
         14    1    1    2    0    0  0.12020125989E-01 -0.38476565589E-02  0.88019190222E-02  0.15387061717E-01  0.00000000000E+00 0. -1.
     999901    1    3    3    0    0 -0.52737220572E-01  0.16995356086E-01  0.11580633864E+00  0.88931499742E+00  0.88000000000E+00 0.  1.
        -11    1    4    4    0    0 -0.48683214029E-02  0.67760014190E-02 -0.41764960385E-01  0.42593283338E-01  0.51100000000E-03 0.  1.
         11    1    4    4    0    0  0.45585415985E-01 -0.19923700946E-01 -0.82843297282E-01  0.96634657528E-01  0.51100000000E-03 0. -1.
</event>
<event>
 8    1  0.2190512E+004  0.1043930E+01  0.7957747E-01            NaN
         13   -1    0    0    0    0  0.00000000000E+00  0.00000000000E+00  0.74505805969E-08  0.10566000000E+00  0.10566000000E+00 0. -1.
     999900   -1    0    0    0    0 -0.00000000000E+00 -0.00000000000E+00 -0.74505805969E-08  0.93827000000E+00  0.93827000000E+00 0.  1.
     999902    2    1    2    0    0  0.14366665826E-01 -0.13309554347E-01 -0.52436093603E-02  0.10236558597E+01  0.10234550691E+01 0.  0.
     999903    2    3    3    0    0  0.11175164377E+00  0.50530412898E-01 -0.45954510979E-01  0.13505203753E+00  0.32946672803E-01 0.  0.
         14    1    1    2    0    0 -0.14366665826E-01  0.13309554347E-01  0.52436093603E-02  0.20274140253E-01  0.00000000000E+00 0.  1.
     999901    1    3    3    0    0 -0.97384977944E-01 -0.63839967245E-01  0.40710901618E-01  0.88860382222E+00  0.88000000000E+00 0.  1.
        -11    1    4    4    0    0  0.60186943714E-01  0.99669359547E-02 -0.16965019236E-01  0.63323621221E-01  0.51100000000E-03 0. -1.
         11    1    4    4    0    0  0.51564700057E-01  0.40563476943E-01 -0.28989491743E-01  0.71728416309E-01  0.51100000000E-03 0.  1.
</event>
<event>
 8    1  0.2190512E+004  0.1043930E+01  0.7957747E-01            NaN
         13   -1    0    0    0    0  0.00000000000E+00  0.00000000000E+00  0.74505805969E-08  0.10566000000E+00  0.10566000000E+00 0.  1.
     999900   -1    0    0    0    0 -0.00000000000E+00 -0.00000000000E+00 -0.74505805969E-08  0.93827000000E+00  0.93827000000E+00 0. -1.
     999902    2    1    2    0    0  0.19291379976E-02  0.17025714725E-02  0.14602619945E-01  0.10291024300E+01  0.10289956047E+01 0.  0.
     999903    2    3    3    0    0  0.11377414924E+00 -0.33462534464E-01  0.57651357237E-01  0.14028350299E+00  0.47869447175E-01 0.  0.
         14    1    1    2    0    0 -0.19291379976E-02 -0.17025714725E-02 -0.14602619945E-01  0.14827570006E-01  0.00000000000E+00 0. -1.
     999901    1    3    3    0    0 -0.11184501124E+00  0.35165105936E-01 -0.43048737293E-01  0.88881892700E+00  0.88000000000E+00 0. -1.
        -11    1    4    4    0    0  0.33243537464E-01 -0.21963183284E-01 -0.12220081333E-02  0.39865632166E-01  0.51100000000E-03 0.  1.
         11    1    4    4    0    0  0.80530611774E-01 -0.11499351179E-01  0.58873365370E-01  0.10041787083E+00  0.51100000000E-03 0. -1.
</event>
<event>
 8    1  0.2190512E+004  0.1043930E+01  0.7957747E-01            NaN
         13   -1    0    0    0    0  0.00000000000E+00  0.00000000000E+00  0.74505805969E-08  0.10566000000E+00  0.10566000000E+00 0.  1.
     999900   -1    0    0    0    0 -0.00000000000E+00 -0.00000000000E+00 -0.74505805969E-08  0.93827000000E+00  0.93827000000E+00 0.  1.
     999902    2    1    2    0    0  0.61625719620E-02 -0.12486601674E-01 -0.48724886168E-02  0.10291775880E+01  0.10290718507E+01 0.  0.
     999903    2    3    3    0    0  0.23196525475E-01  0.12047478289E+00  0.43738679116E-01  0.13770020130E+00  0.44676853990E-01 0.  0.
         14    1    1    2    0    0 -0.61625719620E-02  0.12486601674E-01  0.48724886168E-02  0.14752412002E-01  0.00000000000E+00 0.  1.
     999901    1    3    3    0    0 -0.17033953513E-01 -0.13296138456E+00 -0.48611167732E-01  0.89147738669E+00  0.88000000000E+00 0.  1.
        -11    1    4    4    0    0  0.36351972011E-01  0.82277614522E-01  0.33807555734E-01  0.96095180245E-01  0.51100000000E-03 0.  1.
         11    1    4    4    0    0 -0.13155446536E-01  0.38197168367E-01  0.99311233819E-02  0.41605021060E-01  0.51100000000E-03 0. -1.
</event>
<event>
 8    1  0.2190512E+004  0.1043930E+01  0.7957747E-01            NaN
         13   -1    0    0    0    0  0.00000000000E+00  0.00000000000E+00  0.74505805969E-08  0.10566000000E+00  0.10566000000E+00 0.  1.
     999900   -1    0    0    0    0 -0.00000000000E+00 -0.00000000000E+00 -0.74505805969E-08  0.93827000000E+00  0.93827000000E+00 0.  1.
     999902    2    1    2    0    0  0.10874123201E-01  0.24840459054E-03 -0.85352080652E-02  0.10301040086E+01  0.10300112187E+01 0.  0.
     999903    2    3    3    0    0 -0.86929095614E-01  0.29314445615E-02  0.97652836264E-01  0.13833690392E+00  0.45119414046E-01 0.  0.
         14    1    1    2    0    0 -0.10874123201E-01 -0.24840459054E-03  0.85352080652E-02  0.13825991355E-01  0.00000000000E+00 0. -1.
     999901    1    3    3    0    0  0.97803218815E-01 -0.26830399710E-02 -0.10618804433E+00  0.89176710473E+00  0.88000000000E+00 0.  1.
        -11    1    4    4    0    0 -0.82078025562E-02 -0.13394825292E-01  0.71112117777E-02  0.17251661409E-01  0.51100000000E-03 0. -1.
         11    1    4    4    0    0 -0.78721293058E-01  0.16326269854E-01  0.90541624486E-01  0.12108524251E+00  0.51100000000E-03 0.  1.
</event>
<event>
 8    1  0.2190512E+004  0.1043930E+01  0.7957747E-01            NaN
         13   -1    0    0    0    0  0.00000000000E+00  0.00000000000E+00  0.74505805969E-08  0.10566000000E+00  0.10566000000E+00 0. -1.
     999900   -1    0    0    0    0 -0.00000000000E+00 -0.00000000000E+00 -0.74505805969E-08  0.93827000000E+00  0.93827000000E+00 0.  1.
     999902    2    1    2    0    0  0.15202151819E-01 -0.14448217022E-02 -0.41728522377E-02  0.10280994717E+01  0.10279775864E+01 0.  0.
     999903    2    3    3    0    0  0.90581774950E-01 -0.84939134529E-02  0.95310288350E-01  0.13926390058E+00  0.45090779760E-01 0.  0.
         14    1    1    2    0    0 -0.15202151819E-01  0.14448217022E-02  0.41728522377E-02  0.15830528275E-01  0.00000000000E+00 0. -1.
     999901    1    3    3    0    0 -0.75379623131E-01  0.70490917506E-02 -0.99483140588E-01  0.88883557115E+00  0.88000000000E+00 0.  1.
        -11    1    4    4    0    0  0.55493553696E-01  0.15227591539E-01  0.42362209261E-01  0.71457903274E-01  0.51100000000E-03 0. -1.
         11    1    4    4    0    0  0.35088221254E-01 -0.23721504991E-01  0.52948079089E-01  0.67805997301E-01  0.51100000000E-03 0.  1.
</event>
<event>
 8    1  0.2190512E+004  0.1043930E+01  0.7957747E-01            NaN
         13   -1    0    0    0    0  0.00000000000E+00  0.00000000000E+00  0.74505805969E-08  0.10566000000E+00  0.10566000000E+00 0.  1.
     999900   -1    0    0    0    0 -0.00000000000E+00 -0.00000000000E+00 -0.74505805969E-08  0.93827000000E+00  0.93827000000E+00 0. -1.
     999902    2    1    2    0    0  0.42455005971E-02 -0.89837460332E-02  0.87349752817E-02  0.10307000430E+01  0.10306151304E+01 0.  0.
     999903    2    3    3    0    0 -0.60892361160E-02 -0.82609678685E-01 -0.10262305682E+00  0.14057185224E+00  0.48657127350E-01 0.  0.
         14    1    1    2    0    0 -0.42455005971E-02  0.89837460332E-02 -0.87349752817E-02  0.13229956964E-01  0.00000000000E+00 0. -1.
     999901    1    3    3    0    0  0.10334736713E-01  0.73625932652E-01  0.11135803210E+00  0.89012819080E+00  0.88000000000E+00 0.  1.
        -11    1    4    4    0    0 -0.15846789581E-01 -0.28559261588E-01 -0.12389940464E-01  0.34935997311E-01  0.51100000000E-03 0.  1.
         11    1    4    4    0    0  0.97575534645E-02 -0.54050417097E-01 -0.90233116354E-01  0.10563585493E+00  0.51100000000E-03 0. -1.
</event>
<event>
 8    1  0.2190512E+004  0.1043930E+01  0.7957747E-01            NaN
         13   -1    0    0    0    0  0.00000000000E+00  0.00000000000E+00  0.74505805969E-08  0.10566000000E+00  0.10566000000E+00 0.  1.
     999900   -1    0    0    0    0 -0.00000000000E+00 -0.00000000000E+00 -0.74505805969E-08  0.93827000000E+00  0.93827000000E+00 0. -1.
     999902    2    1    2    0    0 -0.10168931760E-01 -0.56261235600E-02  0.35740590774E-02  0.10317712855E+01  0.10316996420E+01 0.  0.
     999903    2    3    3    0    0  0.12263249553E+00  0.82202559597E-02  0.48227381810E-01  0.14058002628E+00  0.48275893207E-01 0.  0.
         14    1    1    2    0    0  0.10168931760E-01  0.56261235600E-02 -0.35740590774E-02  0.12158714477E-01  0.00000000000E+00 0. -1.
     999901    1    3    3    0    0 -0.13280142729E+00 -0.13846379520E-01 -0.44653322733E-01  0.89119125924E+00  0.88000000000E+00 0.  1.
        -11    1    4    4    0    0  0.80000645284E-01 -0.15211522600E-01  0.41710073740E-01  0.91495819784E-01  0.51100000000E-03 0. -1.
         11    1    4    4    0    0  0.42631850247E-01  0.23431778560E-01  0.65173080701E-02  0.49084206497E-01  0.51100000000E-03 0.  1.
</event>
<event>
 8    1  0.2190512E+004  0.1043930E+01  0.7957747E-01            NaN
         13   -1    0    0    0    0  0.00000000000E+00  0.00000000000E+00  0.74505805969E-08  0.10566000000E+00  0.10566000000E+00 0. -1.
     999900   -1    0    0    0    0 -0.00000000000E+00 -0.00000000000E+00 -0.74505805969E-08  0.93827000000E+00  0.93827000000E+00 0. -1.
     999902    2    1    2    0    0  0.49689234784E-03 -0.14888004461E-02  0.11256373710E-01  0.10325647293E+01  0.10325021796E+01 0.  0.
     999903    2    3    3    0    0  0.11313927732E+00 -0.21347856153E-01 -0.68545011331E-01  0.14158159252E+00  0.45724191916E-01 0.  0.
         14    1    1    2    0    0 -0.49689234784E-03  0.14888004461E-02 -0.11256373710E-01  0.11365270691E-01  0.00000000000E+00 0.  1.
     999901    1    3    3    0    0 -0.11264238498E+00  0.19859055707E-01  0.79801385041E-01  0.89098313679E+00  0.88000000000E+00 0.  1.
        -11    1    4    4    0    0  0.47922848006E-02 -0.17345795507E-02 -0.21052809672E-01  0.21666948929E-01  0.51100000000E-03 0. -1.
         11    1    4    4    0    0  0.10834699252E+00 -0.19613276603E-01 -0.47492201659E-01  0.11991464359E+00  0.51100000000E-03 0.  1.
</event>
<event>
 8    1  0.2190512E+004  0.1043930E+01  0.7957747E-01            NaN
         13   -1    0    0    0    0  0.00000000000E+00  0.00000000000E+00  0.74505805969E-08  0.10566000000E+00  0.10566000000E+00 0.  1.
     999900   -1    0    0    0    0 -0.00000000000E+00 -0.00000000000E+00 -0.74505805969E-08  0.93827000000E+00  0.93827000000E+00 0.  1.
     999902    2    1    2    0    0 -0.79886865032E-02  0.17513390196E-01 -0.49040666225E-02  0.10240657654E+01  0.10238730898E+01 0.  0.
     999903    2    3    3    0    0 -0.80949112829E-01  0.71697651787E-01 -0.70883813581E-01  0.13692852400E+00  0.45073201757E-01 0.  0.
         14    1    1    2    0    0  0.79886865032E-02 -0.17513390196E-01  0.49040666225E-02  0.19864234635E-01  0.00000000000E+00 0.  1.
     999901    1    3    3    0    0  0.72960426326E-01 -0.54184261592E-01  0.65979746959E-01  0.88713724137E+00  0.88000000000E+00 0. -1.
        -11    1    4    4    0    0 -0.52089835777E-01  0.16587947472E-01 -0.28506319842E-01  0.61655351629E-01  0.51100000000E-03 0.  1.
         11    1    4    4    0    0 -0.28859277052E-01  0.55109704315E-01 -0.42377493739E-01  0.75273172368E-01  0.51100000000E-03 0. -1.
</event>
<event>
 8    1  0.2190512E+004  0.1043930E+01  0.7957747E-01            NaN
         13   -1    0    0    0    0  0.00000000000E+00  0.00000000000E+00  0.74505805969E-08  0.10566000000E+00  0.10566000000E+00 0.  1.
     999900   -1    0    0    0    0 -0.00000000000E+00 -0.00000000000E+00 -0.74505805969E-08  0.93827000000E+00  0.93827000000E+00 0. -1.
     999902    2    1    2    0    0  0.82463246553E-02  0.11695507888E-01  0.58077498135E-02  0.10284860130E+01  0.10283700512E+01 0.  0.
     999903    2    3    3    0    0 -0.70968226871E-01 -0.56390493580E-01  0.93699763995E-01  0.13796051935E+00  0.45134046298E-01 0.  0.
         14    1    1    2    0    0 -0.82463246553E-02 -0.11695507888E-01 -0.58077498135E-02  0.15443986952E-01  0.00000000000E+00 0. -1.
     999901    1    3    3    0    0  0.79214551526E-01  0.68086001468E-01 -0.87892014182E-01  0.89052549370E+00  0.88000000000E+00 0. -1.
        -11    1    4    4    0    0 -0.61471781212E-01 -0.21916925342E-01  0.64952328000E-01  0.92077128189E-01  0.51100000000E-03 0. -1.
         11    1    4    4    0    0 -0.94964456584E-02 -0.34473568237E-01  0.28747435995E-01  0.45883391161E-01  0.51100000000E-03 0.  1.
</event>
<event>
 8    1  0.2190512E+004  0.1043930E+01  0.7957747E-01            NaN
         13   -1    0    0    0    0  0.00000000000E+00  0.00000000000E+00  0.74505805969E-08  0.10566000000E+00  0.10566000000E+00 0. -1.
     999900   -1    0    0    0    0 -0.00000000000E+00 -0.00000000000E+00 -0.74505805969E-08  0.93827000000E+00  0.93827000000E+00 0. -1.
     999902    2    1    2    0    0  0.81567462080E-02  0.96091310712E-02 -0.20733624121E-02  0.10311563263E+01  0.10310772049E+01 0.  0.
     999903    2    3    3    0    0  0.10812504985E+00  0.14687231801E-01 -0.79646263111E-01  0.14209108471E+00  0.44040980286E-01 0.  0.
         14    1    1    2    0    0 -0.81567462080E-02 -0.96091310712E-02  0.20733624121E-02  0.12773673721E-01  0.00000000000E+00 0. -1.
     999901    1    3    3    0    0 -0.99968303639E-01 -0.50781007303E-02  0.77572900699E-01  0.88906524157E+00  0.88000000000E+00 0. -1.
        -11    1    4    4    0    0  0.74560091993E-02  0.46051631301E-02  0.50659554577E-02  0.10135315798E-01  0.51100000000E-03 0.  1.
         11    1    4    4    0    0  0.10066904065E+00  0.10082068671E-01 -0.84712218569E-01  0.13195576891E+00  0.51100000000E-03 0. -1.
</event>
<event>
 8    1  0.2190512E+004  0.1043930E+01  0.7957747E-01            NaN
         13   -1    0    0    0    0  0.00000000000E+00  0.00000000000E+00  0.74505805969E-08  0.10566000000E+00  0.10566000000E+00 0.  1.
     999900   -1    0    0    0    0 -0.00000000000E+00 -0.00000000000E+00 -0.74505805969E-08  0.93827000000E+00  0.93827000000E+00 0.  1.
     999902    2    1    2    0    0  0.53848215839E-02  0.47769704067E-02 -0.11410920060E-01  0.10304383416E+01  0.10303500138E+01 0.  0.
     999903    2    3    3    0    0  0.82651686486E-01 -0.99542782982E-01 -0.32591437896E-01  0.14066230591E+00  0.44537799180E-01 0.  0.
         14    1    1    2    0    0 -0.53848215839E-02 -0.47769704067E-02  0.11410920060E-01  0.13491658400E-01  0.00000000000E+00 0.  1.
     999901    1    3    3    0    0 -0.77266864902E-01  0.10431975339E+00  0.21180517836E-01  0.88977603569E+00  0.88000000000E+00 0. -1.
        -11    1    4    4    0    0  0.38511634097E-01 -0.50804843104E-01  0.66283914599E-02  0.64097384799E-01  0.51100000000E-03 0.  1.
         11    1    4    4    0    0  0.44140052389E-01 -0.48737939878E-01 -0.39219829356E-01  0.76564921107E-01  0.51100000000E-03 0. -1.
</event>
<event>
 8    1  0.2190512E+004  0.1043930E+01  0.7957747E-01            NaN
         13   -1    0    0    0    0  0.00000000000E+00  0.00000000000E+00  0.74505805969E-08  0.10566000000E+00  0.10566000000E+00 0. -1.
     999900   -1    0    0    0    0 -0.00000000000E+00 -0.00000000000E+00 -0.74505805969E-08  0.93827000000E+00  0.93827000000E+00 0. -1.
     999902    2    1    2    0    0  0.39753264301E-03 -0.22948608717E-02 -0.14417415376E-01  0.10293256758E+01  0.10292220657E+01 0.  0.
     999903    2    3    3    0    0 -0.49612250321E-02 -0.54466279892E-01 -0.12207849551E+00  0.14121448829E+00  0.45245809047E-01 0.  0.
         14    1    1    2    0    0 -0.39753264301E-03  0.22948608717E-02  0.14417415376E-01  0.14604324179E-01  0.00000000000E+00 0. -1.
     999901    1    3    3    0    0  0.53587576751E-02  0.52171419020E-01  0.10766108014E+00  0.88811118753E+00  0.88000000000E+00 0.  1.
        -11    1    4    4    0    0  0.74052565505E-02 -0.28216788143E-01 -0.10157170863E+00  0.10567922252E+00  0.51100000000E-03 0.  1.
         11    1    4    4    0    0 -0.12366481583E-01 -0.26249491749E-01 -0.20506786885E-01  0.35535265767E-01  0.51100000000E-03 0. -1.
</event>
<event>
 8    1  0.2190512E+004  0.1043930E+01  0.7957747E-01            NaN
         13   -1    0    0    0    0  0.00000000000E+00  0.00000000000E+00  0.74505805969E-08  0.10566000000E+00  0.10566000000E+00 0. -1.
     999900   -1    0    0    0    0 -0.00000000000E+00 -0.00000000000E+00 -0.74505805969E-08  0.93827000000E+00  0.93827000000E+00 0. -1.
     999902    2    1    2    0    0  0.12572186838E-01 -0.17346878915E-02 -0.51006414460E-02  0.10302520774E+01  0.10301612774E+01 0.  0.
     999903    2    3    3    0    0 -0.51123249444E-01 -0.10917760899E+00 -0.54782846813E-01  0.14004456706E+00  0.45584904531E-01 0.  0.
         14    1    1    2    0    0 -0.12572186838E-01  0.17346878915E-02  0.51006414460E-02  0.13677922618E-01  0.00000000000E+00 0. -1.
     999901    1    3    3    0    0  0.63695436282E-01  0.10744292110E+00  0.49682205367E-01  0.89020751032E+00  0.88000000000E+00 0.  1.
        -11    1    4    4    0    0 -0.40593721704E-01 -0.10925040614E+00 -0.42986561788E-01  0.12422401982E+00  0.51100000000E-03 0.  1.
         11    1    4    4    0    0 -0.10529527740E-01  0.72797152604E-04 -0.11796285025E-01  0.15820547249E-01  0.51100000000E-03 0. -1.
</event>
<event>
 8    1  0.2190512E+004  0.1043930E+01  0.7957747E-01            NaN
         13   -1    0    0    0    0  0.00000000000E+00  0.00000000000E+00  0.74505805969E-08  0.10566000000E+00  0.10566000000E+00 0. -1.
     999900   -1    0    0    0    0 -0.00000000000E+00 -0.00000000000E+00 -0.74505805969E-08  0.93827000000E+00  0.93827000000E+00 0.  1.
     999902    2    1    2    0    0 -0.66105652853E-02 -0.10492369315E-01 -0.59978340555E-02  0.10301545363E+01  0.10300624278E+01 0.  0.
     999903    2    3    3    0    0  0.21435040114E-01  0.12916273922E+00 -0.48124051780E-02  0.13869982035E+00  0.45519301119E-01 0.  0.
         14    1    1    2    0    0  0.66105652853E-02  0.10492369315E-01  0.59978340555E-02  0.13775463716E-01  0.00000000000E+00 0.  1.
     999901    1    3    3    0    0 -0.28045605400E-01 -0.13965510853E+00 -0.11854288776E-02  0.89145471594E+00  0.88000000000E+00 0.  1.
        -11    1    4    4    0    0  0.11520740983E-01  0.36278074057E-01  0.18642304634E-01  0.42386587185E-01  0.51100000000E-03 0. -1.
         11    1    4    4    0    0  0.99142991310E-02  0.92884665160E-01 -0.23454709812E-01  0.96313233164E-01  0.51100000000E-03 0.  1.
</event>
<event>
 8    1  0.2190512E+004  0.1043930E+01  0.7957747E-01            NaN
         13   -1    0    0    0    0  0.00000000000E+00  0.00000000000E+00  0.74505805969E-08  0.10566000000E+00  0.10566000000E+00 0. -1.
     999900   -1    0    0    0    0 -0.00000000000E+00 -0.00000000000E+00 -0.74505805969E-08  0.93827000000E+00  0.93827000000E+00 0.  1.
     999902    2    1    2    0    0  0.75618086150E-02 -0.11526280588E-02 -0.11461189279E-01  0.10301507271E+01  0.10300585674E+01 0.  0.
     999903    2    3    3    0    0 -0.64419794060E-01 -0.84734095205E-01 -0.80436168788E-01  0.14058636152E+00  0.44325737888E-01 0.  0.
         14    1    1    2    0    0 -0.75618086150E-02  0.11526280588E-02  0.11461189279E-01  0.13779272864E-01  0.00000000000E+00 0. -1.
     999901    1    3    3    0    0  0.71981602675E-01  0.83581467147E-01  0.68974979509E-01  0.88956436562E+00  0.88000000000E+00 0. -1.
        -11    1    4    4    0    0 -0.38614059514E-01 -0.19067028663E-01 -0.42367705406E-01  0.60414242994E-01  0.51100000000E-03 0.  1.
         11    1    4    4    0    0 -0.25805734546E-01 -0.65667066543E-01 -0.38068463382E-01  0.80172118527E-01  0.51100000000E-03 0. -1.
</event>
<event>
 8    1  0.2190512E+004  0.1043930E+01  0.7957747E-01            NaN
         13   -1    0    0    0    0  0.00000000000E+00  0.00000000000E+00  0.74505805969E-08  0.10566000000E+00  0.10566000000E+00 0.  1.
     999900   -1    0    0    0    0 -0.00000000000E+00 -0.00000000000E+00 -0.74505805969E-08  0.93827000000E+00  0.93827000000E+00 0.  1.
     999902    2    1    2    0    0  0.68174282960E-03 -0.93442222802E-02  0.10372219037E-01  0.10299527975E+01  0.10298579527E+01 0.  0.
     999903    2    3    3    0    0 -0.58911346399E-01 -0.79372983543E-01 -0.87336838572E-01  0.13978291275E+00  0.46270099142E-01 0.  0.
         14    1    1    2    0    0 -0.68174282960E-03  0.93442222802E-02 -0.10372219037E-01  0.13977202548E-01  0.00000000000E+00 0. -1.
     999901    1    3    3    0    0  0.59593089229E-01  0.70028761262E-01  0.97709057609E-01  0.89016988470E+00  0.88000000000E+00 0. -1.
        -11    1    4    4    0    0 -0.60008476160E-01 -0.48747908542E-01 -0.71388272984E-01  0.10523270613E+00  0.51100000000E-03 0.  1.
         11    1    4    4    0    0  0.10971297603E-02 -0.30625075001E-01 -0.15948565588E-01  0.34550206625E-01  0.51100000000E-03 0. -1.
</event>
<event>
 8    1  0.2190512E+004  0.1043930E+01  0.7957747E-01            NaN
         13   -1    0    0    0    0  0.00000000000E+00  0.00000000000E+00  0.74505805969E-08  0.10566000000E+00  0.10566000000E+00 0. -1.
     999900   -1    0    0    0    0 -0.00000000000E+00 -0.00000000000E+00 -0.74505805969E-08  0.93827000000E+00  0.93827000000E+00 0. -1.
     999902    2    1    2    0    0  0.65006822532E-02 -0.87777134645E-02 -0.86505965318E-02  0.10299965889E+01  0.10299023416E+01 0.  0.
     999903    2    3    3    0    0 -0.72747438758E-01 -0.51514583072E-02  0.10794808063E+00  0.13876784954E+00  0.47801679758E-01 0.  0.
         14    1    1    2    0    0 -0.65006822532E-02  0.87777134645E-02  0.86505965318E-02  0.13933411060E-01  0.00000000000E+00 0. -1.
     999901    1    3    3    0    0  0.79248121011E-01 -0.36262551573E-02 -0.11659867716E+00  0.89122873940E+00  0.88000000000E+00 0. -1.
        -11    1    4    4    0    0 -0.26420944922E-01  0.20353027328E-01  0.32019411335E-01  0.46236521011E-01  0.51100000000E-03 0.  1.
         11    1    4    4    0    0 -0.46326493836E-01 -0.25504485636E-01  0.75928669291E-01  0.92531328532E-01  0.51100000000E-03 0. -1.
</event>
<event>
 8    1  0.2190512E+004  0.1043930E+01  0.7957747E-01            NaN
         13   -1    0    0    0    0  0.00000000000E+00  0.00000000000E+00  0.74505805969E-08  0.10566000000E+00  0.10566000000E+00 0.  1.
     999900   -1    0    0    0    0 -0.00000000000E+00 -0.00000000000E+00 -0.74505805969E-08  0.93827000000E+00  0.93827000000E+00 0.  1.
     999902    2    1    2    0    0 -0.12165097178E-01 -0.13809817785E-02 -0.76720996218E-02  0.10294815464E+01  0.10293801516E+01 0.  0.
     999903    2    3    3    0    0 -0.10441952944E+00  0.32035362207E-01  0.75846157527E-01  0.14009814670E+00  0.44103838113E-01 0.  0.
         14    1    1    2    0    0  0.12165097178E-01  0.13809817785E-02  0.76720996218E-02  0.14448453641E-01  0.00000000000E+00 0.  1.
     999901    1    3    3    0    0  0.92254432261E-01 -0.33416343985E-01 -0.83518257149E-01  0.88938339966E+00  0.88000000000E+00 0.  1.
        -11    1    4    4    0    0 -0.94261879892E-01  0.38977246272E-01  0.55000519722E-01  0.11588721249E+00  0.51100000000E-03 0. -1.
         11    1    4    4    0    0 -0.10157649546E-01 -0.69418840655E-02  0.20845637806E-01  0.24210934208E-01  0.51100000000E-03 0.  1.
</event>
<event>
 8    1  0.2190512E+004  0.1043930E+01  0.7957747E-01            NaN
         13   -1    0    0    0    0  0.00000000000E+00  0.00000000000E+00  0.74505805969E-08  0.10566000000E+00  0.10566000000E+00 0. -1.
     999900   -1    0    0    0    0 -0.00000000000E+00 -0.00000000000E+00 -0.74505805969E-08  0.93827000000E+00  0.93827000000E+00 0. -1.
     999902    2    1    2    0    0  0.62724738870E-02  0.10947796739E-01 -0.61030497987E-02  0.10299141019E+01  0.10298187277E+01 0.  0.
     999903    2    3    3    0    0 -0.12759405263E+00 -0.27380425394E-01 -0.12380300606E-01  0.13894344954E+00  0.46066043501E-01 0.  0.
         14    1    1    2    0    0 -0.62724738870E-02 -0.10947796739E-01  0.61030497987E-02  0.14015898078E-01  0.00000000000E+00 0. -1.
     999901    1    3    3    0    0  0.13386652652E+00  0.38328222133E-01  0.62772508071E-02  0.89097065239E+00  0.88000000000E+00 0. -1.
        -11    1    4    4    0    0 -0.68964468787E-01  0.80480353445E-02 -0.62182233435E-03  0.69437141444E-01  0.51100000000E-03 0.  1.
         11    1    4    4    0    0 -0.58629583846E-01 -0.35428460739E-01 -0.11758478271E-01  0.69506308092E-01  0.51100000000E-03 0. -1.
</event>
<event>
 8    1  0.2190512E+004  0.1043930E+01  0.7957747E-01            NaN
         13   -1    0    0    0    0  0.00000000000E+00  0.00000000000E+00  0.74505805969E-08  0.10566000000E+00  0.10566000000E+00 0.  1.
     999900   -1    0    0    0    0 -0.00000000000E+00 -0.00000000000E+00 -0.74505805969E-08  0.93827000000E+00  0.93827000000E+00 0.  1.
     999902    2    1    2    0    0 -0.10101618075E-01  0.34959553024E-02 -0.10815580432E-01  0.10287233840E+01  0.10286109855E+01 0.  0.
     999903    2    3    3    0    0  0.93820913596E-01 -0.71515749218E-01  0.52969194427E-01  0.13715446015E+00  0.45702780734E-01 0.  0.
         14    1    1    2    0    0  0.10101618075E-01 -0.34959553024E-02  0.10815580432E-01  0.15206616037E-01  0.00000000000E+00 0.  1.
     999901    1    3    3    0    0 -0.10392253167E+00  0.75011704520E-01 -0.63784774860E-01  0.89156892381E+00  0.88000000000E+00 0.  1.
        -11    1    4    4    0    0  0.35895991349E-02  0.46707864182E-02  0.97439974752E-02  0.11397722383E-01  0.51100000000E-03 0.  1.
         11    1    4    4    0    0  0.90231314461E-01 -0.76186535636E-01  0.43225196952E-01  0.12575673777E+00  0.51100000000E-03 0. -1.
</event>
<event>
 8    1  0.2190512E+004  0.1043930E+01  0.7957747E-01            NaN
         13   -1    0    0    0    0  0.00000000000E+00  0.00000000000E+00  0.74505805969E-08  0.10566000000E+00  0.10566000000E+00 0. -1.
     999900   -1    0    0    0    0 -0.00000000000E+00 -0.00000000000E+00 -0.74505805969E-08  0.93827000000E+00  0.93827000000E+00 0.  1.
     999902    2    1    2    0    0  0.12922994809E-01 -0.30428998360E-02 -0.31455117774E-02  0.10302860534E+01  0.10301957069E+01 0.  0.
     999903    2    3    3    0    0  0.37159226571E-01  0.76788954019E-01 -0.10242569250E+00  0.14078221750E+00  0.45290823585E-01 0.  0.
         14    1    1    2    0    0 -0.12922994809E-01  0.30428998360E-02  0.31455117774E-02  0.13643946591E-01  0.00000000000E+00 0. -1.
     999901    1    3    3    0    0 -0.24236231762E-01 -0.79831853855E-01  0.99280180719E-01  0.88950383591E+00  0.88000000000E+00 0. -1.
        -11    1    4    4    0    0  0.10829723573E-01  0.13611445664E-01 -0.54538232920E-01  0.57247133874E-01  0.51100000000E-03 0. -1.
         11    1    4    4    0    0  0.26329502998E-01  0.63177508354E-01 -0.47887459576E-01  0.83535083621E-01  0.51100000000E-03 0.  1.
</event>
<event>
 8    1  0.2450920E+004  0.1043930E+01  0.7957747E-01            NaN
         13   -1    0    0    0    0  0.00000000000E+00  0.00000000000E+00  0.74505805969E-08  0.10566000000E+00  0.10566000000E+00 0.  1.
     999900   -1    0    0    0    0 -0.00000000000E+00 -0.00000000000E+00 -0.74505805969E-08  0.93827000000E+00  0.93827000000E+00 0.  1.
     999902    2    1    2    0    0  0.12820034708E-01 -0.52022866988E-02 -0.12495226491E-02  0.10300383340E+01  0.10299446544E+01 0.  0.
     999903    2    3    3    0    0  0.91424110080E-01 -0.84644099873E-02 -0.97359110976E-01  0.14131661431E+00  0.45404568608E-01 0.  0.
         14    1    1    2    0    0 -0.12820034708E-01  0.52022866988E-02  0.12495226491E-02  0.13891665979E-01  0.00000000000E+00 0. -1.
     999901    1    3    3    0    0 -0.78604075372E-01  0.32621232885E-02  0.96109588327E-01  0.88872171971E+00  0.88000000000E+00 0.  1.
        -11    1    4    4    0    0  0.53689215321E-01  0.17659691579E-01 -0.52802624104E-01  0.77348398702E-01  0.51100000000E-03 0. -1.
         11    1    4    4    0    0  0.37734894758E-01 -0.26124101566E-01 -0.44556486872E-01  0.63968215611E-01  0.51100000000E-03 0.  1.
</event>
<event>
 8    1  0.2190512E+004  0.1043930E+01  0.7957747E-01            NaN
         13   -1    0    0    0    0  0.00000000000E+00  0.00000000000E+00  0.74505805969E-08  0.10566000000E+00  0.10566000000E+00 0. -1.
     999900   -1    0    0    0    0 -0.00000000000E+00 -0.00000000000E+00 -0.74505805969E-08  0.93827000000E+00  0.93827000000E+00 0.  1.
     999902    2    1    2    0    0 -0.99947633181E-02 -0.89429823967E-02  0.11005624419E-02  0.10304732743E+01  0.10303854064E+01 0.  0.
     999903    2    3    3    0    0  0.12172896718E+00  0.49662366143E-01  0.15856008207E-03  0.13874090674E+00  0.44325184707E-01 0.  0.
         14    1    1    2    0    0  0.99947633181E-02  0.89429823967E-02 -0.11005624419E-02  0.13456725665E-01  0.00000000000E+00 0.  1.
     999901    1    3    3    0    0 -0.13172373050E+00 -0.58605348540E-01  0.94200235985E-03  0.89173236760E+00  0.88000000000E+00 0.  1.
        -11    1    4    4    0    0  0.19069265654E-01  0.26782160076E-01 -0.58154520407E-02  0.33391639588E-01  0.51100000000E-03 0. -1.
         11    1    4    4    0    0  0.10265970153E+00  0.22880206067E-01  0.59740121228E-02  0.10534926715E+00  0.51100000000E-03 0.  1.
</event>
<event>
 8    1  0.2190512E+004  0.1043930E+01  0.7957747E-01            NaN
         13   -1    0    0    0    0  0.00000000000E+00  0.00000000000E+00  0.74505805969E-08  0.10566000000E+00  0.10566000000E+00 0. -1.
     999900   -1    0    0    0    0 -0.00000000000E+00 -0.00000000000E+00 -0.74505805969E-08  0.93827000000E+00  0.93827000000E+00 0.  1.
     999902    2    1    2    0    0  0.38790796466E-02  0.12247062854E-01 -0.52112341366E-02  0.10300665672E+01  0.10299732706E+01 0.  0.
     999903    2    3    3    0    0  0.42364186967E-01 -0.36950636165E-01  0.11881297645E+00  0.13917739235E+00  0.45757505600E-01 0.  0.
         14    1    1    2    0    0 -0.38790796466E-02 -0.12247062854E-01  0.52112341366E-02  0.13863432789E-01  0.00000000000E+00 0. -1.
     999901    1    3    3    0    0 -0.38485107321E-01  0.49197699019E-01 -0.12402421058E+00  0.89088917486E+00  0.88000000000E+00 0.  1.
        -11    1    4    4    0    0  0.19813128494E-01 -0.43261019643E-01  0.65636732101E-01  0.81071065141E-01  0.51100000000E-03 0. -1.
         11    1    4    4    0    0  0.22551058473E-01  0.63103834782E-02  0.53176244346E-01  0.58106327209E-01  0.51100000000E-03 0.  1.
</event>
<event>
 8    1  0.2190512E+004  0.1043930E+01  0.7957747E-01            NaN
         13   -1    0    0    0    0  0.00000000000E+00  0.00000000000E+00  0.74505805969E-08  0.10566000000E+00  0.10566000000E+00 0. -1.
     999900   -1    0    0    0    0 -0.00000000000E+00 -0.00000000000E+00 -0.74505805969E-08  0.93827000000E+00  0.93827000000E+00 0. -1.
     999902    2    1    2    0    0 -0.12571767945E-01  0.40291765882E-02 -0.19907430903E-02  0.10305790947E+01  0.10304926122E+01 0.  0.
     999903    2    3    3    0    0  0.64438113448E-01  0.78737026708E-01 -0.85298346586E-01  0.14015675590E+00  0.44903434777E-01 0.  0.
         14    1    1    2    0    0  0.12571767945E-01 -0.40291765882E-02  0.19907430903E-02  0.13350905261E-01  0.00000000000E+00 0.  1.
     999901    1    3    3    0    0 -0.77009881393E-01 -0.74707850119E-01  0.83307603496E-01  0.89042233884E+00  0.88000000000E+00 0. -1.
        -11    1    4    4    0    0  0.19354101540E-01  0.64965929916E-04 -0.23385714149E-01  0.30360141868E-01  0.51100000000E-03 0.  1.
         11    1    4    4    0    0  0.45084011909E-01  0.78672060778E-01 -0.61912632437E-01  0.10979661403E+00  0.51100000000E-03 0. -1.
</event>
<event>
 8    1  0.2190512E+004  0.1043930E+01  0.7957747E-01            NaN
         13   -1    0    0    0    0  0.00000000000E+00  0.00000000000E+00  0.74505805969E-08  0.10566000000E+00  0.10566000000E+00 0.  1.
     999900   -1    0    0    0    0 -0.00000000000E+00 -0.00000000000E+00 -0.74505805969E-08  0.93827000000E+00  0.93827000000E+00 0. -1.
     999902    2    1    2    0    0  0.12661643772E-01  0.43930425201E-02  0.23287582592E-02  0.10303270900E+01  0.10302372898E+01 0.  0.
     999903    2    3    3    0    0  0.11498560665E+00  0.34071491042E-01  0.61298236297E-01  0.14194181151E+00  0.44804551581E-01 0.  0.
         14    1    1    2    0    0 -0.12661643772E-01 -0.43930425201E-02 -0.23287582592E-02  0.13602910006E-01  0.00000000000E+00 0.  1.
     999901    1    3    3    0    0 -0.10232396288E+00 -0.29678448522E-01 -0.58969478037E-01  0.88838527848E+00  0.88000000000E+00 0. -1.
        -11    1    4    4    0    0  0.94431675319E-01  0.44858983717E-01  0.46597046361E-01  0.11446054156E+00  0.51100000000E-03 0. -1.
         11    1    4    4    0    0  0.20553931335E-01 -0.10787492675E-01  0.14701189936E-01  0.27481269950E-01  0.51100000000E-03 0.  1.
</event>
<event>
 8    1  0.2190512E+004  0.1043930E+01  0.7957747E-01            NaN
         13   -1    0    0    0    0  0.00000000000E+00  0.00000000000E+00  0.74505805969E-08  0.10566000000E+00  0.10566000000E+00 0.  1.
     999900   -1    0    0    0    0 -0.00000000000E+00 -0.00000000000E+00 -0.74505805969E-08  0.93827000000E+00  0.93827000000E+00 0.  1.
     999902    2    1    2    0    0 -0.52386661182E-03  0.24058762818E-02  0.14498160014E-01  0.10292242419E+01  0.10291191772E+01 0.  0.
     999903    2    3    3    0    0  0.19308382634E-01  0.10009652009E+00 -0.81968201790E-01  0.13835806849E+00  0.45078176951E-01 0.  0.
         14    1    1    2    0    0  0.52386661182E-03 -0.24058762818E-02 -0.14498160014E-01  0.14705758080E-01  0.00000000000E+00 0. -1.
     999901    1    3    3    0    0 -0.19832249246E-01 -0.97690643812E-01  0.96466361805E-01  0.89086617343E+00  0.88000000000E+00 0. -1.
        -11    1    4    4    0    0  0.28087692669E-01  0.49074865152E-01 -0.26391945941E-01  0.62402378166E-01  0.51100000000E-03 0. -1.
         11    1    4    4    0    0 -0.87793100357E-02  0.51021654942E-01 -0.55576255849E-01  0.75955690326E-01  0.51100000000E-03 0.  1.
</event>
<event>
 8    1  0.2190512E+004  0.1043930E+01  0.7957747E-01            NaN
         13   -1    0    0    0    0  0.00000000000E+00  0.00000000000E+00  0.74505805969E-08  0.10566000000E+00  0.10566000000E+00 0. -1.
     999900   -1    0    0    0    0 -0.00000000000E+00 -0.00000000000E+00 -0.74505805969E-08  0.93827000000E+00  0.93827000000E+00 0. -1.
     999902    2    1    2    0    0 -0.13331893321E-01  0.23158342673E-03 -0.42529010682E-02  0.10299342800E+01  0.10298391821E+01 0.  0.
     999903    2    3    3    0    0  0.96791817270E-01  0.46194204473E-01 -0.75506713630E-01  0.13902637233E+00  0.46092385306E-01 0.  0.
         14    1    1    2    0    0  0.13331893321E-01 -0.23158342673E-03  0.42529010682E-02  0.13995719985E-01  0.00000000000E+00 0. -1.
     999901    1    3    3    0    0 -0.11012371059E+00 -0.45962621046E-01  0.71253812562E-01  0.89090790768E+00  0.88000000000E+00 0.  1.
        -11    1    4    4    0    0  0.91482580349E-02 -0.58760921393E-02 -0.20442777504E-01  0.23160037931E-01  0.51100000000E-03 0. -1.
         11    1    4    4    0    0  0.87643559235E-01  0.52070296612E-01 -0.55063936126E-01  0.11586633440E+00  0.51100000000E-03 0.  1.
</event>
<event>
 8    1  0.2190512E+004  0.1043930E+01  0.7957747E-01            NaN
         13   -1    0    0    0    0  0.00000000000E+00  0.00000000000E+00  0.74505805969E-08  0.10566000000E+00  0.10566000000E+00 0.  1.
     999900   -1    0    0    0    0 -0.00000000000E+00 -0.00000000000E+00 -0.74505805969E-08  0.93827000000E+00  0.93827000000E+00 0. -1.
     999902    2    1    2    0    0  0.13910417990E-01  0.33139704297E-02  0.13443517280E-02  0.10295672214E+01  0.10294670339E+01 0.  0.
     999903    2    3    3    0    0  0.13599374553E-01 -0.12558943412E+00  0.38415035037E-01  0.13940407900E+00  0.44722850697E-01 0.  0.
         14    1    1    2    0    0 -0.13910417990E-01 -0.33139704297E-02 -0.13443517280E-02  0.14362778639E-01  0.00000000000E+00 0.  1.
     999901    1    3    3    0    0  0.31104343761E-03  0.12890340455E+00 -0.37070683309E-01  0.89016314236E+00  0.88000000000E+00 0. -1.
        -11    1    4    4    0    0 -0.42561702914E-02 -0.32923568555E-01 -0.81238768072E-02  0.34180913495E-01  0.51100000000E-03 0. -1.
         11    1    4    4    0    0  0.17855544844E-01 -0.92665865566E-01  0.46538911844E-01  0.10522316551E+00  0.51100000000E-03 0.  1.
</event>
<event>
 7    1  0.2470280E+004  0.1043930E+01  0.7957747E-01            NaN
         13   -1    0    0    0    0  0.00000000000E+00  0.00000000000E+00  0.74505805969E-08  0.10566000000E+00  0.10566000000E+00 0.  1.
     999900   -1    0    0    0    0 -0.00000000000E+00 -0.00000000000E+00 -0.74505805969E-08  0.93827000000E+00  0.93827000000E+00 0.  1.
     999903    2    1    2    0    0  0.78335056170E-01  0.28191714195E-01 -0.61791965562E-01  0.11306802640E+00  0.45110728345E-01 0.  0.
         14    1    1    2    0    0 -0.36105857942E-01  0.55746327283E-02  0.32211861308E-01  0.48706401188E-01  0.00000000000E+00 0.  1.
     999901    1    1    2    0    0 -0.42229198228E-01 -0.33766346923E-01  0.29580104255E-01  0.88215557241E+00  0.88000000000E+00 0. -1.
        -11    1    3    3    0    0  0.72709189479E-01  0.84876557012E-02 -0.41150290005E-01  0.83977818634E-01  0.51100000000E-03 0. -1.
         11    1    3    3    0    0  0.56258666907E-02  0.19704058494E-01 -0.20641675557E-01  0.29090207767E-01  0.51100000000E-03 0.  1.
</event>
<event>
 8    1  0.2190512E+004  0.1043930E+01  0.7957747E-01            NaN
         13   -1    0    0    0    0  0.00000000000E+00  0.00000000000E+00  0.74505805969E-08  0.10566000000E+00  0.10566000000E+00 0.  1.
     999900   -1    0    0    0    0 -0.00000000000E+00 -0.00000000000E+00 -0.74505805969E-08  0.93827000000E+00  0.93827000000E+00 0. -1.
     999902    2    1    2    0    0 -0.22549072521E-02  0.12531430604E-01 -0.40564691199E-02  0.10305667556E+01  0.10304801121E+01 0.  0.
     999903    2    3    3    0    0 -0.67384292594E-01  0.74739758526E-01 -0.89167461679E-01  0.14188481363E+00  0.45318756856E-01 0.  0.
         14    1    1    2    0    0  0.22549072521E-02 -0.12531430604E-01  0.40564691199E-02  0.13363244420E-01  0.00000000000E+00 0.  1.
     999901    1    3    3    0    0  0.65129385342E-01 -0.62208327921E-01  0.85110992559E-01  0.88868194195E+00  0.88000000000E+00 0.  1.
        -11    1    4    4    0    0 -0.28436280419E-01  0.52941079457E-01 -0.72662977574E-01  0.94295012429E-01  0.51100000000E-03 0. -1.
         11    1    4    4    0    0 -0.38948012175E-01  0.21798679068E-01 -0.16504484106E-01  0.47589801199E-01  0.51100000000E-03 0.  1.
</event>
<event>
 8    1  0.2190512E+004  0.1043930E+01  0.7957747E-01            NaN
         13   -1    0    0    0    0  0.00000000000E+00  0.00000000000E+00  0.74505805969E-08  0.10566000000E+00  0.10566000000E+00 0. -1.
     999900   -1    0    0    0    0 -0.00000000000E+00 -0.00000000000E+00 -0.74505805969E-08  0.93827000000E+00  0.93827000000E+00 0.  1.
     999902    2    1    2    0    0 -0.23544926580E-02 -0.88655616796E-02 -0.10730474817E-01  0.10298131693E+01  0.10297164069E+01 0.  0.
     999903    2    3    3    0    0  0.21621586924E-01 -0.12982905684E+00  0.19165284267E-01  0.14071206369E+00  0.45929290501E-01 0.  0.
         14    1    1    2    0    0  0.23544926580E-02  0.88655616796E-02  0.10730474817E-01  0.14116830713E-01  0.00000000000E+00 0. -1.
     999901    1    3    3    0    0 -0.23976079583E-01  0.12096349517E+00 -0.29895759084E-01  0.88910110559E+00  0.88000000000E+00 0. -1.
        -11    1    4    4    0    0 -0.65295208434E-02 -0.71485430411E-01 -0.40419638233E-02  0.71898539596E-01  0.51100000000E-03 0.  1.
         11    1    4    4    0    0  0.28151107768E-01 -0.58343626434E-01  0.23207248090E-01  0.68813524099E-01  0.51100000000E-03 0. -1.
</event>
<event>
 8    1  0.2190512E+004  0.1043930E+01  0.7957747E-01            NaN
         13   -1    0    0    0    0  0.00000000000E+00  0.00000000000E+00  0.74505805969E-08  0.10566000000E+00  0.10566000000E+00 0.  1.
     999900   -1    0    0    0    0 -0.00000000000E+00 -0.00000000000E+00 -0.74505805969E-08  0.93827000000E+00  0.93827000000E+00 0.  1.
     999902    2    1    2    0    0 -0.55400233339E-02 -0.11942920781E-01 -0.64319491831E-02  0.10292775195E+01  0.10291732201E+01 0.  0.
     999903    2    3    3    0    0 -0.12176469252E+00  0.48701830451E-01  0.16889825150E-01  0.13926074169E+00  0.43701022274E-01 0.  0.
         14    1    1    2    0    0  0.55400233339E-02  0.11942920781E-01  0.64319491831E-02  0.14652480528E-01  0.00000000000E+00 0. -1.
     999901    1    3    3    0    0  0.11622466919E+00 -0.60644751232E-01 -0.23321774333E-01  0.89001677778E+00  0.88000000000E+00 0. -1.
        -11    1    4    4    0    0 -0.65592719370E-01  0.12592269983E-01 -0.94835746398E-02  0.67462355478E-01  0.51100000000E-03 0.  1.
         11    1    4    4    0    0 -0.56171973151E-01  0.36109560468E-01  0.26373399790E-01  0.71798386209E-01  0.51100000000E-03 0. -1.
</event>
<event>
 8    1  0.2190512E+004  0.1043930E+01  0.7957747E-01            NaN
         13   -1    0    0    0    0  0.00000000000E+00  0.00000000000E+00  0.74505805969E-08  0.10566000000E+00  0.10566000000E+00 0. -1.
     999900   -1    0    0    0    0 -0.00000000000E+00 -0.00000000000E+00 -0.74505805969E-08  0.93827000000E+00  0.93827000000E+00 0. -1.
     999902    2    1    2    0    0 -0.11610626386E-01 -0.76198426082E-02  0.19275874552E-02  0.10299091498E+01  0.10298137077E+01 0.  0.
     999903    2    3    3    0    0 -0.71008370945E-01  0.32139624156E-01  0.10803326511E+00  0.14065816045E+00  0.45148505479E-01 0.  0.
         14    1    1    2    0    0  0.11610626386E-01  0.76198426082E-02 -0.19275874552E-02  0.14020850183E-01  0.00000000000E+00 0.  1.
     999901    1    3    3    0    0  0.59397744559E-01 -0.39759466765E-01 -0.10610567765E+00  0.88925098936E+00  0.88000000000E+00 0. -1.
        -11    1    4    4    0    0  0.36696805704E-02  0.91212462956E-02  0.42004745938E-02  0.10703681483E-01  0.51100000000E-03 0. -1.
         11    1    4    4    0    0 -0.74678051516E-01  0.23018377861E-01  0.10383279051E+00  0.12995447897E+00  0.51100000000E-03 0.  1.
</event>
<event>
 8    1  0.2190512E+004  0.1043930E+01  0.7957747E-01            NaN
         13   -1    0    0    0    0  0.00000000000E+00  0.00000000000E+00  0.74505805969E-08  0.10566000000E+00  0.10566000000E+00 0.  1.
     999900   -1    0    0    0    0 -0.00000000000E+00 -0.00000000000E+00 -0.74505805969E-08  0.93827000000E+00  0.93827000000E+00 0. -1.
     999902    2    1    2    0    0  0.11494393204E-01  0.24321985455E-02  0.76270925687E-02  0.10299225304E+01  0.10298272716E+01 0.  0.
     999903    2    3    3    0    0 -0.26552401474E-01 -0.12185222816E+00 -0.41369792665E-01  0.13902698537E+00  0.45431788268E-01 0.  0.
         14    1    1    2    0    0 -0.11494393204E-01 -0.24321985455E-02 -0.76270925687E-02  0.14007469648E-01  0.00000000000E+00 0.  1.
     999901    1    3    3    0    0  0.38046794678E-01  0.12428442670E+00  0.48996885234E-01  0.89089554498E+00  0.88000000000E+00 0.  1.
        -11    1    4    4    0    0  0.20642601680E-02 -0.46630123938E-01  0.36270805690E-02  0.46819295840E-01  0.51100000000E-03 0.  1.
         11    1    4    4    0    0 -0.28616661642E-01 -0.75222104218E-01 -0.44996873234E-01  0.92207689529E-01  0.51100000000E-03 0. -1.
</event>
<event>
 8    1  0.2190512E+004  0.1043930E+01  0.7957747E-01            NaN
         13   -1    0    0    0    0  0.00000000000E+00  0.00000000000E+00  0.74505805969E-08  0.10566000000E+00  0.10566000000E+00 0.  1.
     999900   -1    0    0    0    0 -0.00000000000E+00 -0.00000000000E+00 -0.74505805969E-08  0.93827000000E+00  0.93827000000E+00 0.  1.
     999902    2    1    2    0    0  0.89475146988E-02 -0.10680933581E-01  0.37484070357E-03  0.10299915328E+01  0.10298972166E+01 0.  0.
     999903    2    3    3    0    0 -0.50279755105E-01  0.30341262083E-01 -0.11793236480E+00  0.13915637137E+00  0.44808560208E-01 0.  0.
         14    1    1    2    0    0 -0.89475146988E-02  0.10680933581E-01 -0.37484070357E-03  0.13938467168E-01  0.00000000000E+00 0.  1.
     999901    1    3    3    0    0  0.59227269804E-01 -0.41022195664E-01  0.11830720550E+00  0.89083516146E+00  0.88000000000E+00 0. -1.
        -11    1    4    4    0    0 -0.42868268270E-01  0.13464183474E-01 -0.43748069381E-01  0.62714650255E-01  0.51100000000E-03 0. -1.
         11    1    4    4    0    0 -0.74114868344E-02  0.16877078609E-01 -0.74184295415E-01  0.76441721113E-01  0.51100000000E-03 0.  1.
</event>
<event>
 8    1  0.2190512E+004  0.1043930E+01  0.7957747E-01            NaN
         13   -1    0    0    0    0  0.00000000000E+00  0.00000000000E+00  0.74505805969E-08  0.10566000000E+00  0.10566000000E+00 0. -1.
     999900   -1    0    0    0    0 -0.00000000000E+00 -0.00000000000E+00 -0.74505805969E-08  0.93827000000E+00  0.93827000000E+00 0.  1.
     999902    2    1    2    0    0 -0.43309942447E-02 -0.11838492261E-01 -0.77821762273E-02  0.10291154910E+01  0.10290088552E+01 0.  0.
     999903    2    3    3    0    0 -0.26686069103E-01  0.11070189267E+00 -0.70644571174E-01  0.13812302413E+00  0.33470270916E-01 0.  0.
         14    1    1    2    0    0  0.43309942447E-02  0.11838492261E-01  0.77821762273E-02  0.14814509003E-01  0.00000000000E+00 0.  1.
     999901    1    3    3    0    0  0.22355074858E-01 -0.12254038493E+00  0.62862394947E-01  0.89099246686E+00  0.88000000000E+00 0.  1.
        -11    1    4    4    0    0 -0.32928658959E-01  0.68852543736E-01 -0.43493030532E-01  0.87845740851E-01  0.51100000000E-03 0. -1.
         11    1    4    4    0    0  0.62425898563E-02  0.41849348930E-01 -0.27151540642E-01  0.50277283282E-01  0.51100000000E-03 0.  1.
</event>
<event>
 8    1  0.2190512E+004  0.1043930E+01  0.7957747E-01            NaN
         13   -1    0    0    0    0  0.00000000000E+00  0.00000000000E+00  0.74505805969E-08  0.10566000000E+00  0.10566000000E+00 0.  1.
     999900   -1    0    0    0    0 -0.00000000000E+00 -0.00000000000E+00 -0.74505805969E-08  0.93827000000E+00  0.93827000000E+00 0.  1.
     999902    2    1    2    0    0  0.54919828493E-02 -0.57537827692E-02  0.95037905892E-02  0.10315368597E+01  0.10314624098E+01 0.  0.
     999903    2    3    3    0    0  0.66138516602E-01 -0.53082134081E-01  0.10589716359E+00  0.14293703002E+00  0.44997432767E-01 0.  0.
         14    1    1    2    0    0 -0.54919828493E-02  0.57537827692E-02 -0.95037905892E-02  0.12393140334E-01  0.00000000000E+00 0. -1.
     999901    1    3    3    0    0 -0.60646533753E-01  0.47328351312E-01 -0.96393373006E-01  0.88859982965E+00  0.88000000000E+00 0.  1.
        -11    1    4    4    0    0  0.35997988686E-01 -0.42488873715E-01  0.93166565969E-01  0.10854229459E+00  0.51100000000E-03 0. -1.
         11    1    4    4    0    0  0.30140527917E-01 -0.10593260366E-01  0.12730597626E-01  0.34394735428E-01  0.51100000000E-03 0.  1.
</event>
<event>
 8    1  0.2190512E+004  0.1043930E+01  0.7957747E-01            NaN
         13   -1    0    0    0    0  0.00000000000E+00  0.00000000000E+00  0.74505805969E-08  0.10566000000E+00  0.10566000000E+00 0.  1.
     999900   -1    0    0    0    0 -0.00000000000E+00 -0.00000000000E+00 -0.74505805969E-08  0.93827000000E+00  0.93827000000E+00 0.  1.
     999902    2    1    2    0    0  0.14382046492E-02  0.17095025764E-01  0.18507825019E-02  0.10266750374E+01  0.10265300281E+01 0.  0.
     999903    2    3    3    0    0  0.12137427362E+00 -0.12551409331E-01 -0.38028504447E-01  0.13715048502E+00  0.49747725757E-01 0.  0.
         14    1    1    2    0    0 -0.14382046492E-02 -0.17095025764E-01 -0.18507825019E-02  0.17254962601E-01  0.00000000000E+00 0. -1.
     999901    1    3    3    0    0 -0.11993606897E+00  0.29646435096E-01  0.39879286949E-01  0.88952455238E+00  0.88000000000E+00 0.  1.
        -11    1    4    4    0    0  0.48151469450E-01 -0.19768059526E-01  0.43574331147E-02  0.52235893139E-01  0.51100000000E-03 0.  1.
         11    1    4    4    0    0  0.73222804171E-01  0.72166501947E-02 -0.42385937562E-01  0.84914591883E-01  0.51100000000E-03 0. -1.
</event>
<event>
 7    1  0.2190512E+004  0.1043930E+01  0.7957747E-01            NaN
         13   -1    0    0    0    0  0.00000000000E+00  0.00000000000E+00  0.74505805969E-08  0.10566000000E+00  0.10566000000E+00 0. -1.
     999900   -1    0    0    0    0 -0.00000000000E+00 -0.00000000000E+00 -0.74505805969E-08  0.93827000000E+00  0.93827000000E+00 0.  1.
     999903    2    1    2    0    0  0.67061391250E-01  0.68413503558E-01 -0.64665201833E-01  0.12389230325E+00  0.44610276963E-01 0.  0.
         14    1    1    2    0    0 -0.18613942955E-01  0.24771090499E-01 -0.34608599606E-02  0.31177930472E-01  0.00000000000E+00 0. -1.
     999901    1    1    2    0    0 -0.48447448295E-01 -0.93184594056E-01  0.68126061794E-01  0.88885976628E+00  0.88000000000E+00 0.  1.
        -11    1    3    3    0    0  0.15160408534E-01  0.14186918793E-01  0.51306637544E-02  0.21393725325E-01  0.51100000000E-03 0. -1.
         11    1    3    3    0    0  0.51900982716E-01  0.54226584765E-01 -0.69795865588E-01  0.10249857792E+00  0.51100000000E-03 0.  1.
</event>
<event>
 8    1  0.2190512E+004  0.1043930E+01  0.7957747E-01            NaN
         13   -1    0    0    0    0  0.00000000000E+00  0.00000000000E+00  0.74505805969E-08  0.10566000000E+00  0.10566000000E+00 0.  1.
     999900   -1    0    0    0    0 -0.00000000000E+00 -0.00000000000E+00 -0.74505805969E-08  0.93827000000E+00  0.93827000000E+00 0.  1.
     999902    2    1    2    0    0 -0.11038076749E-02 -0.13523498125E-01 -0.91517780641E-03  0.10303307006E+01  0.10302409484E+01 0.  0.
     999903    2    3    3    0    0  0.43285980803E-01 -0.17128739890E-01  0.12599804190E+00  0.14011139258E+00  0.39857570235E-01 0.  0.
         14    1    1    2    0    0  0.11038076749E-02  0.13523498125E-01  0.91517780641E-03  0.13599299369E-01  0.00000000000E+00 0. -1.
     999901    1    3    3    0    0 -0.44389788478E-01  0.36052417649E-02 -0.12691321970E+00  0.89021930805E+00  0.88000000000E+00 0.  1.
        -11    1    4    4    0    0  0.14604410723E-01 -0.26722316115E-01  0.53606065841E-01  0.61654216458E-01  0.51100000000E-03 0. -1.
         11    1    4    4    0    0  0.28681570080E-01  0.95935762248E-02  0.72391976055E-01  0.78457176123E-01  0.51100000000E-03 0.  1.
</event>
<event>
 8    1  0.2190512E+004  0.1043930E+01  0.7957747E-01            NaN
         13   -1    0    0    0    0  0.00000000000E+00  0.00000000000E+00  0.74505805969E-08  0.10566000000E+00  0.10566000000E+00 0. -1.
     999900   -1    0    0    0    0 -0.00000000000E+00 -0.00000000000E+00 -0.74505805969E-08  0.93827000000E+00  0.93827000000E+00 0. -1.
     999902    2    1    2    0    0  0.31206208369E-02 -0.12458771853E-01  0.86143660896E-03  0.10310574966E+01  0.10309771384E+01 0.  0.
     999903    2    3    3    0    0 -0.10826057961E+00  0.61840267711E-01  0.44714432063E-01  0.13985089637E+00  0.44881187317E-01 0.  0.
         14    1    1    2    0    0 -0.31206208369E-02  0.12458771853E-01 -0.86143660896E-03  0.12872503390E-01  0.00000000000E+00 0. -1.
     999901    1    3    3    0    0  0.11138120044E+00 -0.74299039564E-01 -0.43852995454E-01  0.89120660024E+00  0.88000000000E+00 0. -1.
        -11    1    4    4    0    0 -0.47558097862E-01  0.37267026409E-01  0.43318771790E-01  0.74346358620E-01  0.51100000000E-03 0.  1.
         11    1    4    4    0    0 -0.60702481744E-01  0.24573241302E-01  0.13956602733E-02  0.65504537755E-01  0.51100000000E-03 0. -1.
</event>
<event>
 7    1  0.2190512E+004  0.1043930E+01  0.7957747E-01            NaN
         13   -1    0    0    0    0  0.00000000000E+00  0.00000000000E+00  0.74505805969E-08  0.10566000000E+00  0.10566000000E+00 0. -1.
     999900   -1    0    0    0    0 -0.00000000000E+00 -0.00000000000E+00 -0.74505805969E-08  0.93827000000E+00  0.93827000000E+00 0. -1.
     999903    2    1    2    0    0  0.10631977912E+00  0.28444264128E-01  0.10967540591E-01  0.11918036727E+00  0.44392582730E-01 0.  0.
         14    1    1    2    0    0  0.24721786622E-01  0.21484135948E-01  0.68816995135E-02  0.33467784800E-01  0.00000000000E+00 0. -1.
     999901    1    1    2    0    0 -0.13104156574E+00 -0.49928400076E-01 -0.17849240105E-01  0.89128184793E+00  0.88000000000E+00 0.  1.
        -11    1    3    3    0    0  0.54838726631E-02 -0.40737962392E-02  0.11317120718E-01  0.13229021791E-01  0.51100000000E-03 0. -1.
         11    1    3    3    0    0  0.10083590645E+00  0.32518060368E-01 -0.34958012701E-03  0.10595134547E+00  0.51100000000E-03 0.  1.
</event>
<event>
 8    1  0.2190512E+004  0.1043930E+01  0.7957747E-01            NaN
         13   -1    0    0    0    0  0.00000000000E+00  0.00000000000E+00  0.74505805969E-08  0.10566000000E+00  0.10566000000E+00 0.  1.
     999900   -1    0    0    0    0 -0.00000000000E+00 -0.00000000000E+00 -0.74505805969E-08  0.93827000000E+00  0.93827000000E+00 0.  1.
     999902    2    1    2    0    0 -0.12173712291E-01  0.66727127481E-02  0.32316607048E-02  0.10296762988E+01  0.10295776378E+01 0.  0.
     999903    2    3    3    0    0  0.61041005033E-01 -0.11331426728E+00  0.17133082976E-01  0.13841285867E+00  0.47942146885E-01 0.  0.
         14    1    1    2    0    0  0.12173712291E-01 -0.66727127481E-02 -0.32316607048E-02  0.14253701178E-01  0.00000000000E+00 0. -1.
     999901    1    3    3    0    0 -0.73214717324E-01  0.11998698003E+00 -0.13901422272E-01  0.89126344015E+00  0.88000000000E+00 0.  1.
        -11    1    4    4    0    0 -0.51599825528E-02 -0.30837900094E-01  0.78829117853E-02  0.32249076287E-01  0.51100000000E-03 0. -1.
         11    1    4    4    0    0  0.66200987586E-01 -0.82476367188E-01  0.92501711911E-02  0.10616378238E+00  0.51100000000E-03 0.  1.
</event>
<event>
 8    1  0.2190512E+004  0.1043930E+01  0.7957747E-01            NaN
         13   -1    0    0    0    0  0.00000000000E+00  0.00000000000E+00  0.74505805969E-08  0.10566000000E+00  0.10566000000E+00 0. -1.
     999900   -1    0    0    0    0 -0.00000000000E+00 -0.00000000000E+00 -0.74505805969E-08  0.93827000000E+00  0.93827000000E+00 0. -1.
     999902    2    1    2    0    0 -0.11209267491E-03 -0.89139716936E-02 -0.97899334840E-02  0.10306893711E+01  0.10306043205E+01 0.  0.
     999903    2    3    3    0    0 -0.76325808966E-01  0.10444080180E+00  0.23121878194E-01  0.13954346690E+00  0.46949416469E-01 0.  0.
         14    1    1    2    0    0  0.11209267491E-03  0.89139716936E-02  0.97899334840E-02  0.13240628903E-01  0.00000000000E+00 0. -1.
     999901    1    3    3    0    0  0.76213716291E-01 -0.11335477350E+00 -0.32911811678E-01  0.89114590420E+00  0.88000000000E+00 0. -1.
        -11    1    4    4    0    0 -0.10719642458E-01  0.32665248502E-01  0.24620720529E-01  0.42289126197E-01  0.51100000000E-03 0. -1.
         11    1    4    4    0    0 -0.65606166509E-01  0.71775553301E-01 -0.14988423356E-02  0.97254340700E-01  0.51100000000E-03 0.  1.
</event>
<event>
 8    1  0.2190512E+004  0.1043930E+01  0.7957747E-01            NaN
         13   -1    0    0    0    0  0.00000000000E+00  0.00000000000E+00  0.74505805969E-08  0.10566000000E+00  0.10566000000E+00 0.  1.
     999900   -1    0    0    0    0 -0.00000000000E+00 -0.00000000000E+00 -0.74505805969E-08  0.93827000000E+00  0.93827000000E+00 0.  1.
     999902    2    1    2    0    0 -0.78269003467E-02 -0.13113688963E-02 -0.11137234636E-01  0.10302545456E+01  0.10301637786E+01 0.  0.
     999903    2    3    3    0    0  0.63795031531E-01 -0.80336714943E-01 -0.84860190855E-01  0.14075480940E+00  0.45682278422E-01 0.  0.
         14    1    1    2    0    0  0.78269003467E-02  0.13113688963E-02  0.11137234636E-01  0.13675454389E-01  0.00000000000E+00 0.  1.
     999901    1    3    3    0    0 -0.71621931877E-01  0.79025346046E-01  0.73722956219E-01  0.88949973621E+00  0.88000000000E+00 0.  1.
        -11    1    4    4    0    0  0.13143804792E-01 -0.10756672079E-01 -0.40521593370E-01  0.43940030142E-01  0.51100000000E-03 0.  1.
         11    1    4    4    0    0  0.50651226739E-01 -0.69580042864E-01 -0.44338597484E-01  0.96814779259E-01  0.51100000000E-03 0. -1.
</event>
<event>
 7    1  0.2190512E+004  0.1043930E+01  0.7957747E-01            NaN
         13   -1    0    0    0    0  0.00000000000E+00  0.00000000000E+00  0.74505805969E-08  0.10566000000E+00  0.10566000000E+00 0.  1.
     999900   -1    0    0    0    0 -0.00000000000E+00 -0.00000000000E+00 -0.74505805969E-08  0.93827000000E+00  0.93827000000E+00 0. -1.
     999903    2    1    2    0    0 -0.88032173953E-01  0.14442484698E-01 -0.57513683993E-01  0.11529571544E+00  0.45022540326E-01 0.  0.
         14    1    1    2    0    0 -0.66347610219E-02 -0.20625699291E-01 -0.32403443516E-01  0.38979772662E-01  0.00000000000E+00 0. -1.
     999901    1    1    2    0    0  0.94666934974E-01  0.61832145934E-02  0.89917127509E-01  0.88965451190E+00  0.88000000000E+00 0. -1.
        -11    1    3    3    0    0 -0.66822373136E-01  0.27267787530E-01 -0.29723259658E-01  0.78054436607E-01  0.51100000000E-03 0. -1.
         11    1    3    3    0    0 -0.21209800816E-01 -0.12825302832E-01 -0.27790424336E-01  0.37241278834E-01  0.51100000000E-03 0.  1.
</event>
<event>
 8    1  0.2190512E+004  0.1043930E+01  0.7957747E-01            NaN
         13   -1    0    0    0    0  0.00000000000E+00  0.00000000000E+00  0.74505805969E-08  0.10566000000E+00  0.10566000000E+00 0.  1.
     999900   -1    0    0    0    0 -0.00000000000E+00 -0.00000000000E+00 -0.74505805969E-08  0.93827000000E+00  0.93827000000E+00 0.  1.
     999902    2    1    2    0    0  0.11883453737E-01 -0.69454901279E-02  0.12065844985E-02  0.10301129036E+01  0.10300202338E+01 0.  0.
     999903    2    3    3    0    0 -0.72857070909E-01 -0.40680353507E-01  0.10229595060E+00  0.13964220930E+00  0.45524072398E-01 0.  0.
         14    1    1    2    0    0 -0.11883453737E-01  0.69454901279E-02 -0.12065844985E-02  0.13817096366E-01  0.00000000000E+00 0. -1.
     999901    1    3    3    0    0  0.84740524646E-01  0.33734863380E-01 -0.10108936610E+00  0.89047069433E+00  0.88000000000E+00 0.  1.
        -11    1    4    4    0    0 -0.36978782715E-01 -0.45490618709E-01  0.58513735892E-01  0.82830822588E-01  0.51100000000E-03 0. -1.
         11    1    4    4    0    0 -0.35878288194E-01  0.48102652017E-02  0.43782214703E-01  0.56811386714E-01  0.51100000000E-03 0.  1.
</event>
<event>
 8    1  0.2190512E+004  0.1043930E+01  0.7957747E-01            NaN
         13   -1    0    0    0    0  0.00000000000E+00  0.00000000000E+00  0.74505805969E-08  0.10566000000E+00  0.10566000000E+00 0.  1.
     999900   -1    0    0    0    0 -0.00000000000E+00 -0.00000000000E+00 -0.74505805969E-08  0.93827000000E+00  0.93827000000E+00 0.  1.
     999902    2    1    2    0    0 -0.46923533503E-02  0.11712915699E-01  0.90010719277E-02  0.10284306494E+01  0.10283138483E+01 0.  0.
     999903    2    3    3    0    0 -0.62638090561E-01  0.10113423378E+00  0.60759461961E-01  0.14049325770E+00  0.43531363527E-01 0.  0.
         14    1    1    2    0    0  0.46923533503E-02 -0.11712915699E-01 -0.90010719277E-02  0.15499350631E-01  0.00000000000E+00 0. -1.
     999901    1    3    3    0    0  0.57945737210E-01 -0.89421318077E-01 -0.51758390034E-01  0.88793739167E+00  0.88000000000E+00 0. -1.
        -11    1    4    4    0    0 -0.66299492603E-01  0.80785143194E-01  0.58286227131E-01  0.11966372664E+00  0.51100000000E-03 0.  1.
         11    1    4    4    0    0  0.36614020422E-02  0.20349090582E-01  0.24732348300E-02  0.20829531054E-01  0.51100000000E-03 0. -1.
</event>
<event>
 8    1  0.2190512E+004  0.1043930E+01  0.7957747E-01            NaN
         13   -1    0    0    0    0  0.00000000000E+00  0.00000000000E+00  0.74505805969E-08  0.10566000000E+00  0.10566000000E+00 0.  1.
     999900   -1    0    0    0    0 -0.00000000000E+00 -0.00000000000E+00 -0.74505805969E-08  0.93827000000E+00  0.93827000000E+00 0.  1.
     999902    2    1    2    0    0 -0.12273943394E-01  0.26333676906E-02 -0.56308302504E-02  0.10301717094E+01  0.10300798320E+01 0.  0.
     999903    2    3    3    0    0  0.11597461647E+00 -0.35456398779E-01  0.47279429203E-01  0.13848901974E+00  0.47292666281E-01 0.  0.
         14    1    1    2    0    0  0.12273943394E-01 -0.26333676906E-02  0.56308302504E-02  0.13758290633E-01  0.00000000000E+00 0.  1.
     999901    1    3    3    0    0 -0.12824855987E+00  0.38089766469E-01 -0.52910259454E-01  0.89168268962E+00  0.88000000000E+00 0.  1.
        -11    1    4    4    0    0  0.94980262786E-01 -0.19809386393E-01  0.54551355241E-01  0.11130935984E+00  0.51100000000E-03 0.  1.
         11    1    4    4    0    0  0.20994353685E-01 -0.15647012385E-01 -0.72719260380E-02  0.27179659905E-01  0.51100000000E-03 0. -1.
</event>
<event>
 8    1  0.2190512E+004  0.1043930E+01  0.7957747E-01            NaN
         13   -1    0    0    0    0  0.00000000000E+00  0.00000000000E+00  0.74505805969E-08  0.10566000000E+00  0.10566000000E+00 0. -1.
     999900   -1    0    0    0    0 -0.00000000000E+00 -0.00000000000E+00 -0.74505805969E-08  0.93827000000E+00  0.93827000000E+00 0.  1.
     999902    2    1    2    0    0  0.17068995164E-02  0.13399887785E-01  0.26037379665E-02  0.10301731853E+01  0.10300813278E+01 0.  0.
     999903    2    3    3    0    0  0.11485647753E+00 -0.57361745449E-01 -0.31207597968E-01  0.13946939495E+00  0.44670098357E-01 0.  0.
         14    1    1    2    0    0 -0.17068995164E-02 -0.13399887785E-01 -0.26037379665E-02  0.13756814675E-01  0.00000000000E+00 0. -1.
     999901    1    3    3    0    0 -0.11314957801E+00  0.70761633234E-01  0.33811335934E-01  0.89070379037E+00  0.88000000000E+00 0. -1.
        -11    1    4    4    0    0  0.53530414286E-01 -0.42930053439E-02 -0.37080077706E-02  0.53832569984E-01  0.51100000000E-03 0. -1.
         11    1    4    4    0    0  0.61326063241E-01 -0.53068740105E-01 -0.27499590197E-01  0.85636824970E-01  0.51100000000E-03 0.  1.
</event>
<event>
 8    1  0.2190512E+004  0.1043930E+01  0.7957747E-01            NaN
         13   -1    0    0    0    0  0.00000000000E+00  0.00000000000E+00  0.74505805969E-08  0.10566000000E+00  0.10566000000E+00 0.  1.
     999900   -1    0    0    0    0 -0.00000000000E+00 -0.00000000000E+00 -0.74505805969E-08  0.93827000000E+00  0.93827000000E+00 0. -1.
     999902    2    1    2    0    0 -0.58463421827E-02  0.71157593028E-02  0.98869352463E-02  0.10304183296E+01  0.10303297379E+01 0.  0.
     999903    2    3    3    0    0 -0.11294469547E+00 -0.10457025425E-01 -0.69456163803E-01  0.14020813682E+00  0.44365632236E-01 0.  0.
         14    1    1    2    0    0  0.58463421827E-02 -0.71157593028E-02 -0.98869352463E-02  0.13511670361E-01  0.00000000000E+00 0. -1.
     999901    1    3    3    0    0  0.10709835329E+00  0.17572784728E-01  0.79343099049E-01  0.89021019282E+00  0.88000000000E+00 0.  1.
        -11    1    4    4    0    0 -0.61531783815E-01 -0.56045491648E-02 -0.62862619673E-01  0.88145002490E-01  0.51100000000E-03 0. -1.
         11    1    4    4    0    0 -0.51412911654E-01 -0.48524762600E-02 -0.65935441299E-02  0.52063134326E-01  0.51100000000E-03 0.  1.
</event>
<event>
 8    1  0.2190512E+004  0.1043930E+01  0.7957747E-01            NaN
         13   -1    0    0    0    0  0.00000000000E+00  0.00000000000E+00  0.74505805969E-08  0.10566000000E+00  0.10566000000E+00 0. -1.
     999900   -1    0    0    0    0 -0.00000000000E+00 -0.00000000000E+00 -0.74505805969E-08  0.93827000000E+00  0.93827000000E+00 0.  1.
     999902    2    1    2    0    0  0.87646150091E-02 -0.25553599475E-02 -0.10548009430E-01  0.10299797726E+01  0.10298852961E+01 0.  0.
     999903    2    3    3    0    0  0.10138982535E+00  0.78024580949E-01  0.35774560227E-01  0.14025041101E+00  0.44973622405E-01 0.  0.
         14    1    1    2    0    0 -0.87646150091E-02  0.25553599475E-02  0.10548009430E-01  0.13950227369E-01  0.00000000000E+00 0. -1.
     999901    1    3    3    0    0 -0.92625210345E-01 -0.80579940897E-01 -0.46322569657E-01  0.88972936162E+00  0.88000000000E+00 0.  1.
        -11    1    4    4    0    0  0.74785861561E-01  0.59610776250E-01  0.46255365628E-01  0.10623648010E+00  0.51100000000E-03 0.  1.
         11    1    4    4    0    0  0.26603963792E-01  0.18413804700E-01 -0.10480805401E-01  0.34013930908E-01  0.51100000000E-03 0. -1.
</event>
<event>
 8    1  0.2190512E+004  0.1043930E+01  0.7957747E-01            NaN
         13   -1    0    0    0    0  0.00000000000E+00  0.00000000000E+00  0.74505805969E-08  0.10566000000E+00  0.10566000000E+00 0.  1.
     999900   -1    0    0    0    0 -0.00000000000E+00 -0.00000000000E+00 -0.74505805969E-08  0.93827000000E+00  0.93827000000E+00 0. -1.
     999902    2    1    2    0    0  0.27564686707E-02 -0.99325837275E-02 -0.11378744835E-01  0.10285764931E+01  0.10284618963E+01 0.  0.
     999903    2    3    3    0    0 -0.22108915827E-01  0.41358046849E-01  0.12035572135E+00  0.13694709383E+00  0.45494116630E-01 0.  0.
         14    1    1    2    0    0 -0.27564686707E-02  0.99325837275E-02  0.11378744835E-01  0.15353506865E-01  0.00000000000E+00 0.  1.
     999901    1    3    3    0    0  0.24865384498E-01 -0.51290630577E-01 -0.13173446618E+00  0.89162939931E+00  0.88000000000E+00 0. -1.
        -11    1    4    4    0    0 -0.16881428480E-01  0.31930453807E-01  0.32997423715E-01  0.48924713599E-01  0.51100000000E-03 0.  1.
         11    1    4    4    0    0 -0.52274873472E-02  0.94275930416E-02  0.87358297633E-01  0.88022380228E-01  0.51100000000E-03 0. -1.
</event>
<event>
 8    1  0.2190512E+004  0.1043930E+01  0.7957747E-01            NaN
         13   -1    0    0    0    0  0.00000000000E+00  0.00000000000E+00  0.74505805969E-08  0.10566000000E+00  0.10566000000E+00 0.  1.
     999900   -1    0    0    0    0 -0.00000000000E+00 -0.00000000000E+00 -0.74505805969E-08  0.93827000000E+00  0.93827000000E+00 0.  1.
     999902    2    1    2    0    0 -0.27775628292E-02  0.12284353674E-01 -0.49261332093E-02  0.10304064284E+01  0.10303176795E+01 0.  0.
     999903    2    3    3    0    0  0.10270211999E+00  0.83146000869E-01  0.15699049037E-01  0.14103994900E+00  0.46742102680E-01 0.  0.
         14    1    1    2    0    0  0.27775628292E-02 -0.12284353674E-01  0.49261332093E-02  0.13523571601E-01  0.00000000000E+00 0.  1.
     999901    1    3    3    0    0 -0.10547968282E+00 -0.70861647195E-01 -0.20625182246E-01  0.88936647940E+00  0.88000000000E+00 0.  1.
        -11    1    4    4    0    0  0.10014562176E+00  0.78520878747E-01  0.30211079800E-02  0.12729517733E+00  0.51100000000E-03 0.  1.
         11    1    4    4    0    0  0.25564982277E-02  0.46251221211E-02  0.12677941057E-01  0.13744771670E-01  0.51100000000E-03 0. -1.
</event>
<event>
 8    1  0.2190512E+004  0.1043930E+01  0.7957747E-01            NaN
         13   -1    0    0    0    0  0.00000000000E+00  0.00000000000E+00  0.74505805969E-08  0.10566000000E+00  0.10566000000E+00 0. -1.
     999900   -1    0    0    0    0 -0.00000000000E+00 -0.00000000000E+00 -0.74505805969E-08  0.93827000000E+00  0.93827000000E+00 0. -1.
     999902    2    1    2    0    0 -0.13414413519E-01 -0.43272131473E-02 -0.45816515906E-02  0.10291089746E+01  0.10290022443E+01 0.  0.
     999903    2    3    3    0    0 -0.39786414792E-01 -0.69090972245E-01 -0.10641813724E+00  0.14048053885E+00  0.45314904998E-01 0.  0.
         14    1    1    2    0    0  0.13414413519E-01  0.43272131473E-02  0.45816515906E-02  0.14821025436E-01  0.00000000000E+00 0. -1.
     999901    1    3    3    0    0  0.26372001274E-01  0.64763759098E-01  0.10183648565E+00  0.88862843571E+00  0.88000000000E+00 0.  1.
        -11    1    4    4    0    0  0.32890262339E-02  0.36184728877E-03 -0.24632519263E-01  0.24859017545E-01  0.51100000000E-03 0. -1.
         11    1    4    4    0    0 -0.43075441026E-01 -0.69452819534E-01 -0.81785617977E-01  0.11562152131E+00  0.51100000000E-03 0.  1.
</event>
<event>
 8    1  0.2190512E+004  0.1043930E+01  0.7957747E-01            NaN
         13   -1    0    0    0    0  0.00000000000E+00  0.00000000000E+00  0.74505805969E-08  0.10566000000E+00  0.10566000000E+00 0. -1.
     999900   -1    0    0    0    0 -0.00000000000E+00 -0.00000000000E+00 -0.74505805969E-08  0.93827000000E+00  0.93827000000E+00 0.  1.
     999902    2    1    2    0    0  0.13129624421E-01 -0.70769456121E-02  0.32319282313E-02  0.10286684288E+01  0.10285552104E+01 0.  0.
     999903    2    3    3    0    0  0.56164445205E-01 -0.11954317625E+00  0.18362453983E-01  0.14033877056E+00  0.43735282232E-01 0.  0.
         14    1    1    2    0    0 -0.13129624421E-01  0.70769456121E-02 -0.32319282313E-02  0.15261571240E-01  0.00000000000E+00 0.  1.
     999901    1    3    3    0    0 -0.43034820785E-01  0.11246623064E+00 -0.15130525751E-01  0.88832965820E+00  0.88000000000E+00 0.  1.
        -11    1    4    4    0    0  0.39312219791E-01 -0.46284324816E-01  0.23200487363E-01  0.65009330742E-01  0.51100000000E-03 0.  1.
         11    1    4    4    0    0  0.16852225414E-01 -0.73258851434E-01 -0.48380333804E-02  0.75329439815E-01  0.51100000000E-03 0. -1.
</event>
<event>
 8    1  0.2190512E+004  0.1043930E+01  0.7957747E-01            NaN
         13   -1    0    0    0    0  0.00000000000E+00  0.00000000000E+00  0.74505805969E-08  0.10566000000E+00  0.10566000000E+00 0. -1.
     999900   -1    0    0    0    0 -0.00000000000E+00 -0.00000000000E+00 -0.74505805969E-08  0.93827000000E+00  0.93827000000E+00 0.  1.
     999902    2    1    2    0    0 -0.11383715084E-01 -0.99270564970E-02 -0.33612051954E-02  0.10284563734E+01  0.10283399627E+01 0.  0.
     999903    2    3    3    0    0 -0.12849294982E+00  0.24978811489E-01 -0.21117188493E-01  0.13983481873E+00  0.44423661506E-01 0.  0.
         14    1    1    2    0    0  0.11383715084E-01  0.99270564970E-02  0.33612051954E-02  0.15473626600E-01  0.00000000000E+00 0. -1.
     999901    1    3    3    0    0  0.11710923474E+00 -0.34905867986E-01  0.17755983298E-01  0.88862155467E+00  0.88000000000E+00 0. -1.
        -11    1    4    4    0    0 -0.70878006676E-01  0.12626213584E-01 -0.33837647566E-01  0.79550993794E-01  0.51100000000E-03 0.  1.
         11    1    4    4    0    0 -0.57614943147E-01  0.12352597905E-01  0.12720459073E-01  0.60283824936E-01  0.51100000000E-03 0. -1.
</event>
<event>
 8    1  0.2190512E+004  0.1043930E+01  0.7957747E-01            NaN
         13   -1    0    0    0    0  0.00000000000E+00  0.00000000000E+00  0.74505805969E-08  0.10566000000E+00  0.10566000000E+00 0.  1.
     999900   -1    0    0    0    0 -0.00000000000E+00 -0.00000000000E+00 -0.74505805969E-08  0.93827000000E+00  0.93827000000E+00 0.  1.
     999902    2    1    2    0    0  0.44321829889E-02 -0.28885439298E-03 -0.12778612672E-01  0.10304014885E+01  0.10303126743E+01 0.  0.
     999903    2    3    3    0    0 -0.31038911220E-01 -0.71310769110E-01  0.10603915850E+00  0.13887472293E+00  0.44645780669E-01 0.  0.
         14    1    1    2    0    0 -0.44321829889E-02  0.28885439298E-03  0.12778612672E-01  0.13528511549E-01  0.00000000000E+00 0.  1.
     999901    1    3    3    0    0  0.35471094209E-01  0.71021914717E-01 -0.11881777118E+00  0.89152676552E+00  0.88000000000E+00 0.  1.
        -11    1    4    4    0    0 -0.26957893726E-01 -0.60514991056E-01  0.53713414694E-01  0.85288828200E-01  0.51100000000E-03 0.  1.
         11    1    4    4    0    0 -0.40810174934E-02 -0.10795778054E-01  0.52325743810E-01  0.53585894729E-01  0.51100000000E-03 0. -1.
</event>
<event>
 8    1  0.2190512E+004  0.1043930E+01  0.7957747E-01            NaN
         13   -1    0    0    0    0  0.00000000000E+00  0.00000000000E+00  0.74505805969E-08  0.10566000000E+00  0.10566000000E+00 0. -1.
     999900   -1    0    0    0    0 -0.00000000000E+00 -0.00000000000E+00 -0.74505805969E-08  0.93827000000E+00  0.93827000000E+00 0.  1.
     999902    2    1    2    0    0 -0.10134006496E-01  0.26927022190E-02  0.17633717496E-02  0.10332971164E+01  0.10332424075E+01 0.  0.
     999903    2    3    3    0    0 -0.44000866220E-01  0.11800753322E+00  0.52583348076E-01  0.14367520550E+00  0.44896570641E-01 0.  0.
         14    1    1    2    0    0  0.10134006496E-01 -0.26927022190E-02 -0.17633717496E-02  0.10632883561E-01  0.00000000000E+00 0.  1.
     999901    1    3    3    0    0  0.33866859724E-01 -0.11531483100E+00 -0.50819976327E-01  0.88962191094E+00  0.88000000000E+00 0.  1.
        -11    1    4    4    0    0 -0.33070430942E-01  0.72356868126E-01  0.97975687609E-02  0.80158737779E-01  0.51100000000E-03 0.  1.
         11    1    4    4    0    0 -0.10930435279E-01  0.45650665090E-01  0.42785779316E-01  0.63516467717E-01  0.51100000000E-03 0. -1.
</event>
<event>
 8    1  0.2190512E+004  0.1043930E+01  0.7957747E-01            NaN
         13   -1    0    0    0    0  0.00000000000E+00  0.00000000000E+00  0.74505805969E-08  0.10566000000E+00  0.10566000000E+00 0. -1.
     999900   -1    0    0    0    0 -0.00000000000E+00 -0.00000000000E+00 -0.74505805969E-08  0.93827000000E+00  0.93827000000E+00 0.  1.
     999902    2    1    2    0    0  0.94481669063E-02 -0.16147257062E-02  0.10262881890E-01  0.10298871391E+01  0.10297913951E+01 0.  0.
     999903    2    3    3    0    0 -0.80344514909E-01  0.19238440051E-01 -0.10093333864E+00  0.13811240316E+00  0.45410774122E-01 0.  0.
         14    1    1    2    0    0 -0.94481669063E-02  0.16147257062E-02 -0.10262881890E-01  0.14042860879E-01  0.00000000000E+00 0. -1.
     999901    1    3    3    0    0  0.89792681815E-01 -0.20853165757E-01  0.11119622053E+00  0.89177473596E+00  0.88000000000E+00 0. -1.
        -11    1    4    4    0    0 -0.67080529408E-01  0.30175246739E-01 -0.64529608633E-01  0.97850265471E-01  0.51100000000E-03 0.  1.
         11    1    4    4    0    0 -0.13263985502E-01 -0.10936806688E-01 -0.36403730011E-01  0.40262137693E-01  0.51100000000E-03 0. -1.
</event>
<event>
 8    1  0.2190512E+004  0.1043930E+01  0.7957747E-01            NaN
         13   -1    0    0    0    0  0.00000000000E+00  0.00000000000E+00  0.74505805969E-08  0.10566000000E+00  0.10566000000E+00 0.  1.
     999900   -1    0    0    0    0 -0.00000000000E+00 -0.00000000000E+00 -0.74505805969E-08  0.93827000000E+00  0.93827000000E+00 0.  1.
     999902    2    1    2    0    0 -0.14939613532E-02 -0.78902678035E-02 -0.10558265687E-01  0.10306648117E+01  0.10305794432E+01 0.  0.
     999903    2    3    3    0    0 -0.10706280195E+00  0.72907109630E-01  0.17519341521E-01  0.14023719064E+00  0.50809960783E-01 0.  0.
         14    1    1    2    0    0  0.14939613532E-02  0.78902678035E-02  0.10558265687E-01  0.13265188309E-01  0.00000000000E+00 0.  1.
     999901    1    3    3    0    0  0.10556884060E+00 -0.80797377433E-01 -0.28077607208E-01  0.89042762105E+00  0.88000000000E+00 0.  1.
        -11    1    4    4    0    0 -0.90208910508E-01  0.37365711304E-01  0.12053096766E-02  0.97650180792E-01  0.51100000000E-03 0.  1.
         11    1    4    4    0    0 -0.16853891444E-01  0.35541398326E-01  0.16314031844E-01  0.42587009848E-01  0.51100000000E-03 0. -1.
</event>
<event>
 8    1  0.2190512E+004  0.1043930E+01  0.7957747E-01            NaN
         13   -1    0    0    0    0  0.00000000000E+00  0.00000000000E+00  0.74505805969E-08  0.10566000000E+00  0.10566000000E+00 0.  1.
     999900   -1    0    0    0    0 -0.00000000000E+00 -0.00000000000E+00 -0.74505805969E-08  0.93827000000E+00  0.93827000000E+00 0.  1.
     999902    2    1    2    0    0  0.89483693919E-02 -0.43190675936E-02  0.92978743498E-02  0.10303219830E+01  0.10302321149E+01 0.  0.
     999903    2    3    3    0    0  0.15649181876E-01 -0.61639722419E-02 -0.13046359990E+00  0.13926554580E+00  0.45730185902E-01 0.  0.
         14    1    1    2    0    0 -0.89483693919E-02  0.43190675936E-02 -0.92978743498E-02  0.13608017015E-01  0.00000000000E+00 0. -1.
     999901    1    3    3    0    0 -0.67008124844E-02  0.18449046483E-02  0.13976147425E+00  0.89105643718E+00  0.88000000000E+00 0. -1.
        -11    1    4    4    0    0  0.29575586180E-01  0.16242027071E-02 -0.10593518485E+00  0.10999944474E+00  0.51100000000E-03 0. -1.
         11    1    4    4    0    0 -0.13926404304E-01 -0.77881749490E-02 -0.24528415043E-01  0.29266101062E-01  0.51100000000E-03 0.  1.
</event>
<event>
 8    1  0.2190512E+004  0.1043930E+01  0.7957747E-01            NaN
         13   -1    0    0    0    0  0.00000000000E+00  0.00000000000E+00  0.74505805969E-08  0.10566000000E+00  0.10566000000E+00 0.  1.
     999900   -1    0    0    0    0 -0.00000000000E+00 -0.00000000000E+00 -0.74505805969E-08  0.93827000000E+00  0.93827000000E+00 0. -1.
     999902    2    1    2    0    0 -0.15410063947E-02 -0.13304543987E-01 -0.21773866638E-02  0.10303606741E+01  0.10302713197E+01 0.  0.
     999903    2    3    3    0    0  0.59070678287E-01 -0.15431828382E-01 -0.11856481511E+00  0.14062794172E+00  0.44621925649E-01 0.  0.
         14    1    1    2    0    0  0.15410063947E-02  0.13304543987E-01  0.21773866638E-02  0.13569325853E-01  0.00000000000E+00 0.  1.
     999901    1    3    3    0    0 -0.60611684681E-01  0.21272843950E-02  0.11638742845E+00  0.88973273243E+00  0.88000000000E+00 0.  1.
        -11    1    4    4    0    0  0.39520489514E-01  0.97714976757E-02 -0.85412140901E-01  0.94619481041E-01  0.51100000000E-03 0. -1.
         11    1    4    4    0    0  0.19550188773E-01 -0.25203326058E-01 -0.33152674210E-01  0.46008460675E-01  0.51100000000E-03 0.  1.
</event>
<event>
 8    1  0.2190512E+004  0.1043930E+01  0.7957747E-01            NaN
         13   -1    0    0    0    0  0.00000000000E+00  0.00000000000E+00  0.74505805969E-08  0.10566000000E+00  0.10566000000E+00 0.  1.
     999900   -1    0    0    0    0 -0.00000000000E+00 -0.00000000000E+00 -0.74505805969E-08  0.93827000000E+00  0.93827000000E+00 0. -1.
     999902    2    1    2    0    0  0.11915910863E-01  0.34548111767E-03  0.61693222995E-02  0.10305073018E+01  0.10304198806E+01 0.  0.
     999903    2    3    3    0    0  0.29426480118E-02  0.12721596183E+00  0.40704575430E-01  0.14069309535E+00  0.44103565568E-01 0.  0.
         14    1    1    2    0    0 -0.11915910863E-01 -0.34548111767E-03 -0.61693222995E-02  0.13422698184E-01  0.00000000000E+00 0. -1.
     999901    1    3    3    0    0  0.89732628516E-02 -0.12687048071E+00 -0.34535253131E-01  0.88981420647E+00  0.88000000000E+00 0. -1.
        -11    1    4    4    0    0 -0.19077662304E-01  0.81759383260E-01  0.29176009752E-01  0.88882251412E-01  0.51100000000E-03 0. -1.
         11    1    4    4    0    0  0.22020310316E-01  0.45456578571E-01  0.11528565679E-01  0.51810843937E-01  0.51100000000E-03 0.  1.
</event>
<event>
 8    1  0.2190512E+004  0.1043930E+01  0.7957747E-01            NaN
         13   -1    0    0    0    0  0.00000000000E+00  0.00000000000E+00  0.74505805969E-08  0.10566000000E+00  0.10566000000E+00 0.  1.
     999900   -1    0    0    0    0 -0.00000000000E+00 -0.00000000000E+00 -0.74505805969E-08  0.93827000000E+00  0.93827000000E+00 0. -1.
     999902    2    1    2    0    0  0.25930207551E-02  0.12167616616E-01 -0.63471645532E-02  0.10299635707E+01  0.10298688731E+01 0.  0.
     999903    2    3    3    0    0 -0.54460048189E-01 -0.71202195105E-01  0.95225497925E-01  0.13837925947E+00  0.45224711841E-01 0.  0.
         14    1    1    2    0    0 -0.25930207551E-02 -0.12167616616E-01  0.63471645532E-02  0.13966429344E-01  0.00000000000E+00 0.  1.
     999901    1    3    3    0    0  0.57053068944E-01  0.83369811721E-01 -0.10157266248E+00  0.89158431118E+00  0.88000000000E+00 0. -1.
        -11    1    4    4    0    0 -0.30195620730E-01 -0.61148072412E-02  0.26108410015E-01  0.40386589029E-01  0.51100000000E-03 0.  1.
         11    1    4    4    0    0 -0.24264427458E-01 -0.65087387864E-01  0.69117087911E-01  0.97992670446E-01  0.51100000000E-03 0. -1.
</event>
<event>
 8    1  0.2190512E+004  0.1043930E+01  0.7957747E-01            NaN
         13   -1    0    0    0    0  0.00000000000E+00  0.00000000000E+00  0.74505805969E-08  0.10566000000E+00  0.10566000000E+00 0.  1.
     999900   -1    0    0    0    0 -0.00000000000E+00 -0.00000000000E+00 -0.74505805969E-08  0.93827000000E+00  0.93827000000E+00 0.  1.
     999902    2    1    2    0    0 -0.17635835722E-02  0.10541731161E-01 -0.93771193185E-02  0.10297113964E+01  0.10296132240E+01 0.  0.
     999903    2    3    3    0    0 -0.67765330421E-02  0.12774917686E+00  0.37253869847E-01  0.14070230521E+00  0.45205246213E-01 0.  0.
         14    1    1    2    0    0  0.17635835722E-02 -0.10541731161E-01  0.93771193185E-02  0.14218603645E-01  0.00000000000E+00 0. -1.
     999901    1    3    3    0    0  0.50129494699E-02 -0.11720744569E+00 -0.46630989165E-01  0.88900909115E+00  0.88000000000E+00 0.  1.
        -11    1    4    4    0    0  0.64465170941E-02  0.11898039196E+00  0.37199319086E-01  0.12482764804E+00  0.51100000000E-03 0.  1.
         11    1    4    4    0    0 -0.13223050136E-01  0.87687848941E-02  0.54550761257E-04  0.15874657168E-01  0.51100000000E-03 0. -1.
</event>
<event>
 8    1  0.2190512E+004  0.1043930E+01  0.7957747E-01            NaN
         13   -1    0    0    0    0  0.00000000000E+00  0.00000000000E+00  0.74505805969E-08  0.10566000000E+00  0.10566000000E+00 0.  1.
     999900   -1    0    0    0    0 -0.00000000000E+00 -0.00000000000E+00 -0.74505805969E-08  0.93827000000E+00  0.93827000000E+00 0. -1.
     999902    2    1    2    0    0  0.85167281278E-02  0.63713691178E-02 -0.81831719499E-02  0.10305101153E+01  0.10304227309E+01 0.  0.
     999903    2    3    3    0    0  0.10462921638E+00 -0.50664771558E-01 -0.67089092554E-01  0.14148782129E+00  0.44762319403E-01 0.  0.
         14    1    1    2    0    0 -0.85167281278E-02 -0.63713691178E-02  0.81831719499E-02  0.13419884709E-01  0.00000000000E+00 0. -1.
     999901    1    3    3    0    0 -0.96112488249E-01  0.57036140676E-01  0.58905920604E-01  0.88902229400E+00  0.88000000000E+00 0.  1.
        -11    1    4    4    0    0  0.19449172278E-01  0.65558441941E-02 -0.36709899789E-02  0.20856334381E-01  0.51100000000E-03 0.  1.
         11    1    4    4    0    0  0.85180044099E-01 -0.57220615752E-01 -0.63418102575E-01  0.12063148691E+00  0.51100000000E-03 0. -1.
</event>
<event>
 7    1  0.2190512E+004  0.1043930E+01  0.7957747E-01            NaN
         13   -1    0    0    0    0  0.00000000000E+00  0.00000000000E+00  0.74505805969E-08  0.10566000000E+00  0.10566000000E+00 0.  1.
     999900   -1    0    0    0    0 -0.00000000000E+00 -0.00000000000E+00 -0.74505805969E-08  0.93827000000E+00  0.93827000000E+00 0.  1.
     999902    2    1    2    0    0 -0.10590334112E-01 -0.15128399564E-03 -0.91644604491E-02  0.10299240941E+01  0.10298288568E+01 0.  0.
         14    1    1    2    0    0  0.10590334112E-01  0.15128399564E-03  0.91644604491E-02  0.14005905853E-01  0.00000000000E+00 0. -1.
     999901    1    3    3    0    0  0.97183377667E-01  0.55133430279E-01 -0.45894758200E-01  0.88825144687E+00  0.88000000000E+00 0.  1.
        -11    1    3    3    0    0 -0.71977348464E-01 -0.12884608115E-02  0.21275709735E-01  0.75068740291E-01  0.51100000000E-03 0. -1.
         11    1    3    3    0    0 -0.35796363315E-01 -0.53996253463E-01  0.15454588016E-01  0.66603906990E-01  0.51100000000E-03 0.  1.
</event>
<event>
 8    1  0.2190512E+004  0.1043930E+01  0.7957747E-01            NaN
         13   -1    0    0    0    0  0.00000000000E+00  0.00000000000E+00  0.74505805969E-08  0.10566000000E+00  0.10566000000E+00 0.  1.
     999900   -1    0    0    0    0 -0.00000000000E+00 -0.00000000000E+00 -0.74505805969E-08  0.93827000000E+00  0.93827000000E+00 0.  1.
     999902    2    1    2    0    0 -0.40704802329E-02 -0.93709590038E-02  0.94056347082E-02  0.10300429684E+01  0.10299493517E+01 0.  0.
     999903    2    3    3    0    0 -0.63172102116E-01  0.42008682262E-01  0.11006007315E+00  0.14084997180E+00  0.44385256370E-01 0.  0.
         14    1    1    2    0    0  0.40704802329E-02  0.93709590038E-02 -0.94056347082E-02  0.13887031585E-01  0.00000000000E+00 0. -1.
     999901    1    3    3    0    0  0.59101621883E-01 -0.51379641265E-01 -0.10065443845E+00  0.88919299661E+00  0.88000000000E+00 0. -1.
        -11    1    4    4    0    0 -0.35512194695E-01  0.49669528853E-02  0.73950696232E-01  0.82187305511E-01  0.51100000000E-03 0.  1.
         11    1    4    4    0    0 -0.27659907421E-01  0.37041729376E-01  0.36109376922E-01  0.58662666292E-01  0.51100000000E-03 0. -1.
</event>
<event>
 8    1  0.2190512E+004  0.1043930E+01  0.7957747E-01            NaN
         13   -1    0    0    0    0  0.00000000000E+00  0.00000000000E+00  0.74505805969E-08  0.10566000000E+00  0.10566000000E+00 0. -1.
     999900   -1    0    0    0    0 -0.00000000000E+00 -0.00000000000E+00 -0.74505805969E-08  0.93827000000E+00  0.93827000000E+00 0.  1.
     999902    2    1    2    0    0 -0.85455008735E-02  0.44925441010E-02  0.98141958491E-02  0.10301631203E+01  0.10300711273E+01 0.  0.
     999903    2    3    3    0    0 -0.12593970068E+00  0.24118918319E-02 -0.44276628464E-01  0.14071860567E+00  0.44437379798E-01 0.  0.
         14    1    1    2    0    0  0.85455008735E-02 -0.44925441010E-02 -0.98141958491E-02  0.13766879742E-01  0.00000000000E+00 0.  1.
     999901    1    3    3    0    0  0.11739419981E+00  0.20806522691E-02  0.54090824313E-01  0.88944451459E+00  0.88000000000E+00 0.  1.
        -11    1    4    4    0    0 -0.72348131553E-01 -0.17106122196E-01 -0.37539253662E-01  0.83284621884E-01  0.51100000000E-03 0.  1.
         11    1    4    4    0    0 -0.53591569125E-01  0.19518014028E-01 -0.67373748020E-02  0.57433983782E-01  0.51100000000E-03 0. -1.
</event>
<event>
 8    1  0.2190512E+004  0.1043930E+01  0.7957747E-01            NaN
         13   -1    0    0    0    0  0.00000000000E+00  0.00000000000E+00  0.74505805969E-08  0.10566000000E+00  0.10566000000E+00 0.  1.
     999900   -1    0    0    0    0 -0.00000000000E+00 -0.00000000000E+00 -0.74505805969E-08  0.93827000000E+00  0.93827000000E+00 0.  1.
     999902    2    1    2    0    0 -0.10518946968E-01  0.69508504665E-02  0.58288604252E-02  0.10300397811E+01  0.10299461211E+01 0.  0.
     999903    2    3    3    0    0  0.15780283827E-01 -0.74577368896E-01 -0.10684654050E+00  0.13872937160E+00  0.44931659424E-01 0.  0.
         14    1    1    2    0    0  0.10518946968E-01 -0.69508504665E-02 -0.58288604252E-02  0.13890218910E-01  0.00000000000E+00 0. -1.
     999901    1    3    3    0    0 -0.26299230795E-01  0.81528219362E-01  0.11267540092E+00  0.89131040949E+00  0.88000000000E+00 0. -1.
        -11    1    4    4    0    0 -0.94858975603E-02 -0.45484958730E-01 -0.77215550835E-01  0.90118622575E-01  0.51100000000E-03 0.  1.
         11    1    4    4    0    0  0.25266181387E-01 -0.29092410166E-01 -0.29630989665E-01  0.48610749024E-01  0.51100000000E-03 0. -1.
</event>
<event>
 8    1  0.2190512E+004  0.1043930E+01  0.7957747E-01            NaN
         13   -1    0    0    0    0  0.00000000000E+00  0.00000000000E+00  0.74505805969E-08  0.10566000000E+00  0.10566000000E+00 0. -1.
     999900   -1    0    0    0    0 -0.00000000000E+00 -0.00000000000E+00 -0.74505805969E-08  0.93827000000E+00  0.93827000000E+00 0.  1.
     999902    2    1    2    0    0 -0.13205415335E-01  0.12610034523E-02 -0.43921153422E-02  0.10299563176E+01  0.10298615209E+01 0.  0.
     999903    2    3    3    0    0  0.64748216229E-02 -0.12848558039E-01  0.13089709401E+00  0.13928827523E+00  0.45389047542E-01 0.  0.
         14    1    1    2    0    0  0.13205415335E-01 -0.12610034523E-02  0.43921153422E-02  0.13973682444E-01  0.00000000000E+00 0. -1.
     999901    1    3    3    0    0 -0.19680236958E-01  0.14109561492E-01 -0.13528920936E+00  0.89066804233E+00  0.88000000000E+00 0.  1.
        -11    1    4    4    0    0  0.68732889032E-02  0.13257344708E-01  0.17918471019E-01  0.23330923979E-01  0.51100000000E-03 0. -1.
         11    1    4    4    0    0 -0.39846728031E-03 -0.26105902748E-01  0.11297862299E+00  0.11595735125E+00  0.51100000000E-03 0.  1.
</event>
<event>
 8    1  0.2190512E+004  0.1043930E+01  0.7957747E-01            NaN
         13   -1    0    0    0    0  0.00000000000E+00  0.00000000000E+00  0.74505805969E-08  0.10566000000E+00  0.10566000000E+00 0.  1.
     999900   -1    0    0    0    0 -0.00000000000E+00 -0.00000000000E+00 -0.74505805969E-08  0.93827000000E+00  0.93827000000E+00 0. -1.
     999902    2    1    2    0    0  0.38471772018E-02 -0.11242460850E-01 -0.53080831750E-02  0.10309157983E+01  0.10308336499E+01 0.  0.
     999903    2    3    3    0    0  0.34683586460E-01 -0.12293616133E+00  0.44952125802E-01  0.14189810701E+00  0.42404342069E-01 0.  0.
         14    1    1    2    0    0 -0.38471772018E-02  0.11242460850E-01  0.53080831750E-02  0.13014201680E-01  0.00000000000E+00 0. -1.
     999901    1    3    3    0    0 -0.30836409258E-01  0.11169370048E+00 -0.50260208977E-01  0.88901769131E+00  0.88000000000E+00 0. -1.
        -11    1    4    4    0    0  0.11972455073E-01 -0.21880748188E-01 -0.71540802428E-02  0.25952818862E-01  0.51100000000E-03 0.  1.
         11    1    4    4    0    0  0.22711131387E-01 -0.10105541314E+00  0.52106206044E-01  0.11594528814E+00  0.51100000000E-03 0. -1.
</event>
<event>
 8    1  0.2190512E+004  0.1043930E+01  0.7957747E-01            NaN
         13   -1    0    0    0    0  0.00000000000E+00  0.00000000000E+00  0.74505805969E-08  0.10566000000E+00  0.10566000000E+00 0.  1.
     999900   -1    0    0    0    0 -0.00000000000E+00 -0.00000000000E+00 -0.74505805969E-08  0.93827000000E+00  0.93827000000E+00 0.  1.
     999902    2    1    2    0    0 -0.79333213922E-02 -0.10031040666E-02 -0.10361633912E-01  0.10308415599E+01  0.10307584656E+01 0.  0.
     999903    2    3    3    0    0 -0.13184172817E-01 -0.22666833381E-01  0.12932042863E+00  0.13954589226E+00  0.45405671867E-01 0.  0.
         14    1    1    2    0    0  0.79333213922E-02  0.10031040666E-02  0.10361633912E-01  0.13088440068E-01  0.00000000000E+00 0.  1.
     999901    1    3    3    0    0  0.52508514245E-02  0.21663729314E-01 -0.13968206254E+00  0.89129566767E+00  0.88000000000E+00 0.  1.
        -11    1    4    4    0    0  0.22224383631E-02 -0.27728546717E-01  0.39759695892E-01  0.48527374478E-01  0.51100000000E-03 0.  1.
         11    1    4    4    0    0 -0.15406611180E-01  0.50617133360E-02  0.89560732740E-01  0.91018517786E-01  0.51100000000E-03 0. -1.
</event>
<event>
 8    1  0.2190512E+004  0.1043930E+01  0.7957747E-01            NaN
         13   -1    0    0    0    0  0.00000000000E+00  0.00000000000E+00  0.74505805969E-08  0.10566000000E+00  0.10566000000E+00 0. -1.
     999900   -1    0    0    0    0 -0.00000000000E+00 -0.00000000000E+00 -0.74505805969E-08  0.93827000000E+00  0.93827000000E+00 0. -1.
     999902    2    1    2    0    0 -0.10302956025E-01 -0.59083641499E-02 -0.68551371079E-02  0.10302167737E+01  0.10301255012E+01 0.  0.
     999903    2    3    3    0    0 -0.80733395803E-01 -0.50883653415E-01  0.92646464293E-01  0.14067543565E+00  0.45816846961E-01 0.  0.
         14    1    1    2    0    0  0.10302956025E-01  0.59083641499E-02  0.68551371079E-02  0.13713226263E-01  0.00000000000E+00 0.  1.
     999901    1    3    3    0    0  0.70430439777E-01  0.44975289265E-01 -0.99501601401E-01  0.88954133809E+00  0.88000000000E+00 0. -1.
        -11    1    4    4    0    0 -0.54422870162E-01 -0.31475524727E-01  0.29248544641E-01  0.69341877233E-01  0.51100000000E-03 0. -1.
         11    1    4    4    0    0 -0.26310525640E-01 -0.19408128687E-01  0.63397919652E-01  0.71333558413E-01  0.51100000000E-03 0.  1.
</event>
<event>
 8    1  0.2190512E+004  0.1043930E+01  0.7957747E-01            NaN
         13   -1    0    0    0    0  0.00000000000E+00  0.00000000000E+00  0.74505805969E-08  0.10566000000E+00  0.10566000000E+00 0. -1.
     999900   -1    0    0    0    0 -0.00000000000E+00 -0.00000000000E+00 -0.74505805969E-08  0.93827000000E+00  0.93827000000E+00 0. -1.
     999902    2    1    2    0    0 -0.13558814474E-01 -0.84194993721E-03 -0.26553464448E-02  0.10300879917E+01  0.10299949851E+01 0.  0.
     999903    2    3    3    0    0  0.37239242508E-01 -0.10924560508E+00  0.64036408524E-01  0.13948168964E+00  0.45090095562E-01 0.  0.
         14    1    1    2    0    0  0.13558814474E-01  0.84194993721E-03  0.26553464448E-02  0.13842008322E-01  0.00000000000E+00 0. -1.
     999901    1    3    3    0    0 -0.50798056982E-01  0.10840365514E+00 -0.66691754969E-01  0.89060630203E+00  0.88000000000E+00 0. -1.
        -11    1    4    4    0    0  0.87948917088E-02 -0.59969335381E-02  0.21972938428E-01  0.24420984342E-01  0.51100000000E-03 0. -1.
         11    1    4    4    0    0  0.28444350799E-01 -0.10324867154E+00  0.42063470096E-01  0.11506070530E+00  0.51100000000E-03 0.  1.
</event>
<event>
 8    1  0.2190512E+004  0.1043930E+01  0.7957747E-01            NaN
         13   -1    0    0    0    0  0.00000000000E+00  0.00000000000E+00  0.74505805969E-08  0.10566000000E+00  0.10566000000E+00 0. -1.
     999900   -1    0    0    0    0 -0.00000000000E+00 -0.00000000000E+00 -0.74505805969E-08  0.93827000000E+00  0.93827000000E+00 0. -1.
     999902    2    1    2    0    0 -0.46016515583E-02  0.94245959800E-02 -0.87210915645E-02  0.10302897784E+01  0.10301994816E+01 0.  0.
     999903    2    3    3    0    0 -0.12992731729E+00  0.17120589366E-01  0.24647701952E-01  0.14075100626E+00  0.45045690079E-01 0.  0.
         14    1    1    2    0    0  0.46016515583E-02 -0.94245959800E-02  0.87210915645E-02  0.13640221572E-01  0.00000000000E+00 0. -1.
     999901    1    3    3    0    0  0.12532566573E+00 -0.76959933859E-02 -0.33368793517E-01  0.88953877217E+00  0.88000000000E+00 0. -1.
        -11    1    4    4    0    0 -0.77242709066E-01  0.20937246978E-01 -0.49765470278E-02  0.80186230465E-01  0.51100000000E-03 0.  1.
         11    1    4    4    0    0 -0.52684608221E-01 -0.38166576124E-02  0.29624248980E-01  0.60564775797E-01  0.51100000000E-03 0. -1.
</event>
<event>
 8    1  0.2190512E+004  0.1043930E+01  0.7957747E-01            NaN
         13   -1    0    0    0    0  0.00000000000E+00  0.00000000000E+00  0.74505805969E-08  0.10566000000E+00  0.10566000000E+00 0. -1.
     999900   -1    0    0    0    0 -0.00000000000E+00 -0.00000000000E+00 -0.74505805969E-08  0.93827000000E+00  0.93827000000E+00 0. -1.
     999902    2    1    2    0    0 -0.12553404228E-01 -0.61106135621E-02 -0.15187107813E-02  0.10298859964E+01  0.10297902366E+01 0.  0.
     999903    2    3    3    0    0  0.11851434701E+00  0.43377388073E-01  0.34022709827E-01  0.13809509581E+00  0.44558528466E-01 0.  0.
         14    1    1    2    0    0  0.12553404228E-01  0.61106135621E-02  0.15187107813E-02  0.14044003640E-01  0.00000000000E+00 0.  1.
     999901    1    3    3    0    0 -0.13106775124E+00 -0.49488001635E-01 -0.35541420609E-01  0.89179090055E+00  0.88000000000E+00 0. -1.
        -11    1    4    4    0    0  0.37301682340E-01  0.10405470424E-01  0.32292643835E-01  0.50425839477E-01  0.51100000000E-03 0. -1.
         11    1    4    4    0    0  0.81212664674E-01  0.32971917649E-01  0.17300659926E-02  0.87669256335E-01  0.51100000000E-03 0.  1.
</event>
<event>
 8    1  0.2190512E+004  0.1043930E+01  0.7957747E-01            NaN
         13   -1    0    0    0    0  0.00000000000E+00  0.00000000000E+00  0.74505805969E-08  0.10566000000E+00  0.10566000000E+00 0.  1.
     999900   -1    0    0    0    0 -0.00000000000E+00 -0.00000000000E+00 -0.74505805969E-08  0.93827000000E+00  0.93827000000E+00 0. -1.
     999902    2    1    2    0    0  0.37388860319E-02  0.32074747546E-03  0.12842274178E-01  0.10305506819E+01  0.10304638284E+01 0.  0.
     999903    2    3    3    0    0  0.79625685600E-01 -0.72489611206E-01 -0.77126347896E-01  0.13973391752E+00  0.44520788692E-01 0.  0.
         14    1    1    2    0    0 -0.37388860319E-02 -0.32074747546E-03 -0.12842274178E-01  0.13379318135E-01  0.00000000000E+00 0. -1.
     999901    1    3    3    0    0 -0.75886799568E-01  0.72810358682E-01  0.89968622074E-01  0.89081676434E+00  0.88000000000E+00 0.  1.
        -11    1    4    4    0    0  0.80823120401E-01 -0.52411596141E-01 -0.65600172111E-01  0.11654611063E+00  0.51100000000E-03 0.  1.
         11    1    4    4    0    0 -0.11974348014E-02 -0.20078015065E-01 -0.11526175785E-01  0.23187806889E-01  0.51100000000E-03 0. -1.
</event>
<event>
 8    1  0.2190512E+004  0.1043930E+01  0.7957747E-01            NaN
         13   -1    0    0    0    0  0.00000000000E+00  0.00000000000E+00  0.74505805969E-08  0.10566000000E+00  0.10566000000E+00 0.  1.
     999900   -1    0    0    0    0 -0.00000000000E+00 -0.00000000000E+00 -0.74505805969E-08  0.93827000000E+00  0.93827000000E+00 0. -1.
     999902    2    1    2    0    0  0.75375547576E-02  0.24069423203E-02 -0.11386031862E-01  0.10300645817E+01  0.10299712582E+01 0.  0.
     999903    2    3    3    0    0 -0.12333084690E+00 -0.33298959340E-01  0.25618763166E-01  0.13890196757E+00  0.48146828323E-01 0.  0.
         14    1    1    2    0    0 -0.75375547576E-02 -0.24069423203E-02  0.11386031862E-01  0.13865418300E-01  0.00000000000E+00 0.  1.
     999901    1    3    3    0    0  0.13086840166E+00  0.35705901660E-01 -0.37004795028E-01  0.89116261413E+00  0.88000000000E+00 0. -1.
        -11    1    4    4    0    0 -0.46392999101E-01 -0.59469484979E-02 -0.13036189772E-01  0.48558005795E-01  0.51100000000E-03 0.  1.
         11    1    4    4    0    0 -0.76937847804E-01 -0.27352010842E-01  0.38654952938E-01  0.90343961776E-01  0.51100000000E-03 0. -1.
</event>
<event>
 8    1  0.2190512E+004  0.1043930E+01  0.7957747E-01            NaN
         13   -1    0    0    0    0  0.00000000000E+00  0.00000000000E+00  0.74505805969E-08  0.10566000000E+00  0.10566000000E+00 0.  1.
     999900   -1    0    0    0    0 -0.00000000000E+00 -0.00000000000E+00 -0.74505805969E-08  0.93827000000E+00  0.93827000000E+00 0. -1.
     999902    2    1    2    0    0  0.38617904037E-02 -0.11532069522E-01 -0.73461645381E-02  0.10297219676E+01  0.10296239422E+01 0.  0.
     999903    2    3    3    0    0 -0.69446948412E-01 -0.68195385078E-01 -0.91558709665E-01  0.14085940491E+00  0.44552053218E-01 0.  0.
         14    1    1    2    0    0 -0.38617904037E-02  0.11532069522E-01  0.73461645381E-02  0.14208032446E-01  0.00000000000E+00 0.  1.
     999901    1    3    3    0    0  0.73308738815E-01  0.56663315556E-01  0.84212545127E-01  0.88886256265E+00  0.88000000000E+00 0.  1.
        -11    1    4    4    0    0 -0.12847302414E-02 -0.26251478389E-01 -0.30003872536E-01  0.39890902942E-01  0.51100000000E-03 0. -1.
         11    1    4    4    0    0 -0.68162218170E-01 -0.41943906689E-01 -0.61554837129E-01  0.10096850197E+00  0.51100000000E-03 0.  1.
</event>
<event>
 8    1  0.2190512E+004  0.1043930E+01  0.7957747E-01            NaN
         13   -1    0    0    0    0  0.00000000000E+00  0.00000000000E+00  0.74505805969E-08  0.10566000000E+00  0.10566000000E+00 0. -1.
     999900   -1    0    0    0    0 -0.00000000000E+00 -0.00000000000E+00 -0.74505805969E-08  0.93827000000E+00  0.93827000000E+00 0.  1.
     999902    2    1    2    0    0 -0.11425216652E-01 -0.44712979438E-02 -0.45454613500E-02  0.10308460671E+01  0.10307630304E+01 0.  0.
     999903    2    3    3    0    0  0.12210592858E+00  0.47926520281E-01 -0.11697362007E-01  0.13920306244E+00  0.45098283494E-01 0.  0.
         14    1    1    2    0    0  0.11425216652E-01  0.44712979438E-02  0.45454613500E-02  0.13083932885E-01  0.00000000000E+00 0. -1.
     999901    1    3    3    0    0 -0.13353114523E+00 -0.52397818225E-01  0.71519006574E-02  0.89164300467E+00  0.88000000000E+00 0.  1.
        -11    1    4    4    0    0  0.19964903565E-01  0.15103561324E-01 -0.19348655358E-01  0.31644059856E-01  0.51100000000E-03 0. -1.
         11    1    4    4    0    0  0.10214102502E+00  0.32822958957E-01  0.76512933507E-02  0.10755900258E+00  0.51100000000E-03 0.  1.
</event>
<event>
 8    1  0.2190512E+004  0.1043930E+01  0.7957747E-01            NaN
         13   -1    0    0    0    0  0.00000000000E+00  0.00000000000E+00  0.74505805969E-08  0.10566000000E+00  0.10566000000E+00 0.  1.
     999900   -1    0    0    0    0 -0.00000000000E+00 -0.00000000000E+00 -0.74505805969E-08  0.93827000000E+00  0.93827000000E+00 0. -1.
     999902    2    1    2    0    0 -0.58020073958E-02  0.12424876451E-01  0.42362001878E-02  0.10295777794E+01  0.10294777402E+01 0.  0.
     999903    2    3    3    0    0 -0.11392854095E+00 -0.58493100544E-01 -0.31693110295E-01  0.13940272802E+00  0.45027903385E-01 0.  0.
         14    1    1    2    0    0  0.58020073958E-02 -0.12424876451E-01 -0.42362001878E-02  0.14352220618E-01  0.00000000000E+00 0. -1.
     999901    1    3    3    0    0  0.10812653356E+00  0.70917976995E-01  0.35929310483E-01  0.89017505136E+00  0.88000000000E+00 0.  1.
        -11    1    4    4    0    0 -0.26340465271E-01 -0.17197887673E-01  0.11329595093E-01  0.33439621665E-01  0.51100000000E-03 0.  1.
         11    1    4    4    0    0 -0.87588075683E-01 -0.41295212871E-01 -0.43022705388E-01  0.10596310635E+00  0.51100000000E-03 0. -1.
</event>
<event>
 8    1  0.2190512E+004  0.1043930E+01  0.7957747E-01            NaN
         13   -1    0    0    0    0  0.00000000000E+00  0.00000000000E+00  0.74505805969E-08  0.10566000000E+00  0.10566000000E+00 0.  1.
     999900   -1    0    0    0    0 -0.00000000000E+00 -0.00000000000E+00 -0.74505805969E-08  0.93827000000E+00  0.93827000000E+00 0. -1.
     999902    2    1    2    0    0 -0.76628243110E-02 -0.14281256480E-01 -0.36585035093E-02  0.10273150125E+01  0.10271806448E+01 0.  0.
     999903    2    3    3    0    0 -0.11227363073E+00  0.48397810414E-02  0.64833233115E-01  0.13827049564E+00  0.47818304148E-01 0.  0.
         14    1    1    2    0    0  0.76628243110E-02  0.14281256480E-01  0.36585035093E-02  0.16614987542E-01  0.00000000000E+00 0. -1.
     999901    1    3    3    0    0  0.10461080642E+00 -0.19121037522E-01 -0.68491736625E-01  0.88904451682E+00  0.88000000000E+00 0. -1.
        -11    1    4    4    0    0 -0.91872593703E-01 -0.87031057132E-02  0.32787171315E-01  0.97936598096E-01  0.51100000000E-03 0. -1.
         11    1    4    4    0    0 -0.20401037024E-01  0.13542886755E-01  0.32046061801E-01  0.40333897546E-01  0.51100000000E-03 0.  1.
</event>
<event>
 8    1  0.2190512E+004  0.1043930E+01  0.7957747E-01            NaN
         13   -1    0    0    0    0  0.00000000000E+00  0.00000000000E+00  0.74505805969E-08  0.10566000000E+00  0.10566000000E+00 0. -1.
     999900   -1    0    0    0    0 -0.00000000000E+00 -0.00000000000E+00 -0.74505805969E-08  0.93827000000E+00  0.93827000000E+00 0.  1.
     999902    2    1    2    0    0  0.11485221277E-01 -0.10534256539E-02  0.76571733152E-02  0.10300861452E+01  0.10299931136E+01 0.  0.
     999903    2    3    3    0    0  0.10542031946E+00  0.77466536852E-01 -0.26879939718E-01  0.14093936350E+00  0.45020716740E-01 0.  0.
         14    1    1    2    0    0 -0.11485221277E-01  0.10534256539E-02 -0.76571733152E-02  0.13843854831E-01  0.00000000000E+00 0.  1.
     999901    1    3    3    0    0 -0.93935098187E-01 -0.78519962506E-01  0.34537113033E-01  0.88914678167E+00  0.88000000000E+00 0. -1.
        -11    1    4    4    0    0  0.45846631173E-01  0.29809116921E-01 -0.33871176364E-01  0.64327402798E-01  0.51100000000E-03 0. -1.
         11    1    4    4    0    0  0.59573688291E-01  0.47657419931E-01  0.69912366464E-02  0.76611960698E-01  0.51100000000E-03 0.  1.
</event>
<event>
 8    1  0.2190512E+004  0.1043930E+01  0.7957747E-01            NaN
         13   -1    0    0    0    0  0.00000000000E+00  0.00000000000E+00  0.74505805969E-08  0.10566000000E+00  0.10566000000E+00 0. -1.
     999900   -1    0    0    0    0 -0.00000000000E+00 -0.00000000000E+00 -0.74505805969E-08  0.93827000000E+00  0.93827000000E+00 0.  1.
     999902    2    1    2    0    0  0.26222729898E-02  0.12978591768E-01  0.17342639580E-02  0.10305760556E+01  0.10304895334E+01 0.  0.
     999903    2    3    3    0    0  0.15158725842E-01 -0.11290524558E+00 -0.65686197555E-01  0.13897669389E+00  0.44971807232E-01 0.  0.
         14    1    1    2    0    0 -0.26222729898E-02 -0.12978591768E-01 -0.17342639580E-02  0.13353944414E-01  0.00000000000E+00 0. -1.
     999901    1    3    3    0    0 -0.12536452852E-01  0.12588383735E+00  0.67420461513E-01  0.89159936170E+00  0.88000000000E+00 0. -1.
        -11    1    4    4    0    0 -0.10696441885E-01 -0.26027646379E-01 -0.20390525528E-02  0.28218276016E-01  0.51100000000E-03 0.  1.
         11    1    4    4    0    0  0.25855167727E-01 -0.86877599200E-01 -0.63647145002E-01  0.11075841787E+00  0.51100000000E-03 0. -1.
</event>
<event>
 8    1  0.2190512E+004  0.1043930E+01  0.7957747E-01            NaN
         13   -1    0    0    0    0  0.00000000000E+00  0.00000000000E+00  0.74505805969E-08  0.10566000000E+00  0.10566000000E+00 0. -1.
     999900   -1    0    0    0    0 -0.00000000000E+00 -0.00000000000E+00 -0.74505805969E-08  0.93827000000E+00  0.93827000000E+00 0. -1.
     999902    2    1    2    0    0 -0.10495425277E-01 -0.84624027255E-02  0.48150610300E-02  0.10296138893E+01  0.10295143564E+01 0.  0.
     999903    2    3    3    0    0  0.94038045184E-01  0.29107291512E-01  0.87027407042E-01  0.13882906785E+00  0.44825797722E-01 0.  0.
         14    1    1    2    0    0  0.10495425277E-01  0.84624027255E-02 -0.48150610300E-02  0.14316110657E-01  0.00000000000E+00 0.  1.
     999901    1    3    3    0    0 -0.10453347046E+00 -0.37569694237E-01 -0.82212346012E-01  0.89078482150E+00  0.88000000000E+00 0. -1.
        -11    1    4    4    0    0  0.20746860054E-01  0.14689217837E-01  0.48547533022E-01  0.54802640505E-01  0.51100000000E-03 0.  1.
         11    1    4    4    0    0  0.73291185129E-01  0.14418073675E-01  0.38479874020E-01  0.84026427341E-01  0.51100000000E-03 0. -1.
</event>
<event>
 8    1  0.2190512E+004  0.1043930E+01  0.7957747E-01            NaN
         13   -1    0    0    0    0  0.00000000000E+00  0.00000000000E+00  0.74505805969E-08  0.10566000000E+00  0.10566000000E+00 0.  1.
     999900   -1    0    0    0    0 -0.00000000000E+00 -0.00000000000E+00 -0.74505805969E-08  0.93827000000E+00  0.93827000000E+00 0. -1.
     999902    2    1    2    0    0 -0.55393551537E-02  0.12209615051E-01  0.55991424372E-02  0.10294003905E+01  0.10292978454E+01 0.  0.
     999903    2    3    3    0    0 -0.53027283281E-01  0.13976233565E-02  0.12199936397E+00  0.14040038263E+00  0.44884034016E-01 0.  0.
         14    1    1    2    0    0  0.55393551537E-02 -0.12209615051E-01 -0.55991424372E-02  0.14529609467E-01  0.00000000000E+00 0. -1.
     999901    1    3    3    0    0  0.47487928127E-01  0.10811991695E-01 -0.11640022153E+00  0.88900000791E+00  0.88000000000E+00 0. -1.
        -11    1    4    4    0    0 -0.24677431665E-02 -0.83246966385E-02  0.82033584828E-03  0.87363838264E-02  0.51100000000E-03 0. -1.
         11    1    4    4    0    0 -0.50559540114E-01  0.97223199950E-02  0.12117902812E+00  0.13166399880E+00  0.51100000000E-03 0.  1.
</event>
<event>
 8    1  0.2190512E+004  0.1043930E+01  0.7957747E-01            NaN
         13   -1    0    0    0    0  0.00000000000E+00  0.00000000000E+00  0.74505805969E-08  0.10566000000E+00  0.10566000000E+00 0.  1.
     999900   -1    0    0    0    0 -0.00000000000E+00 -0.00000000000E+00 -0.74505805969E-08  0.93827000000E+00  0.93827000000E+00 0. -1.
     999902    2    1    2    0    0 -0.12310122656E-01  0.39795027676E-02 -0.44342524892E-02  0.10302538106E+01  0.10301630337E+01 0.  0.
     999903    2    3    3    0    0 -0.71014299734E-01  0.78064634594E-01  0.81838900244E-01  0.14099690504E+00  0.45226139517E-01 0.  0.
         14    1    1    2    0    0  0.12310122656E-01 -0.39795027676E-02  0.44342524892E-02  0.13676189426E-01  0.00000000000E+00 0.  1.
     999901    1    3    3    0    0  0.58704177078E-01 -0.74085131827E-01 -0.86273152733E-01  0.88925690554E+00  0.88000000000E+00 0. -1.
        -11    1    4    4    0    0 -0.72793351408E-01  0.56624775902E-01  0.73450122974E-01  0.11790003792E+00  0.51100000000E-03 0. -1.
         11    1    4    4    0    0  0.17790516736E-02  0.21439858692E-01  0.83887772693E-02  0.23096867118E-01  0.51100000000E-03 0.  1.
</event>
<event>
 8    1  0.2190512E+004  0.1043930E+01  0.7957747E-01            NaN
         13   -1    0    0    0    0  0.00000000000E+00  0.00000000000E+00  0.74505805969E-08  0.10566000000E+00  0.10566000000E+00 0.  1.
     999900   -1    0    0    0    0 -0.00000000000E+00 -0.00000000000E+00 -0.74505805969E-08  0.93827000000E+00  0.93827000000E+00 0.  1.
     999902    2    1    2    0    0 -0.44445909231E-02 -0.17433448488E-02  0.11538491044E-01  0.10314427899E+01  0.10313671987E+01 0.  0.
     999903    2    3    3    0    0 -0.12915034370E+00 -0.22246655214E-01  0.32452938822E-01  0.14216818407E+00  0.44540704724E-01 0.  0.
         14    1    1    2    0    0  0.44445909231E-02  0.17433448488E-02 -0.11538491044E-01  0.12487210069E-01  0.00000000000E+00 0. -1.
     999901    1    3    3    0    0  0.12470575277E+00  0.20503310365E-01 -0.20914447778E-01  0.88927460587E+00  0.88000000000E+00 0. -1.
        -11    1    4    4    0    0 -0.10903841855E+00 -0.85864984501E-03  0.26207073346E-01  0.11214805310E+00  0.51100000000E-03 0. -1.
         11    1    4    4    0    0 -0.20111925146E-01 -0.21388005369E-01  0.62458654760E-02  0.30020130967E-01  0.51100000000E-03 0.  1.
</event>
<event>
 8    1  0.2190512E+004  0.1043930E+01  0.7957747E-01            NaN
         13   -1    0    0    0    0  0.00000000000E+00  0.00000000000E+00  0.74505805969E-08  0.10566000000E+00  0.10566000000E+00 0. -1.
     999900   -1    0    0    0    0 -0.00000000000E+00 -0.00000000000E+00 -0.74505805969E-08  0.93827000000E+00  0.93827000000E+00 0. -1.
     999902    2    1    2    0    0  0.10732071508E-01 -0.20777061910E-02 -0.84993198478E-02  0.10300832437E+01  0.10299901729E+01 0.  0.
     999903    2    3    3    0    0  0.90635187371E-01 -0.91998397911E-01  0.33476067920E-01  0.14090824862E+00  0.45343632369E-01 0.  0.
         14    1    1    2    0    0 -0.10732071508E-01  0.20777061910E-02  0.84993198478E-02  0.13846756290E-01  0.00000000000E+00 0. -1.
     999901    1    3    3    0    0 -0.79903115863E-01  0.89920691720E-01 -0.41975387767E-01  0.88917499510E+00  0.88000000000E+00 0.  1.
        -11    1    4    4    0    0  0.49794284421E-01 -0.65474944740E-01  0.40524724817E-01  0.91700346740E-01  0.51100000000E-03 0.  1.
         11    1    4    4    0    0  0.40840902950E-01 -0.26523453171E-01 -0.70486568974E-02  0.49207901875E-01  0.51100000000E-03 0. -1.
</event>
<event>
 8    1  0.2190512E+004  0.1043930E+01  0.7957747E-01            NaN
         13   -1    0    0    0    0  0.00000000000E+00  0.00000000000E+00  0.74505805969E-08  0.10566000000E+00  0.10566000000E+00 0.  1.
     999900   -1    0    0    0    0 -0.00000000000E+00 -0.00000000000E+00 -0.74505805969E-08  0.93827000000E+00  0.93827000000E+00 0. -1.
     999902    2    1    2    0    0  0.74696724416E-02 -0.77029365632E-02  0.75127274112E-02  0.10308314386E+01  0.10307482149E+01 0.  0.
     999903    2    3    3    0    0 -0.74088653542E-01 -0.27249088865E-01  0.10800106429E+00  0.14115075516E+00  0.45029594338E-01 0.  0.
         14    1    1    2    0    0 -0.74696724416E-02  0.77029365632E-02 -0.75127274112E-02  0.13098561419E-01  0.00000000000E+00 0.  1.
     999901    1    3    3    0    0  0.81558325984E-01  0.19546152302E-01 -0.10048833688E+00  0.88968068342E+00  0.88000000000E+00 0. -1.
        -11    1    4    4    0    0 -0.13376741235E-01  0.12496353717E-01  0.21443235952E-01  0.28198750884E-01  0.51100000000E-03 0. -1.
         11    1    4    4    0    0 -0.60711912307E-01 -0.39745442582E-01  0.86557828338E-01  0.11295200427E+00  0.51100000000E-03 0.  1.
</event>
<event>
 8    1  0.2190512E+004  0.1043930E+01  0.7957747E-01            NaN
         13   -1    0    0    0    0  0.00000000000E+00  0.00000000000E+00  0.74505805969E-08  0.10566000000E+00  0.10566000000E+00 0. -1.
     999900   -1    0    0    0    0 -0.00000000000E+00 -0.00000000000E+00 -0.74505805969E-08  0.93827000000E+00  0.93827000000E+00 0. -1.
     999902    2    1    2    0    0 -0.38602913329E-02 -0.11215473563E-01 -0.75528546281E-02  0.10298681968E+01  0.10297721925E+01 0.  0.
     999903    2    3    3    0    0 -0.88216840764E-01 -0.86157845072E-01 -0.55411766079E-01  0.14137347993E+00  0.41359542392E-01 0.  0.
         14    1    1    2    0    0  0.38602913329E-02  0.11215473563E-01  0.75528546281E-02  0.14061803208E-01  0.00000000000E+00 0.  1.
     999901    1    3    3    0    0  0.84356549431E-01  0.74942371509E-01  0.47858911451E-01  0.88849471686E+00  0.88000000000E+00 0.  1.
        -11    1    4    4    0    0 -0.74253103215E-01 -0.48723755076E-01 -0.28801517409E-01  0.93366568813E-01  0.51100000000E-03 0. -1.
         11    1    4    4    0    0 -0.13963737549E-01 -0.37434089996E-01 -0.26610248670E-01  0.48006911121E-01  0.51100000000E-03 0.  1.
</event>
<event>
 8    1  0.2190512E+004  0.1043930E+01  0.7957747E-01            NaN
         13   -1    0    0    0    0  0.00000000000E+00  0.00000000000E+00  0.74505805969E-08  0.10566000000E+00  0.10566000000E+00 0.  1.
     999900   -1    0    0    0    0 -0.00000000000E+00 -0.00000000000E+00 -0.74505805969E-08  0.93827000000E+00  0.93827000000E+00 0.  1.
     999902    2    1    2    0    0 -0.11369331294E-01 -0.56926018305E-02 -0.59781566158E-02  0.10298798838E+01  0.10297840401E+01 0.  0.
     999903    2    3    3    0    0 -0.19103543186E-01  0.12898097108E+00  0.20722725935E-01  0.13920052148E+00  0.44117089056E-01 0.  0.
         14    1    1    2    0    0  0.11369331294E-01  0.56926018305E-02  0.59781566158E-02  0.14050116234E-01  0.00000000000E+00 0.  1.
     999901    1    3    3    0    0  0.77342118921E-02 -0.13467357291E+00 -0.26700882551E-01  0.89067936229E+00  0.88000000000E+00 0. -1.
        -11    1    4    4    0    0 -0.21648118219E-01  0.10068962319E+00  0.33144292000E-01  0.10819356013E+00  0.51100000000E-03 0.  1.
         11    1    4    4    0    0  0.25445750332E-02  0.28291347891E-01 -0.12421566065E-01  0.31006961349E-01  0.51100000000E-03 0. -1.
</event>
<event>
 8    1  0.2190512E+004  0.1043930E+01  0.7957747E-01            NaN
         13   -1    0    0    0    0  0.00000000000E+00  0.00000000000E+00  0.74505805969E-08  0.10566000000E+00  0.10566000000E+00 0. -1.
     999900   -1    0    0    0    0 -0.00000000000E+00 -0.00000000000E+00 -0.74505805969E-08  0.93827000000E+00  0.93827000000E+00 0. -1.
     999902    2    1    2    0    0 -0.13477465011E-01  0.74191733565E-03  0.29833855002E-02  0.10301063574E+01  0.10300135992E+01 0.  0.
     999903    2    3    3    0    0  0.43770696448E-01 -0.10930027721E+00  0.59065376363E-01  0.13963916194E+00  0.46346007348E-01 0.  0.
         14    1    1    2    0    0  0.13477465011E-01 -0.74191733565E-03 -0.29833855002E-02  0.13823642555E-01  0.00000000000E+00 0. -1.
     999901    1    3    3    0    0 -0.57248161459E-01  0.11004219454E+00 -0.56081990863E-01  0.89046719550E+00  0.88000000000E+00 0. -1.
        -11    1    4    4    0    0  0.48714998767E-01 -0.61897615853E-01  0.39470446445E-01  0.88105863691E-01  0.51100000000E-03 0. -1.
         11    1    4    4    0    0 -0.49443023185E-02 -0.47402661355E-01  0.19594929918E-01  0.51533298250E-01  0.51100000000E-03 0.  1.
</event>
<event>
 8    1  0.2190512E+004  0.1043930E+01  0.7957747E-01            NaN
         13   -1    0    0    0    0  0.00000000000E+00  0.00000000000E+00  0.74505805969E-08  0.10566000000E+00  0.10566000000E+00 0.  1.
     999900   -1    0    0    0    0 -0.00000000000E+00 -0.00000000000E+00 -0.74505805969E-08  0.93827000000E+00  0.93827000000E+00 0. -1.
     999902    2    1    2    0    0  0.31698905245E-02  0.11646105169E-01 -0.50870147163E-02  0.10308319967E+01  0.10307487801E+01 0.  0.
     999903    2    3    3    0    0 -0.11863798729E+00  0.61275943671E-01 -0.12635234582E-02  0.14104837186E+00  0.45423929930E-01 0.  0.
         14    1    1    2    0    0 -0.31698905245E-02 -0.11646105169E-01  0.50870147163E-02  0.13098003293E-01  0.00000000000E+00 0. -1.
     999901    1    3    3    0    0  0.12180787782E+00 -0.49629838501E-01 -0.38234912581E-02  0.88978362485E+00  0.88000000000E+00 0. -1.
        -11    1    4    4    0    0 -0.34960738964E-01 -0.34605851475E-02 -0.27322551291E-02  0.35241385580E-01  0.51100000000E-03 0.  1.
         11    1    4    4    0    0 -0.83677248327E-01  0.64736528818E-01  0.14687316709E-02  0.10580698628E+00  0.51100000000E-03 0. -1.
</event>
<event>
 8    1  0.2190512E+004  0.1043930E+01  0.7957747E-01            NaN
         13   -1    0    0    0    0  0.00000000000E+00  0.00000000000E+00  0.74505805969E-08  0.10566000000E+00  0.10566000000E+00 0. -1.
     999900   -1    0    0    0    0 -0.00000000000E+00 -0.00000000000E+00 -0.74505805969E-08  0.93827000000E+00  0.93827000000E+00 0.  1.
     999902    2    1    2    0    0 -0.46491380091E-03 -0.13275952097E-01 -0.51888223781E-02  0.10296684809E+01  0.10295697109E+01 0.  0.
     999903    2    3    3    0    0 -0.12672375387E+00  0.29660598766E-01  0.16762382130E-01  0.13935016847E+00  0.46891695263E-01 0.  0.
         14    1    1    2    0    0  0.46491380091E-03  0.13275952097E-01  0.51888223781E-02  0.14261519085E-01  0.00000000000E+00 0.  1.
     999901    1    3    3    0    0  0.12625884007E+00 -0.42936550863E-01 -0.21951204509E-01  0.89031831244E+00  0.88000000000E+00 0.  1.
        -11    1    4    4    0    0 -0.39914827316E-01 -0.10758190714E-02 -0.13909143293E-01  0.42285650219E-01  0.51100000000E-03 0. -1.
         11    1    4    4    0    0 -0.86808926552E-01  0.30736417838E-01  0.30671525424E-01  0.97064518251E-01  0.51100000000E-03 0.  1.
</event>
<event>
 8    1  0.2190512E+004  0.1043930E+01  0.7957747E-01            NaN
         13   -1    0    0    0    0  0.00000000000E+00  0.00000000000E+00  0.74505805969E-08  0.10566000000E+00  0.10566000000E+00 0.  1.
     999900   -1    0    0    0    0 -0.00000000000E+00 -0.00000000000E+00 -0.74505805969E-08  0.93827000000E+00  0.93827000000E+00 0. -1.
     999902    2    1    2    0    0 -0.11241859308E-01 -0.23144506257E-02 -0.86973532225E-02  0.10295293043E+01  0.10294285835E+01 0.  0.
     999903    2    3    3    0    0 -0.12985391800E+00 -0.28165329992E-01  0.11418710430E-01  0.14096768889E+00  0.45674681502E-01 0.  0.
         14    1    1    2    0    0  0.11241859308E-01  0.23144506257E-02  0.86973532225E-02  0.14400695659E-01  0.00000000000E+00 0. -1.
     999901    1    3    3    0    0  0.11861205869E+00  0.25850879366E-01 -0.20116063652E-01  0.88856161545E+00  0.88000000000E+00 0. -1.
        -11    1    4    4    0    0 -0.36784019164E-01  0.12606271843E-01  0.25361108144E-02  0.38970182636E-01  0.51100000000E-03 0.  1.
         11    1    4    4    0    0 -0.93069898836E-01 -0.40771601835E-01  0.88825996155E-02  0.10199750626E+00  0.51100000000E-03 0. -1.
</event>
<event>
 8    1  0.2190512E+004  0.1043930E+01  0.7957747E-01            NaN
         13   -1    0    0    0    0  0.00000000000E+00  0.00000000000E+00  0.74505805969E-08  0.10566000000E+00  0.10566000000E+00 0.  1.
     999900   -1    0    0    0    0 -0.00000000000E+00 -0.00000000000E+00 -0.74505805969E-08  0.93827000000E+00  0.93827000000E+00 0.  1.
     999902    2    1    2    0    0  0.99419549516E-02  0.85871379084E-02 -0.47131538236E-02  0.10299730940E+01  0.10298785264E+01 0.  0.
     999903    2    3    3    0    0 -0.33241620874E-01  0.69213526749E-01  0.10901313970E+00  0.13953834060E+00  0.41128654582E-01 0.  0.
         14    1    1    2    0    0 -0.99419549516E-02 -0.85871379084E-02  0.47131538236E-02  0.13956905985E-01  0.00000000000E+00 0.  1.
     999901    1    3    3    0    0  0.43183575826E-01 -0.60626388841E-01 -0.11372629352E+00  0.89043475341E+00  0.88000000000E+00 0.  1.
        -11    1    4    4    0    0 -0.41073747768E-01  0.47669843323E-01  0.89633410213E-01  0.10951655613E+00  0.51100000000E-03 0. -1.
         11    1    4    4    0    0  0.78321268940E-02  0.21543683427E-01  0.19379729486E-01  0.30021784478E-01  0.51100000000E-03 0.  1.
</event>
<event>
 8    1  0.2190512E+004  0.1043930E+01  0.7957747E-01            NaN
         13   -1    0    0    0    0  0.00000000000E+00  0.00000000000E+00  0.74505805969E-08  0.10566000000E+00  0.10566000000E+00 0. -1.
     999900   -1    0    0    0    0 -0.00000000000E+00 -0.00000000000E+00 -0.74505805969E-08  0.93827000000E+00  0.93827000000E+00 0. -1.
     999902    2    1    2    0    0 -0.73199257561E-02  0.10442113124E-01 -0.42968634114E-02  0.10304733260E+01  0.10303854587E+01 0.  0.
     999903    2    3    3    0    0 -0.41490039962E-01 -0.10589750023E+00 -0.65623480600E-01  0.14004452127E+00  0.48685960621E-01 0.  0.
         14    1    1    2    0    0  0.73199257561E-02 -0.10442113124E-01  0.42968634114E-02  0.13456673985E-01  0.00000000000E+00 0. -1.
     999901    1    3    3    0    0  0.34170114206E-01  0.11633961335E+00  0.61326617189E-01  0.89042880474E+00  0.88000000000E+00 0.  1.
        -11    1    4    4    0    0 -0.11938354149E-01 -0.61493340938E-01 -0.10826400200E-01  0.63572221463E-01  0.51100000000E-03 0. -1.
         11    1    4    4    0    0 -0.29551685813E-01 -0.44404159290E-01 -0.54797080400E-01  0.76472299809E-01  0.51100000000E-03 0.  1.
</event>
<event>
 8    1  0.2190512E+004  0.1043930E+01  0.7957747E-01            NaN
         13   -1    0    0    0    0  0.00000000000E+00  0.00000000000E+00  0.74505805969E-08  0.10566000000E+00  0.10566000000E+00 0.  1.
     999900   -1    0    0    0    0 -0.00000000000E+00 -0.00000000000E+00 -0.74505805969E-08  0.93827000000E+00  0.93827000000E+00 0.  1.
     999902    2    1    2    0    0  0.52141787695E-02 -0.46637145007E-02 -0.12449003644E-01  0.10296500986E+01  0.10295510720E+01 0.  0.
     999903    2    3    3    0    0 -0.44539497442E-01 -0.10271132298E+00 -0.73187107258E-01  0.14073059768E+00  0.43764891800E-01 0.  0.
         14    1    1    2    0    0 -0.52141787695E-02  0.46637145007E-02  0.12449003644E-01  0.14279901432E-01  0.00000000000E+00 0.  1.
     999901    1    3    3    0    0  0.49753676211E-01  0.98047608480E-01  0.60738103613E-01  0.88891950089E+00  0.88000000000E+00 0.  1.
        -11    1    4    4    0    0 -0.11308012348E-01 -0.77245174857E-01 -0.43157505693E-01  0.89204930360E-01  0.51100000000E-03 0.  1.
         11    1    4    4    0    0 -0.33231485094E-01 -0.25466148124E-01 -0.30029601564E-01  0.51525667321E-01  0.51100000000E-03 0. -1.
</event>
<event>
 8    1  0.2190512E+004  0.1043930E+01  0.7957747E-01            NaN
         13   -1    0    0    0    0  0.00000000000E+00  0.00000000000E+00  0.74505805969E-08  0.10566000000E+00  0.10566000000E+00 0. -1.
     999900   -1    0    0    0    0 -0.00000000000E+00 -0.00000000000E+00 -0.74505805969E-08  0.93827000000E+00  0.93827000000E+00 0.  1.
     999902    2    1    2    0    0 -0.45157028621E-02  0.12536027709E-01 -0.26419574921E-02  0.10303460572E+01  0.10302565089E+01 0.  0.
     999903    2    3    3    0    0  0.37427716931E-01  0.22586143464E-01 -0.12585362846E+00  0.14071615034E+00  0.45287208984E-01 0.  0.
         14    1    1    2    0    0  0.45157028621E-02 -0.12536027709E-01  0.26419574921E-02  0.13583942816E-01  0.00000000000E+00 0. -1.
     999901    1    3    3    0    0 -0.41943419793E-01 -0.10050115756E-01  0.12321167097E+00  0.88962990685E+00  0.88000000000E+00 0. -1.
        -11    1    4    4    0    0  0.36745249929E-01 -0.27202885058E-02 -0.85120774059E-01  0.92754626080E-01  0.51100000000E-03 0. -1.
         11    1    4    4    0    0  0.68246700162E-03  0.25306431970E-01 -0.40732854404E-01  0.47961524258E-01  0.51100000000E-03 0.  1.
</event>
<event>
 8    1  0.2190512E+004  0.1043930E+01  0.7957747E-01            NaN
         13   -1    0    0    0    0  0.00000000000E+00  0.00000000000E+00  0.74505805969E-08  0.10566000000E+00  0.10566000000E+00 0. -1.
     999900   -1    0    0    0    0 -0.00000000000E+00 -0.00000000000E+00 -0.74505805969E-08  0.93827000000E+00  0.93827000000E+00 0.  1.
     999902    2    1    2    0    0  0.76506950502E-03  0.13691619784E-01  0.35324053318E-02  0.10297693619E+01  0.10296719939E+01 0.  0.
     999903    2    3    3    0    0 -0.89888478271E-01 -0.95021774663E-01  0.90979654442E-02  0.13844021770E+00  0.44427972227E-01 0.  0.
         14    1    1    2    0    0 -0.76506950502E-03 -0.13691619784E-01 -0.35324053318E-02  0.14160638089E-01  0.00000000000E+00 0. -1.
     999901    1    3    3    0    0  0.90653547776E-01  0.10871339445E+00 -0.55655601124E-02  0.89132914421E+00  0.88000000000E+00 0.  1.
        -11    1    4    4    0    0 -0.42757418335E-01 -0.51271188305E-01 -0.17230618498E-01  0.68949886930E-01  0.51100000000E-03 0.  1.
         11    1    4    4    0    0 -0.47131059937E-01 -0.43750586358E-01  0.26328583942E-01  0.69490330772E-01  0.51100000000E-03 0. -1.
</event>
<event>
 8    1  0.2190512E+004  0.1043930E+01  0.7957747E-01            NaN
         13   -1    0    0    0    0  0.00000000000E+00  0.00000000000E+00  0.74505805969E-08  0.10566000000E+00  0.10566000000E+00 0.  1.
     999900   -1    0    0    0    0 -0.00000000000E+00 -0.00000000000E+00 -0.74505805969E-08  0.93827000000E+00  0.93827000000E+00 0.  1.
     999902    2    1    2    0    0 -0.13468286196E-01 -0.17765821378E-02  0.31527189851E-02  0.10299840108E+01  0.10298895921E+01 0.  0.
     999903    2    3    3    0    0 -0.12182511124E+00 -0.65790929790E-02 -0.57830031310E-01  0.14123029832E+00  0.41437210943E-01 0.  0.
         14    1    1    2    0    0  0.13468286196E-01  0.17765821378E-02 -0.31527189851E-02  0.13945989178E-01  0.00000000000E+00 0.  1.
     999901    1    3    3    0    0  0.10835682504E+00  0.48025108412E-02  0.60982750295E-01  0.88875371250E+00  0.88000000000E+00 0. -1.
        -11    1    4    4    0    0 -0.31213470894E-01 -0.50880140684E-02  0.34707456493E-02  0.31819425651E-01  0.51100000000E-03 0.  1.
         11    1    4    4    0    0 -0.90611640345E-01 -0.14910789106E-02 -0.61300776959E-01  0.10941087267E+00  0.51100000000E-03 0. -1.
</event>
<event>
 8    1  0.2190512E+004  0.1043930E+01  0.7957747E-01            NaN
         13   -1    0    0    0    0  0.00000000000E+00  0.00000000000E+00  0.74505805969E-08  0.10566000000E+00  0.10566000000E+00 0.  1.
     999900   -1    0    0    0    0 -0.00000000000E+00 -0.00000000000E+00 -0.74505805969E-08  0.93827000000E+00  0.93827000000E+00 0. -1.
     999902    2    1    2    0    0 -0.12761014629E-01 -0.11959912557E-02  0.45623329150E-02  0.10303252666E+01  0.10302354421E+01 0.  0.
     999903    2    3    3    0    0 -0.27366192592E-01  0.12286259139E+00 -0.42638313232E-01  0.14025125610E+00  0.44813661111E-01 0.  0.
         14    1    1    2    0    0  0.12761014629E-01  0.11959912557E-02 -0.45623329150E-02  0.13604733407E-01  0.00000000000E+00 0. -1.
     999901    1    3    3    0    0  0.14605177963E-01 -0.12405858265E+00  0.47200646147E-01  0.89007401049E+00  0.88000000000E+00 0.  1.
        -11    1    4    4    0    0  0.87013478625E-02  0.56606933059E-01 -0.10388297049E-01  0.58208557460E-01  0.51100000000E-03 0. -1.
         11    1    4    4    0    0 -0.36067540454E-01  0.66255658336E-01 -0.32250016183E-01  0.82042698644E-01  0.51100000000E-03 0.  1.
</event>
<event>
 8    1  0.2190512E+004  0.1043930E+01  0.7957747E-01            NaN
         13   -1    0    0    0    0  0.00000000000E+00  0.00000000000E+00  0.74505805969E-08  0.10566000000E+00  0.10566000000E+00 0. -1.
     999900   -1    0    0    0    0 -0.00000000000E+00 -0.00000000000E+00 -0.74505805969E-08  0.93827000000E+00  0.93827000000E+00 0. -1.
     999902    2    1    2    0    0 -0.13328416473E-01  0.21246221007E-02  0.36778066259E-02  0.10299411842E+01  0.10298461808E+01 0.  0.
     999903    2    3    3    0    0 -0.36478982795E-01 -0.12393616707E+00  0.32348490541E-01  0.14019443409E+00  0.43785440693E-01 0.  0.
         14    1    1    2    0    0  0.13328416473E-01 -0.21246221007E-02 -0.36778066259E-02  0.13988815758E-01  0.00000000000E+00 0.  1.
     999901    1    3    3    0    0  0.23150566322E-01  0.12606078917E+00 -0.28670683915E-01  0.88974675015E+00  0.88000000000E+00 0. -1.
        -11    1    4    4    0    0 -0.76649537400E-02 -0.92234387459E-01  0.29971811120E-01  0.97285684088E-01  0.51100000000E-03 0. -1.
         11    1    4    4    0    0 -0.28814029055E-01 -0.31701779609E-01  0.23766794205E-02  0.42908750003E-01  0.51100000000E-03 0.  1.
</event>
<event>
 8    1  0.2190512E+004  0.1043930E+01  0.7957747E-01            NaN
         13   -1    0    0    0    0  0.00000000000E+00  0.00000000000E+00  0.74505805969E-08  0.10566000000E+00  0.10566000000E+00 0.  1.
     999900   -1    0    0    0    0 -0.00000000000E+00 -0.00000000000E+00 -0.74505805969E-08  0.93827000000E+00  0.93827000000E+00 0.  1.
     999902    2    1    2    0    0  0.13658373128E-01  0.65854972771E-02 -0.96297989582E-02  0.10259674568E+01  0.10258102015E+01 0.  0.
     999903    2    3    3    0    0  0.88284133511E-01 -0.59196746531E-01  0.72645063297E-01  0.13654884855E+00  0.45496590956E-01 0.  0.
         14    1    1    2    0    0 -0.13658373128E-01 -0.65854972771E-02  0.96297989582E-02  0.17962543218E-01  0.00000000000E+00 0.  1.
     999901    1    3    3    0    0 -0.74625760383E-01  0.65782243808E-01 -0.82274862256E-01  0.88941860823E+00  0.88000000000E+00 0.  1.
        -11    1    4    4    0    0  0.13348949342E-01  0.10667856912E-02  0.26914571528E-01  0.30066389237E-01  0.51100000000E-03 0.  1.
         11    1    4    4    0    0  0.74935184169E-01 -0.60263532222E-01  0.45730491770E-01  0.10648245931E+00  0.51100000000E-03 0. -1.
</event>
<event>
 8    1  0.2190512E+004  0.1043930E+01  0.7957747E-01            NaN
         13   -1    0    0    0    0  0.00000000000E+00  0.00000000000E+00  0.74505805969E-08  0.10566000000E+00  0.10566000000E+00 0.  1.
     999900   -1    0    0    0    0 -0.00000000000E+00 -0.00000000000E+00 -0.74505805969E-08  0.93827000000E+00  0.93827000000E+00 0. -1.
     999902    2    1    2    0    0 -0.53925807917E-02  0.60669975069E-02  0.10767117162E-01  0.10304459651E+01  0.10303577377E+01 0.  0.
     999903    2    3    3    0    0 -0.81433847699E-01 -0.87208828158E-01 -0.55443248828E-01  0.13979088789E+00  0.47230151765E-01 0.  0.
         14    1    1    2    0    0  0.53925807917E-02 -0.60669975069E-02 -0.10767117162E-01  0.13484034942E-01  0.00000000000E+00 0.  1.
     999901    1    3    3    0    0  0.76041266907E-01  0.93275825665E-01  0.66210365990E-01  0.89065507717E+00  0.88000000000E+00 0.  1.
        -11    1    4    4    0    0 -0.47578600208E-01 -0.17339308148E-01 -0.20137518056E-01  0.54499133564E-01  0.51100000000E-03 0. -1.
         11    1    4    4    0    0 -0.33855247492E-01 -0.69869520009E-01 -0.35305730772E-01  0.85291754322E-01  0.51100000000E-03 0.  1.
</event>
<event>
 8    1  0.2190512E+004  0.1043930E+01  0.7957747E-01            NaN
         13   -1    0    0    0    0  0.00000000000E+00  0.00000000000E+00  0.74505805969E-08  0.10566000000E+00  0.10566000000E+00 0. -1.
     999900   -1    0    0    0    0 -0.00000000000E+00 -0.00000000000E+00 -0.74505805969E-08  0.93827000000E+00  0.93827000000E+00 0.  1.
     999902    2    1    2    0    0  0.18096418682E-02  0.60836501355E-02  0.11998872023E-01  0.10303558137E+01  0.10302663949E+01 0.  0.
     999903    2    3    3    0    0 -0.28429982972E-01 -0.86606103352E-03 -0.12805781900E+00  0.13874008368E+00  0.45177337442E-01 0.  0.
         14    1    1    2    0    0 -0.18096418682E-02 -0.60836501355E-02 -0.11998872023E-01  0.13574186255E-01  0.00000000000E+00 0.  1.
     999901    1    3    3    0    0  0.30239624840E-01  0.69497111690E-02  0.14005669103E+00  0.89161573006E+00  0.88000000000E+00 0. -1.
        -11    1    4    4    0    0 -0.30233059763E-01  0.11956136991E-01 -0.50194473282E-01  0.59805797239E-01  0.51100000000E-03 0.  1.
         11    1    4    4    0    0  0.18030767912E-02 -0.12822198024E-01 -0.77863345722E-01  0.78934286442E-01  0.51100000000E-03 0. -1.
</event>
<event>
 8    1  0.2190512E+004  0.1043930E+01  0.7957747E-01            NaN
         13   -1    0    0    0    0  0.00000000000E+00  0.00000000000E+00  0.74505805969E-08  0.10566000000E+00  0.10566000000E+00 0.  1.
     999900   -1    0    0    0    0 -0.00000000000E+00 -0.00000000000E+00 -0.74505805969E-08  0.93827000000E+00  0.93827000000E+00 0.  1.
     999902    2    1    2    0    0 -0.97087616072E-04 -0.47090419512E-02  0.12178362644E-01  0.10308725493E+01  0.10307898505E+01 0.  0.
     999903    2    3    3    0    0  0.13146215032E+00 -0.18856347934E-02 -0.20464194439E-01  0.14048985560E+00  0.45086180648E-01 0.  0.
         14    1    1    2    0    0  0.97087616072E-04  0.47090419512E-02 -0.12178362644E-01  0.13057450701E-01  0.00000000000E+00 0. -1.
     999901    1    3    3    0    0 -0.13155923794E+00 -0.28234071578E-02  0.32642557083E-01  0.89038269370E+00  0.88000000000E+00 0. -1.
        -11    1    4    4    0    0  0.69442284376E-01 -0.23485759147E-01 -0.10055059636E-01  0.73994439570E-01  0.51100000000E-03 0. -1.
         11    1    4    4    0    0  0.62019865946E-01  0.21600124353E-01 -0.10409134803E-01  0.66495416025E-01  0.51100000000E-03 0.  1.
</event>
<event>
 8    1  0.2190512E+004  0.1043930E+01  0.7957747E-01            NaN
         13   -1    0    0    0    0  0.00000000000E+00  0.00000000000E+00  0.74505805969E-08  0.10566000000E+00  0.10566000000E+00 0.  1.
     999900   -1    0    0    0    0 -0.00000000000E+00 -0.00000000000E+00 -0.74505805969E-08  0.93827000000E+00  0.93827000000E+00 0. -1.
     999902    2    1    2    0    0  0.48241239505E-02 -0.14655073033E-02  0.14410143165E-01  0.10286633006E+01  0.10285500056E+01 0.  0.
     999903    2    3    3    0    0 -0.35892314072E-01  0.10363271374E+00 -0.70014170022E-01  0.13746695355E+00  0.44352922648E-01 0.  0.
         14    1    1    2    0    0 -0.48241239505E-02  0.14655073033E-02 -0.14410143165E-01  0.15266699367E-01  0.00000000000E+00 0. -1.
     999901    1    3    3    0    0  0.40716438023E-01 -0.10509822105E+00  0.84424313187E-01  0.89119634708E+00  0.88000000000E+00 0.  1.
        -11    1    4    4    0    0 -0.43076780043E-01  0.63264257866E-01 -0.38054158739E-01  0.85477221647E-01  0.51100000000E-03 0.  1.
         11    1    4    4    0    0  0.71844659706E-02  0.40368455879E-01 -0.31960011283E-01  0.51989731905E-01  0.51100000000E-03 0. -1.
</event>
<event>
 8    1  0.2628047E+004  0.1043930E+01  0.7957747E-01            NaN
         13   -1    0    0    0    0  0.00000000000E+00  0.00000000000E+00  0.74505805969E-08  0.10566000000E+00  0.10566000000E+00 0.  1.
     999900   -1    0    0    0    0 -0.00000000000E+00 -0.00000000000E+00 -0.74505805969E-08  0.93827000000E+00  0.93827000000E+00 0. -1.
     999902    2    1    2    0    0  0.81268587240E-02 -0.10333873553E-01 -0.15497128509E-02  0.10306923119E+01  0.10306072994E+01 0.  0.
     999903    2    3    3    0    0  0.17147171779E-02 -0.12696567362E-01  0.13245033092E+00  0.14052226660E+00  0.45158323396E-01 0.  0.
         14    1    1    2    0    0 -0.81268587240E-02  0.10333873553E-01  0.15497128509E-02  0.13237688063E-01  0.00000000000E+00 0.  1.
     999901    1    3    3    0    0  0.64121415461E-02  0.23626938095E-02 -0.13400004377E+00  0.89017004534E+00  0.88000000000E+00 0. -1.
        -11    1    4    4    0    0  0.19056431048E-01  0.72785089631E-02  0.53697861526E-01  0.57444283532E-01  0.51100000000E-03 0. -1.
         11    1    4    4    0    0 -0.17341713870E-01 -0.19975076325E-01  0.78752469395E-01  0.83077983070E-01  0.51100000000E-03 0.  1.
</event>
<event>
 8    1  0.2190512E+004  0.1043930E+01  0.7957747E-01            NaN
         13   -1    0    0    0    0  0.00000000000E+00  0.00000000000E+00  0.74505805969E-08  0.10566000000E+00  0.10566000000E+00 0. -1.
     999900   -1    0    0    0    0 -0.00000000000E+00 -0.00000000000E+00 -0.74505805969E-08  0.93827000000E+00  0.93827000000E+00 0. -1.
     999902    2    1    2    0    0  0.13755676407E-02  0.50464356984E-02 -0.12740654802E-01  0.10301574554E+01  0.10300653863E+01 0.  0.
     999903    2    3    3    0    0 -0.25573752006E-01 -0.12441530763E+00 -0.38241878184E-01  0.13991202790E+00  0.44494367521E-01 0.  0.
         14    1    1    2    0    0 -0.13755676407E-02 -0.50464356984E-02  0.12740654802E-01  0.13772544586E-01  0.00000000000E+00 0. -1.
     999901    1    3    3    0    0  0.26949319647E-01  0.12946174332E+00  0.25501223382E-01  0.89024542751E+00  0.88000000000E+00 0. -1.
        -11    1    4    4    0    0 -0.92736755456E-02 -0.74359022015E-01 -0.44085522566E-01  0.86942852691E-01  0.51100000000E-03 0. -1.
         11    1    4    4    0    0 -0.16300076460E-01 -0.50056285610E-01  0.58436443822E-02  0.52969175209E-01  0.51100000000E-03 0.  1.
</event>
<event>
 8    1  0.2190512E+004  0.1043930E+01  0.7957747E-01            NaN
         13   -1    0    0    0    0  0.00000000000E+00  0.00000000000E+00  0.74505805969E-08  0.10566000000E+00  0.10566000000E+00 0. -1.
     999900   -1    0    0    0    0 -0.00000000000E+00 -0.00000000000E+00 -0.74505805969E-08  0.93827000000E+00  0.93827000000E+00 0. -1.
     999902    2    1    2    0    0 -0.56474347615E-02  0.12689092809E-01 -0.23592520488E-02  0.10298419673E+01  0.10297456020E+01 0.  0.
     999903    2    3    3    0    0  0.41237488828E-02  0.12349751979E+00  0.51404632091E-01  0.14121125728E+00  0.45050419325E-01 0.  0.
         14    1    1    2    0    0  0.56474347615E-02 -0.12689092809E-01  0.23592520488E-02  0.14088032721E-01  0.00000000000E+00 0.  1.
     999901    1    3    3    0    0 -0.97711836442E-02 -0.11080842698E+00 -0.53763884140E-01  0.88863071000E+00  0.88000000000E+00 0. -1.
        -11    1    4    4    0    0  0.10470733129E-01  0.49774047448E-01  0.43245766155E-01  0.66764881959E-01  0.51100000000E-03 0.  1.
         11    1    4    4    0    0 -0.63469842460E-02  0.73723472346E-01  0.81588659358E-02  0.74446375319E-01  0.51100000000E-03 0. -1.
</event>
<event>
 8    1  0.2190512E+004  0.1043930E+01  0.7957747E-01            NaN
         13   -1    0    0    0    0  0.00000000000E+00  0.00000000000E+00  0.74505805969E-08  0.10566000000E+00  0.10566000000E+00 0.  1.
     999900   -1    0    0    0    0 -0.00000000000E+00 -0.00000000000E+00 -0.74505805969E-08  0.93827000000E+00  0.93827000000E+00 0.  1.
     999902    2    1    2    0    0  0.34741599453E-02  0.13605498623E-01  0.11278826900E-02  0.10298427185E+01  0.10297463636E+01 0.  0.
     999903    2    3    3    0    0  0.77253477996E-01 -0.20127727066E-01 -0.10513311794E+00  0.13974569092E+00  0.45854774937E-01 0.  0.
         14    1    1    2    0    0 -0.34741599453E-02 -0.13605498623E-01 -0.11278826900E-02  0.14087281479E-01  0.00000000000E+00 0. -1.
     999901    1    3    3    0    0 -0.73779318050E-01  0.33733225688E-01  0.10626100063E+00  0.89009702760E+00  0.88000000000E+00 0. -1.
        -11    1    4    4    0    0  0.63350986648E-01 -0.31431980891E-01 -0.97043605091E-01  0.12007930439E+00  0.51100000000E-03 0. -1.
         11    1    4    4    0    0  0.13902491348E-01  0.11304253825E-01 -0.80895128471E-02  0.19666386535E-01  0.51100000000E-03 0.  1.
</event>
<event>
 8    1  0.2190512E+004  0.1043930E+01  0.7957747E-01            NaN
         13   -1    0    0    0    0  0.00000000000E+00  0.00000000000E+00  0.74505805969E-08  0.10566000000E+00  0.10566000000E+00 0.  1.
     999900   -1    0    0    0    0 -0.00000000000E+00 -0.00000000000E+00 -0.74505805969E-08  0.93827000000E+00  0.93827000000E+00 0.  1.
     999902    2    1    2    0    0 -0.10523792653E-01 -0.16040772968E-01  0.11586783532E-01  0.10215177230E+01  0.10212718287E+01 0.  0.
     999903    2    3    3    0    0 -0.48321130443E-01 -0.11718491130E+00  0.10712220528E-01  0.13491773406E+00  0.44953400455E-01 0.  0.
         14    1    1    2    0    0  0.10523792653E-01  0.16040772968E-01 -0.11586783532E-01  0.22412277033E-01  0.00000000000E+00 0. -1.
     999901    1    3    3    0    0  0.37797337790E-01  0.10114413833E+00  0.87456300383E-03  0.88659998890E+00  0.88000000000E+00 0.  1.
        -11    1    4    4    0    0 -0.21172984492E-01 -0.37433360630E-01 -0.16974165340E-01  0.46237811046E-01  0.51100000000E-03 0.  1.
         11    1    4    4    0    0 -0.27148145951E-01 -0.79751550671E-01  0.27686385868E-01  0.88679923018E-01  0.51100000000E-03 0. -1.
</event>
<event>
 8    1  0.2190512E+004  0.1043930E+01  0.7957747E-01            NaN
         13   -1    0    0    0    0  0.00000000000E+00  0.00000000000E+00  0.74505805969E-08  0.10566000000E+00  0.10566000000E+00 0. -1.
     999900   -1    0    0    0    0 -0.00000000000E+00 -0.00000000000E+00 -0.74505805969E-08  0.93827000000E+00  0.93827000000E+00 0. -1.
     999902    2    1    2    0    0 -0.67605887514E-02 -0.88648609172E-02 -0.80959311011E-02  0.10301519225E+01  0.10300597788E+01 0.  0.
     999903    2    3    3    0    0 -0.81680684902E-01 -0.62835535250E-01  0.84714721567E-01  0.14046676934E+00  0.43980569146E-01 0.  0.
         14    1    1    2    0    0  0.67605887514E-02  0.88648609172E-02  0.80959311011E-02  0.13778077505E-01  0.00000000000E+00 0. -1.
     999901    1    3    3    0    0  0.74920096151E-01  0.53970674333E-01 -0.92810652668E-01  0.88968515315E+00  0.88000000000E+00 0. -1.
        -11    1    4    4    0    0 -0.93593526566E-02 -0.30881191723E-01  0.17626422934E-01  0.36772236685E-01  0.51100000000E-03 0.  1.
         11    1    4    4    0    0 -0.72321332246E-01 -0.31954343527E-01  0.67088298633E-01  0.10369453265E+00  0.51100000000E-03 0. -1.
</event>
<event>
 8    1  0.2190512E+004  0.1043930E+01  0.7957747E-01            NaN
         13   -1    0    0    0    0  0.00000000000E+00  0.00000000000E+00  0.74505805969E-08  0.10566000000E+00  0.10566000000E+00 0. -1.
     999900   -1    0    0    0    0 -0.00000000000E+00 -0.00000000000E+00 -0.74505805969E-08  0.93827000000E+00  0.93827000000E+00 0. -1.
     999902    2    1    2    0    0  0.27895095841E-02  0.24581031282E-02  0.13471589432E-01  0.10299547592E+01  0.10298599412E+01 0.  0.
     999903    2    3    3    0    0 -0.11929586870E+00 -0.46908673637E-01 -0.29960818091E-01  0.13909658175E+00  0.44925276645E-01 0.  0.
         14    1    1    2    0    0 -0.27895095841E-02 -0.24581031282E-02 -0.13471589432E-01  0.13975240840E-01  0.00000000000E+00 0.  1.
     999901    1    3    3    0    0  0.12208537829E+00  0.49366776765E-01  0.43432407523E-01  0.89085817741E+00  0.88000000000E+00 0.  1.
        -11    1    4    4    0    0 -0.32878935985E-01 -0.33302375082E-01 -0.20532666102E-01  0.51106986957E-01  0.51100000000E-03 0. -1.
         11    1    4    4    0    0 -0.86416932717E-01 -0.13606298555E-01 -0.94281519898E-02  0.87989594791E-01  0.51100000000E-03 0.  1.
</event>
<event>
 8    1  0.2190512E+004  0.1043930E+01  0.7957747E-01            NaN
         13   -1    0    0    0    0  0.00000000000E+00  0.00000000000E+00  0.74505805969E-08  0.10566000000E+00  0.10566000000E+00 0.  1.
     999900   -1    0    0    0    0 -0.00000000000E+00 -0.00000000000E+00 -0.74505805969E-08  0.93827000000E+00  0.93827000000E+00 0. -1.
     999902    2    1    2    0    0  0.13018309636E-01  0.18573466198E-02  0.10979779166E-02  0.10307341038E+01  0.10306496306E+01 0.  0.
     999903    2    3    3    0    0  0.59013787063E-01  0.27561664294E-01  0.11752914436E+00  0.14150268707E+00  0.44358068845E-01 0.  0.
         14    1    1    2    0    0 -0.13018309636E-01 -0.18573466198E-02 -0.10979779166E-02  0.13195896246E-01  0.00000000000E+00 0.  1.
     999901    1    3    3    0    0 -0.45995477427E-01 -0.25704317675E-01 -0.11643116645E+00  0.88923141668E+00  0.88000000000E+00 0. -1.
        -11    1    4    4    0    0  0.43334126128E-01 -0.36786387476E-02  0.71740211765E-01  0.83894564636E-01  0.51100000000E-03 0.  1.
         11    1    4    4    0    0  0.15679660936E-01  0.31240303042E-01  0.45788932599E-01  0.57608122438E-01  0.51100000000E-03 0. -1.
</event>
<event>
 8    1  0.2190512E+004  0.1043930E+01  0.7957747E-01            NaN
         13   -1    0    0    0    0  0.00000000000E+00  0.00000000000E+00  0.74505805969E-08  0.10566000000E+00  0.10566000000E+00 0. -1.
     999900   -1    0    0    0    0 -0.00000000000E+00 -0.00000000000E+00 -0.74505805969E-08  0.93827000000E+00  0.93827000000E+00 0. -1.
     999902    2    1    2    0    0 -0.33048217105E-02  0.15291796047E-01 -0.80762411084E-02  0.10263235653E+01  0.10261725362E+01 0.  0.
     999903    2    3    3    0    0 -0.52864899699E-01  0.25792962193E-01 -0.11628744577E+00  0.13824916489E+00  0.46152865905E-01 0.  0.
         14    1    1    2    0    0  0.33048217105E-02 -0.15291796047E-01  0.80762411084E-02  0.17606434714E-01  0.00000000000E+00 0.  1.
     999901    1    3    3    0    0  0.49560077989E-01 -0.10501166146E-01  0.10821120466E+00  0.88807440039E+00  0.88000000000E+00 0.  1.
        -11    1    4    4    0    0 -0.21188061463E-01  0.29811894186E-01 -0.89074392353E-01  0.96292219196E-01  0.51100000000E-03 0.  1.
         11    1    4    4    0    0 -0.31676838236E-01 -0.40189319932E-02 -0.27213053415E-01  0.41956945697E-01  0.51100000000E-03 0. -1.
</event>
<event>
 8    1  0.2190512E+004  0.1043930E+01  0.7957747E-01            NaN
         13   -1    0    0    0    0  0.00000000000E+00  0.00000000000E+00  0.74505805969E-08  0.10566000000E+00  0.10566000000E+00 0. -1.
     999900   -1    0    0    0    0 -0.00000000000E+00 -0.00000000000E+00 -0.74505805969E-08  0.93827000000E+00  0.93827000000E+00 0. -1.
     999902    2    1    2    0    0  0.35682895399E-02  0.86396603476E-02 -0.98142008884E-02  0.10303765886E+01  0.10302874450E+01 0.  0.
     999903    2    3    3    0    0  0.67697178029E-01  0.76888407165E-01 -0.87536982021E-01  0.14200097183E+00  0.44797519023E-01 0.  0.
         14    1    1    2    0    0 -0.35682895399E-02 -0.86396603476E-02  0.98142008884E-02  0.13553411388E-01  0.00000000000E+00 0. -1.
     999901    1    3    3    0    0 -0.64128888489E-01 -0.68248746818E-01  0.77722781133E-01  0.88837561678E+00  0.88000000000E+00 0.  1.
        -11    1    4    4    0    0  0.29406646202E-01  0.65426667800E-01 -0.59133993574E-01  0.92964993505E-01  0.51100000000E-03 0.  1.
         11    1    4    4    0    0  0.38290531828E-01  0.11461739365E-01 -0.28402988447E-01  0.49035978329E-01  0.51100000000E-03 0. -1.
</event>
<event>
 8    1  0.2190512E+004  0.1043930E+01  0.7957747E-01            NaN
         13   -1    0    0    0    0  0.00000000000E+00  0.00000000000E+00  0.74505805969E-08  0.10566000000E+00  0.10566000000E+00 0.  1.
     999900   -1    0    0    0    0 -0.00000000000E+00 -0.00000000000E+00 -0.74505805969E-08  0.93827000000E+00  0.93827000000E+00 0. -1.
     999902    2    1    2    0    0  0.54039370952E-02  0.12420527084E-01 -0.45096435072E-02  0.10296538341E+01  0.10295548597E+01 0.  0.
     999903    2    3    3    0    0 -0.45070241125E-01 -0.11461506476E+00  0.42849965427E-01  0.13784184894E+00  0.44680153041E-01 0.  0.
         14    1    1    2    0    0 -0.54039370952E-02 -0.12420527084E-01  0.45096435072E-02  0.14276165933E-01  0.00000000000E+00 0.  1.
     999901    1    3    3    0    0  0.50474178220E-01  0.12703559185E+00 -0.47359608934E-01  0.89181198513E+00  0.88000000000E+00 0. -1.
        -11    1    4    4    0    0 -0.36352589293E-01 -0.75912476079E-01  0.49450755572E-01  0.97620966602E-01  0.51100000000E-03 0.  1.
         11    1    4    4    0    0 -0.87176518315E-02 -0.38702588683E-01 -0.66007901450E-02  0.40220882335E-01  0.51100000000E-03 0. -1.
</event>
<event>
 8    1  0.2190512E+004  0.1043930E+01  0.7957747E-01            NaN
         13   -1    0    0    0    0  0.00000000000E+00  0.00000000000E+00  0.74505805969E-08  0.10566000000E+00  0.10566000000E+00 0. -1.
     999900   -1    0    0    0    0 -0.00000000000E+00 -0.00000000000E+00 -0.74505805969E-08  0.93827000000E+00  0.93827000000E+00 0. -1.
     999902    2    1    2    0    0 -0.39815528867E-02 -0.51596426475E-02  0.94857594227E-02  0.10324211205E+01  0.10323569711E+01 0.  0.
     999903    2    3    3    0    0  0.20777174574E-01 -0.10002926949E-01  0.13421432977E+00  0.14326777700E+00  0.44501910981E-01 0.  0.
         14    1    1    2    0    0  0.39815528867E-02  0.51596426475E-02 -0.94857594227E-02  0.11508879505E-01  0.00000000000E+00 0.  1.
     999901    1    3    3    0    0 -0.24758727461E-01  0.48432843019E-02 -0.12472857034E+00  0.88915334349E+00  0.88000000000E+00 0. -1.
        -11    1    4    4    0    0  0.12100471713E-01  0.17479638104E-01  0.54470214488E-01  0.58474135746E-01  0.51100000000E-03 0. -1.
         11    1    4    4    0    0  0.86767028615E-02 -0.27482565053E-01  0.79744115279E-01  0.84793641254E-01  0.51100000000E-03 0.  1.
</event>
<event>
 7    1  0.2807811E+004  0.1043930E+01  0.7957747E-01            NaN
         13   -1    0    0    0    0  0.00000000000E+00  0.00000000000E+00  0.74505805969E-08  0.10566000000E+00  0.10566000000E+00 0.  1.
     999900   -1    0    0    0    0 -0.00000000000E+00 -0.00000000000E+00 -0.74505805969E-08  0.93827000000E+00  0.93827000000E+00 0.  1.
     999903    2    1    2    0    0 -0.15579630283E-02  0.76555292947E-01 -0.67591393014E-02  0.89007941009E-01  0.44873014961E-01 0.  0.
         14    1    1    2    0    0  0.20307427230E-01 -0.71659191235E-01 -0.47642328954E-02  0.74633298227E-01  0.00000000000E+00 0.  1.
     999901    1    1    2    0    0 -0.18749464202E-01 -0.48961017118E-02  0.11523372197E-01  0.88028876076E+00  0.88000000000E+00 0. -1.
        -11    1    3    3    0    0 -0.32522888431E-03  0.39093264434E-01  0.19054440364E-01  0.43493929651E-01  0.51100000000E-03 0. -1.
         11    1    3    3    0    0 -0.12327341440E-02  0.37462028513E-01 -0.25813579665E-01  0.45514011358E-01  0.51100000000E-03 0.  1.
</event>
<event>
 8    1  0.2190512E+004  0.1043930E+01  0.7957747E-01            NaN
         13   -1    0    0    0    0  0.00000000000E+00  0.00000000000E+00  0.74505805969E-08  0.10566000000E+00  0.10566000000E+00 0. -1.
     999900   -1    0    0    0    0 -0.00000000000E+00 -0.00000000000E+00 -0.74505805969E-08  0.93827000000E+00  0.93827000000E+00 0.  1.
     999902    2    1    2    0    0 -0.16668803539E-01 -0.15972658556E-01  0.46481891352E-02  0.10203804672E+01  0.10201086792E+01 0.  0.
     999903    2    3    3    0    0  0.19834186130E-01  0.73255705842E-01 -0.94845185432E-01  0.12954204142E+00  0.45008198337E-01 0.  0.
         14    1    1    2    0    0  0.16668803539E-01  0.15972658556E-01 -0.46481891352E-02  0.23549532799E-01  0.00000000000E+00 0.  1.
     999901    1    3    3    0    0 -0.36502989670E-01 -0.89228364398E-01  0.99493374567E-01  0.89083842578E+00  0.88000000000E+00 0.  1.
        -11    1    4    4    0    0  0.35206120937E-03  0.17893079625E-01 -0.56903216939E-01  0.59653360882E-01  0.51100000000E-03 0.  1.
         11    1    4    4    0    0  0.19482124921E-01  0.55362626217E-01 -0.37941968493E-01  0.69888680537E-01  0.51100000000E-03 0. -1.
</event>
<event>
 8    1  0.2190512E+004  0.1043930E+01  0.7957747E-01            NaN
         13   -1    0    0    0    0  0.00000000000E+00  0.00000000000E+00  0.74505805969E-08  0.10566000000E+00  0.10566000000E+00 0. -1.
     999900   -1    0    0    0    0 -0.00000000000E+00 -0.00000000000E+00 -0.74505805969E-08  0.93827000000E+00  0.93827000000E+00 0. -1.
     999902    2    1    2    0    0 -0.48986016463E-02 -0.95380374017E-02 -0.97769590800E-02  0.10294193355E+01  0.10293170595E+01 0.  0.
     999903    2    3    3    0    0 -0.70164605067E-01  0.89547001420E-01 -0.65542803502E-01  0.13970740148E+00  0.47755226627E-01 0.  0.
         14    1    1    2    0    0  0.48986016463E-02  0.95380374017E-02  0.97769590800E-02  0.14510664506E-01  0.00000000000E+00 0. -1.
     999901    1    3    3    0    0  0.65266003421E-01 -0.99085038822E-01  0.55765844422E-01  0.88971193401E+00  0.88000000000E+00 0.  1.
        -11    1    4    4    0    0 -0.25840735547E-01  0.69284877775E-02 -0.28278382824E-02  0.26907347451E-01  0.51100000000E-03 0.  1.
         11    1    4    4    0    0 -0.44323869520E-01  0.82618513642E-01 -0.62714965219E-01  0.11280005403E+00  0.51100000000E-03 0. -1.
</event>
<event>
 8    1  0.2190512E+004  0.1043930E+01  0.7957747E-01            NaN
         13   -1    0    0    0    0  0.00000000000E+00  0.00000000000E+00  0.74505805969E-08  0.10566000000E+00  0.10566000000E+00 0.  1.
     999900   -1    0    0    0    0 -0.00000000000E+00 -0.00000000000E+00 -0.74505805969E-08  0.93827000000E+00  0.93827000000E+00 0. -1.
     999902    2    1    2    0    0  0.10099784468E-01  0.83988332839E-02  0.47035808279E-02  0.10299775909E+01  0.10298830847E+01 0.  0.
     999903    2    3    3    0    0 -0.75913137378E-01 -0.94738255088E-01  0.49512618485E-01  0.13866208472E+00  0.45139040144E-01 0.  0.
         14    1    1    2    0    0 -0.10099784468E-01 -0.83988332839E-02 -0.47035808279E-02  0.13952409091E-01  0.00000000000E+00 0. -1.
     999901    1    3    3    0    0  0.86012921846E-01  0.10313708837E+00 -0.44809037657E-01  0.89131550619E+00  0.88000000000E+00 0.  1.
        -11    1    4    4    0    0 -0.33724544681E-01 -0.49453758534E-01  0.48035470260E-01  0.76750808928E-01  0.51100000000E-03 0.  1.
         11    1    4    4    0    0 -0.42188592697E-01 -0.45284496554E-01  0.14771482255E-02  0.61911275789E-01  0.51100000000E-03 0. -1.
</event>
<event>
 8    1  0.2190512E+004  0.1043930E+01  0.7957747E-01            NaN
         13   -1    0    0    0    0  0.00000000000E+00  0.00000000000E+00  0.74505805969E-08  0.10566000000E+00  0.10566000000E+00 0. -1.
     999900   -1    0    0    0    0 -0.00000000000E+00 -0.00000000000E+00 -0.74505805969E-08  0.93827000000E+00  0.93827000000E+00 0.  1.
     999902    2    1    2    0    0  0.58844737233E-02  0.15154741868E-01 -0.18459304025E-02  0.10275684386E+01  0.10274381711E+01 0.  0.
     999903    2    3    3    0    0  0.31406155398E-01  0.12810714420E+00  0.12202662207E-01  0.13987087503E+00  0.44912912689E-01 0.  0.
         14    1    1    2    0    0 -0.58844737233E-02 -0.15154741868E-01  0.18459304025E-02  0.16361561390E-01  0.00000000000E+00 0. -1.
     999901    1    3    3    0    0 -0.25521681675E-01 -0.11295240233E+00 -0.14048592609E-01  0.88769756358E+00  0.88000000000E+00 0.  1.
        -11    1    4    4    0    0 -0.25138516115E-02  0.32576238682E-01 -0.13391209850E-01  0.35314535235E-01  0.51100000000E-03 0. -1.
         11    1    4    4    0    0  0.33920007010E-01  0.95530905514E-01  0.25593872057E-01  0.10455633980E+00  0.51100000000E-03 0.  1.
</event>
<event>
 8    1  0.2190512E+004  0.1043930E+01  0.7957747E-01            NaN
         13   -1    0    0    0    0  0.00000000000E+00  0.00000000000E+00  0.74505805969E-08  0.10566000000E+00  0.10566000000E+00 0. -1.
     999900   -1    0    0    0    0 -0.00000000000E+00 -0.00000000000E+00 -0.74505805969E-08  0.93827000000E+00  0.93827000000E+00 0.  1.
     999902    2    1    2    0    0 -0.13301920733E-03  0.65789859545E-03  0.13748009059E-01  0.10301656156E+01  0.10300736562E+01 0.  0.
     999903    2    3    3    0    0  0.32670362682E-01  0.22411889478E-01 -0.12514419674E+00  0.13840312323E+00  0.43871507292E-01 0.  0.
         14    1    1    2    0    0  0.13301920733E-03 -0.65789859545E-03 -0.13748009059E-01  0.13764384395E-01  0.00000000000E+00 0.  1.
     999901    1    3    3    0    0 -0.32803381889E-01 -0.21753990882E-01  0.13889220580E+00  0.89176249238E+00  0.88000000000E+00 0. -1.
        -11    1    4    4    0    0  0.22673628182E-01  0.80132476609E-02 -0.18548346010E-01  0.30374459892E-01  0.51100000000E-03 0.  1.
         11    1    4    4    0    0  0.99967344993E-02  0.14398641817E-01 -0.10659585073E+00  0.10802866333E+00  0.51100000000E-03 0. -1.
</event>
<event>
 8    1  0.2190512E+004  0.1043930E+01  0.7957747E-01            NaN
         13   -1    0    0    0    0  0.00000000000E+00  0.00000000000E+00  0.74505805969E-08  0.10566000000E+00  0.10566000000E+00 0.  1.
     999900   -1    0    0    0    0 -0.00000000000E+00 -0.00000000000E+00 -0.74505805969E-08  0.93827000000E+00  0.93827000000E+00 0. -1.
     999902    2    1    2    0    0 -0.18321236113E-01 -0.15757244867E-02  0.21267566913E-01  0.10158148795E+01  0.10154257281E+01 0.  0.
     999903    2    3    3    0    0 -0.34407893928E-01 -0.11434535741E+00 -0.80742895476E-02  0.12798791704E+00  0.45353597772E-01 0.  0.
         14    1    1    2    0    0  0.18321236113E-01  0.15757244867E-02 -0.21267566913E-01  0.28115120536E-01  0.00000000000E+00 0. -1.
     999901    1    3    3    0    0  0.16086657815E-01  0.11276963292E+00  0.29341856461E-01  0.88782696243E+00  0.88000000000E+00 0. -1.
        -11    1    4    4    0    0  0.50915216754E-02 -0.43840302517E-01  0.98112035170E-02  0.45215224794E-01  0.51100000000E-03 0. -1.
         11    1    4    4    0    0 -0.39499415604E-01 -0.70505054890E-01 -0.17885493065E-01  0.82772692244E-01  0.51100000000E-03 0.  1.
</event>
<event>
 8    1  0.2190512E+004  0.1043930E+01  0.7957747E-01            NaN
         13   -1    0    0    0    0  0.00000000000E+00  0.00000000000E+00  0.74505805969E-08  0.10566000000E+00  0.10566000000E+00 0.  1.
     999900   -1    0    0    0    0 -0.00000000000E+00 -0.00000000000E+00 -0.74505805969E-08  0.93827000000E+00  0.93827000000E+00 0.  1.
     999902    2    1    2    0    0 -0.49655582615E-02  0.12586492532E-01  0.47121527697E-03  0.10303912184E+01  0.10303022684E+01 0.  0.
     999903    2    3    3    0    0  0.63292063048E-01 -0.43032650663E-01  0.10829314264E+00  0.13944893073E+00  0.43138211262E-01 0.  0.
         14    1    1    2    0    0  0.49655582615E-02 -0.12586492532E-01 -0.47121527697E-03  0.13538781590E-01  0.00000000000E+00 0. -1.
     999901    1    3    3    0    0 -0.68257621309E-01  0.55619143194E-01 -0.10782192736E+00  0.89094228768E+00  0.88000000000E+00 0.  1.
        -11    1    4    4    0    0  0.54697268900E-01 -0.36586199233E-01  0.11036507188E+00  0.12849533615E+00  0.51100000000E-03 0. -1.
         11    1    4    4    0    0  0.85947941478E-02 -0.64464514296E-02 -0.20719292412E-02  0.10953594582E-01  0.51100000000E-03 0.  1.
</event>
<event>
 8    1  0.2190512E+004  0.1043930E+01  0.7957747E-01            NaN
         13   -1    0    0    0    0  0.00000000000E+00  0.00000000000E+00  0.74505805969E-08  0.10566000000E+00  0.10566000000E+00 0.  1.
     999900   -1    0    0    0    0 -0.00000000000E+00 -0.00000000000E+00 -0.74505805969E-08  0.93827000000E+00  0.93827000000E+00 0. -1.
     999902    2    1    2    0    0  0.79347083772E-02 -0.80816039730E-02  0.62299993356E-02  0.10310038710E+01  0.10309228376E+01 0.  0.
     999903    2    3    3    0    0  0.97684901621E-01  0.86980292661E-01  0.27822819947E-01  0.14108358731E+00  0.44972858287E-01 0.  0.
         14    1    1    2    0    0 -0.79347083772E-02  0.80816039730E-02 -0.62299993356E-02  0.12926129023E-01  0.00000000000E+00 0. -1.
     999901    1    3    3    0    0 -0.89750193244E-01 -0.95061896634E-01 -0.21592820611E-01  0.88992028367E+00  0.88000000000E+00 0. -1.
        -11    1    4    4    0    0  0.13023054625E-01  0.31011941883E-01  0.20355690115E-01  0.39318643570E-01  0.51100000000E-03 0. -1.
         11    1    4    4    0    0  0.84661846995E-01  0.55968350778E-01  0.74671298313E-02  0.10176494374E+00  0.51100000000E-03 0.  1.
</event>
<event>
 8    1  0.2190512E+004  0.1043930E+01  0.7957747E-01            NaN
         13   -1    0    0    0    0  0.00000000000E+00  0.00000000000E+00  0.74505805969E-08  0.10566000000E+00  0.10566000000E+00 0.  1.
     999900   -1    0    0    0    0 -0.00000000000E+00 -0.00000000000E+00 -0.74505805969E-08  0.93827000000E+00  0.93827000000E+00 0. -1.
     999902    2    1    2    0    0 -0.11164121110E-01  0.44514826097E-02 -0.77004848489E-02  0.10296558708E+01  0.10295569248E+01 0.  0.
     999903    2    3    3    0    0  0.55294416210E-01  0.57742263415E-01  0.10382990754E+00  0.13853541153E+00  0.44941841309E-01 0.  0.
         14    1    1    2    0    0  0.11164121110E-01 -0.44514826097E-02  0.77004848489E-02  0.14274129202E-01  0.00000000000E+00 0.  1.
     999901    1    3    3    0    0 -0.66458537319E-01 -0.53290780805E-01 -0.11153039239E+00  0.89112045927E+00  0.88000000000E+00 0. -1.
        -11    1    4    4    0    0  0.49125367265E-01  0.35871913228E-01  0.97536074853E-01  0.11495061064E+00  0.51100000000E-03 0.  1.
         11    1    4    4    0    0  0.61690489452E-02  0.21870350187E-01  0.62938326834E-02  0.23584800890E-01  0.51100000000E-03 0. -1.
</event>
<event>
 8    1  0.2190512E+004  0.1043930E+01  0.7957747E-01            NaN
         13   -1    0    0    0    0  0.00000000000E+00  0.00000000000E+00  0.74505805969E-08  0.10566000000E+00  0.10566000000E+00 0.  1.
     999900   -1    0    0    0    0 -0.00000000000E+00 -0.00000000000E+00 -0.74505805969E-08  0.93827000000E+00  0.93827000000E+00 0.  1.
     999902    2    1    2    0    0 -0.31848915932E-02 -0.96635794596E-02 -0.10779335111E-01  0.10291069650E+01  0.10290002055E+01 0.  0.
     999903    2    3    3    0    0 -0.19973819057E-01 -0.12532756533E-01 -0.13114699557E+00  0.14074978795E+00  0.45331500378E-01 0.  0.
         14    1    1    2    0    0  0.31848915932E-02  0.96635794596E-02  0.10779335111E-01  0.14823035043E-01  0.00000000000E+00 0. -1.
     999901    1    3    3    0    0  0.16788927464E-01  0.28691770737E-02  0.12036766046E+00  0.88835717701E+00  0.88000000000E+00 0. -1.
        -11    1    4    4    0    0 -0.21113527402E-01 -0.39237107734E-02 -0.20279171166E-01  0.29541199193E-01  0.51100000000E-03 0. -1.
         11    1    4    4    0    0  0.11397083447E-02 -0.86090457600E-02 -0.11086782440E+00  0.11120858875E+00  0.51100000000E-03 0.  1.
</event>
<event>
 8    1  0.2190512E+004  0.1043930E+01  0.7957747E-01            NaN
         13   -1    0    0    0    0  0.00000000000E+00  0.00000000000E+00  0.74505805969E-08  0.10566000000E+00  0.10566000000E+00 0.  1.
     999900   -1    0    0    0    0 -0.00000000000E+00 -0.00000000000E+00 -0.74505805969E-08  0.93827000000E+00  0.93827000000E+00 0.  1.
     999902    2    1    2    0    0  0.53868148932E-02  0.11451718806E-01  0.51819052712E-02  0.10302547749E+01  0.10301640110E+01 0.  0.
     999903    2    3    3    0    0  0.36783673546E-01  0.17966994679E-02  0.13000229772E+00  0.14083973543E+00  0.39736216406E-01 0.  0.
         14    1    1    2    0    0 -0.53868148932E-02 -0.11451718806E-01 -0.51819052712E-02  0.13675225064E-01  0.00000000000E+00 0.  1.
     999901    1    3    3    0    0 -0.31396858653E-01  0.96550193385E-02 -0.12482039245E+00  0.88941503951E+00  0.88000000000E+00 0.  1.
        -11    1    4    4    0    0  0.40161161206E-01  0.12796014655E-01  0.10933891068E+00  0.11718325550E+00  0.51100000000E-03 0. -1.
         11    1    4    4    0    0 -0.33774876604E-02 -0.10999315187E-01  0.20663387040E-01  0.23656479925E-01  0.51100000000E-03 0.  1.
</event>
<event>
 8    1  0.2190512E+004  0.1043930E+01  0.7957747E-01            NaN
         13   -1    0    0    0    0  0.00000000000E+00  0.00000000000E+00  0.74505805969E-08  0.10566000000E+00  0.10566000000E+00 0. -1.
     999900   -1    0    0    0    0 -0.00000000000E+00 -0.00000000000E+00 -0.74505805969E-08  0.93827000000E+00  0.93827000000E+00 0.  1.
     999902    2    1    2    0    0 -0.43174426628E-04 -0.37942880610E-02 -0.13821353193E-01  0.10295972302E+01  0.10294974639E+01 0.  0.
     999903    2    3    3    0    0 -0.69294529861E-01  0.48610175179E-01 -0.10335429166E+00  0.14080134527E+00  0.44477277651E-01 0.  0.
         14    1    1    2    0    0  0.43174426628E-04  0.37942880610E-02  0.13821353193E-01  0.14332769796E-01  0.00000000000E+00 0. -1.
     999901    1    3    3    0    0  0.69251355435E-01 -0.52404463240E-01  0.89532938466E-01  0.88879588493E+00  0.88000000000E+00 0. -1.
        -11    1    4    4    0    0 -0.36299330489E-01  0.15296659275E-02 -0.53677444248E-01  0.64819059032E-01  0.51100000000E-03 0. -1.
         11    1    4    4    0    0 -0.32995199372E-01  0.47080509251E-01 -0.49676847411E-01  0.75982286243E-01  0.51100000000E-03 0.  1.
</event>
<event>
 8    1  0.2190512E+004  0.1043930E+01  0.7957747E-01            NaN
         13   -1    0    0    0    0  0.00000000000E+00  0.00000000000E+00  0.74505805969E-08  0.10566000000E+00  0.10566000000E+00 0. -1.
     999900   -1    0    0    0    0 -0.00000000000E+00 -0.00000000000E+00 -0.74505805969E-08  0.93827000000E+00  0.93827000000E+00 0.  1.
     999902    2    1    2    0    0 -0.34369814386E-02  0.54508964807E-02  0.10839281207E-01  0.10313198798E+01  0.10312427839E+01 0.  0.
     999903    2    3    3    0    0 -0.52278147558E-01  0.12145203776E+00  0.25935188718E-01  0.14223630067E+00  0.45551388871E-01 0.  0.
         14    1    1    2    0    0  0.34369814386E-02 -0.54508964807E-02 -0.10839281207E-01  0.12610120180E-01  0.00000000000E+00 0.  1.
     999901    1    3    3    0    0  0.48841166119E-01 -0.11600114128E+00 -0.15095907511E-01  0.88908357915E+00  0.88000000000E+00 0. -1.
        -11    1    4    4    0    0 -0.20985199286E-01  0.85926513265E-01  0.32915576706E-01  0.94379238087E-01  0.51100000000E-03 0.  1.
         11    1    4    4    0    0 -0.31292948272E-01  0.35525524492E-01 -0.69803879881E-02  0.47857062587E-01  0.51100000000E-03 0. -1.
</event>
<event>
 8    1  0.2190512E+004  0.1043930E+01  0.7957747E-01            NaN
         13   -1    0    0    0    0  0.00000000000E+00  0.00000000000E+00  0.74505805969E-08  0.10566000000E+00  0.10566000000E+00 0. -1.
     999900   -1    0    0    0    0 -0.00000000000E+00 -0.00000000000E+00 -0.74505805969E-08  0.93827000000E+00  0.93827000000E+00 0.  1.
     999902    2    1    2    0    0 -0.12666083054E-02  0.11499697708E-01  0.43689389912E-02  0.10315633120E+01  0.10314891816E+01 0.  0.
     999903    2    3    3    0    0  0.31199381728E-01 -0.26997286948E-01  0.12771627320E+00  0.14153487247E+00  0.44926815600E-01 0.  0.
         14    1    1    2    0    0  0.12666083054E-02 -0.11499697708E-01 -0.43689389912E-02  0.12366687992E-01  0.00000000000E+00 0.  1.
     999901    1    3    3    0    0 -0.32465990034E-01  0.38496984656E-01 -0.12334733421E+00  0.89002843954E+00  0.88000000000E+00 0.  1.
        -11    1    4    4    0    0  0.34772674995E-01 -0.10948165898E-02  0.70035629724E-01  0.78202225682E-01  0.51100000000E-03 0. -1.
         11    1    4    4    0    0 -0.35732932668E-02 -0.25902470359E-01  0.57680643480E-01  0.63332646784E-01  0.51100000000E-03 0.  1.
</event>
<event>
 8    1  0.2190512E+004  0.1043930E+01  0.7957747E-01            NaN
         13   -1    0    0    0    0  0.00000000000E+00  0.00000000000E+00  0.74505805969E-08  0.10566000000E+00  0.10566000000E+00 0. -1.
     999900   -1    0    0    0    0 -0.00000000000E+00 -0.00000000000E+00 -0.74505805969E-08  0.93827000000E+00  0.93827000000E+00 0. -1.
     999902    2    1    2    0    0 -0.87925790906E-02  0.76712683751E-02  0.65775795357E-02  0.10305351369E+01  0.10304480802E+01 0.  0.
     999903    2    3    3    0    0  0.11803862094E+00 -0.48820217360E-01 -0.31299262670E-01  0.13884455353E+00  0.44515576422E-01 0.  0.
         14    1    1    2    0    0  0.87925790906E-02 -0.76712683751E-02 -0.65775795357E-02  0.13394863123E-01  0.00000000000E+00 0.  1.
     999901    1    3    3    0    0 -0.12683120003E+00  0.56491485735E-01  0.37876842205E-01  0.89169058335E+00  0.88000000000E+00 0.  1.
        -11    1    4    4    0    0  0.10515143732E+00 -0.35184669928E-01 -0.11363414998E-01  0.11146377927E+00  0.51100000000E-03 0.  1.
         11    1    4    4    0    0  0.12887183620E-01 -0.13635547432E-01 -0.19935847672E-01  0.27380774255E-01  0.51100000000E-03 0. -1.
</event>
<event>
 8    1  0.2190512E+004  0.1043930E+01  0.7957747E-01            NaN
         13   -1    0    0    0    0  0.00000000000E+00  0.00000000000E+00  0.74505805969E-08  0.10566000000E+00  0.10566000000E+00 0.  1.
     999900   -1    0    0    0    0 -0.00000000000E+00 -0.00000000000E+00 -0.74505805969E-08  0.93827000000E+00  0.93827000000E+00 0. -1.
     999902    2    1    2    0    0 -0.92290033466E-02 -0.60987968886E-02  0.83903376241E-02  0.10300459231E+01  0.10299523465E+01 0.  0.
     999903    2    3    3    0    0 -0.77469812184E-01  0.68260213698E-01  0.84733134914E-01  0.14099345380E+00  0.45148879149E-01 0.  0.
         14    1    1    2    0    0  0.92290033466E-02  0.60987968886E-02 -0.83903376241E-02  0.13884076912E-01  0.00000000000E+00 0. -1.
     999901    1    3    3    0    0  0.68240808838E-01 -0.74359010587E-01 -0.76342797290E-01  0.88905246929E+00  0.88000000000E+00 0.  1.
        -11    1    4    4    0    0 -0.29610864205E-01  0.11445879212E-01  0.49419625859E-01  0.58739866964E-01  0.51100000000E-03 0.  1.
         11    1    4    4    0    0 -0.47858947980E-01  0.56814334486E-01  0.35313509055E-01  0.82253586837E-01  0.51100000000E-03 0. -1.
</event>
<event>
 8    1  0.2190512E+004  0.1043930E+01  0.7957747E-01            NaN
         13   -1    0    0    0    0  0.00000000000E+00  0.00000000000E+00  0.74505805969E-08  0.10566000000E+00  0.10566000000E+00 0.  1.
     999900   -1    0    0    0    0 -0.00000000000E+00 -0.00000000000E+00 -0.74505805969E-08  0.93827000000E+00  0.93827000000E+00 0. -1.
     999902    2    1    2    0    0 -0.95629397137E-02 -0.76447710779E-02  0.11353367112E-01  0.10272329558E+01  0.10270972467E+01 0.  0.
     999903    2    3    3    0    0  0.12612524233E-01  0.95271468420E-01 -0.84669004325E-01  0.13577134732E+00  0.45047641406E-01 0.  0.
         14    1    1    2    0    0  0.95629397137E-02  0.76447710779E-02 -0.11353367112E-01  0.16697044217E-01  0.00000000000E+00 0. -1.
     999901    1    3    3    0    0 -0.22175463947E-01 -0.10291623950E+00  0.96022371437E-01  0.89146160847E+00  0.88000000000E+00 0. -1.
        -11    1    4    4    0    0  0.28012381244E-01  0.49892207212E-01 -0.55234171961E-01  0.79529873108E-01  0.51100000000E-03 0. -1.
         11    1    4    4    0    0 -0.15399857011E-01  0.45379261209E-01 -0.29434832363E-01  0.56241474208E-01  0.51100000000E-03 0.  1.
</event>
<event>
 8    1  0.2190512E+004  0.1043930E+01  0.7957747E-01            NaN
         13   -1    0    0    0    0  0.00000000000E+00  0.00000000000E+00  0.74505805969E-08  0.10566000000E+00  0.10566000000E+00 0.  1.
     999900   -1    0    0    0    0 -0.00000000000E+00 -0.00000000000E+00 -0.74505805969E-08  0.93827000000E+00  0.93827000000E+00 0.  1.
     999902    2    1    2    0    0 -0.13329249311E-01 -0.73287159488E-02 -0.18786018320E-03  0.10287176939E+01  0.10286052107E+01 0.  0.
     999903    2    3    3    0    0 -0.38842851339E-01  0.94956358477E-01  0.81667846474E-01  0.13865391135E+00  0.45053222635E-01 0.  0.
         14    1    1    2    0    0  0.13329249311E-01  0.73287159488E-02  0.18786018320E-03  0.15212306074E-01  0.00000000000E+00 0.  1.
     999901    1    3    3    0    0  0.25513602028E-01 -0.10228507443E+00 -0.81855706658E-01  0.89006378257E+00  0.88000000000E+00 0.  1.
        -11    1    4    4    0    0  0.24574715920E-02  0.36456973798E-01  0.45710248395E-01  0.58522115772E-01  0.51100000000E-03 0.  1.
         11    1    4    4    0    0 -0.41300322931E-01  0.58499384679E-01  0.35957598079E-01  0.80131795579E-01  0.51100000000E-03 0. -1.
</event>
<event>
 8    1  0.2190512E+004  0.1043930E+01  0.7957747E-01            NaN
         13   -1    0    0    0    0  0.00000000000E+00  0.00000000000E+00  0.74505805969E-08  0.10566000000E+00  0.10566000000E+00 0. -1.
     999900   -1    0    0    0    0 -0.00000000000E+00 -0.00000000000E+00 -0.74505805969E-08  0.93827000000E+00  0.93827000000E+00 0. -1.
     999902    2    1    2    0    0 -0.13288888489E-01 -0.22149921705E-02 -0.32497755136E-02  0.10300713641E+01  0.10299781325E+01 0.  0.
     999903    2    3    3    0    0 -0.95153222875E-01  0.45305590858E-01  0.81380716970E-01  0.14095815687E+00  0.46256334764E-01 0.  0.
         14    1    1    2    0    0  0.13288888489E-01  0.22149921705E-02  0.32497755136E-02  0.13858635881E-01  0.00000000000E+00 0. -1.
     999901    1    3    3    0    0  0.81864334386E-01 -0.47520583029E-01 -0.84630492483E-01  0.88911320725E+00  0.88000000000E+00 0.  1.
        -11    1    4    4    0    0 -0.50764251752E-01 -0.12192115803E-02  0.35197750476E-01  0.61787041461E-01  0.51100000000E-03 0. -1.
         11    1    4    4    0    0 -0.44388971122E-01  0.46524802439E-01  0.46182966494E-01  0.79171115404E-01  0.51100000000E-03 0.  1.
</event>
<event>
 8    1  0.2190512E+004  0.1043930E+01  0.7957747E-01            NaN
         13   -1    0    0    0    0  0.00000000000E+00  0.00000000000E+00  0.74505805969E-08  0.10566000000E+00  0.10566000000E+00 0. -1.
     999900   -1    0    0    0    0 -0.00000000000E+00 -0.00000000000E+00 -0.74505805969E-08  0.93827000000E+00  0.93827000000E+00 0. -1.
     999902    2    1    2    0    0 -0.44427174089E-02  0.10764780625E-01 -0.77614634815E-02  0.10299350525E+01  0.10298399652E+01 0.  0.
     999903    2    3    3    0    0 -0.77604333653E-01 -0.99813930989E-01  0.29195284132E-01  0.13923528561E+00  0.50486104260E-01 0.  0.
         14    1    1    2    0    0  0.44427174089E-02 -0.10764780625E-01  0.77614634815E-02  0.13994947490E-01  0.00000000000E+00 0. -1.
     999901    1    3    3    0    0  0.73161616244E-01  0.11057871161E+00 -0.36956747613E-01  0.89069976690E+00  0.88000000000E+00 0.  1.
        -11    1    4    4    0    0 -0.18295973763E-01 -0.50642162134E-01  0.31071254487E-01  0.62169568262E-01  0.51100000000E-03 0.  1.
         11    1    4    4    0    0 -0.59308359890E-01 -0.49171768855E-01 -0.18759703554E-02  0.77065717352E-01  0.51100000000E-03 0. -1.
</event>
<event>
 8    1  0.2190512E+004  0.1043930E+01  0.7957747E-01            NaN
         13   -1    0    0    0    0  0.00000000000E+00  0.00000000000E+00  0.74505805969E-08  0.10566000000E+00  0.10566000000E+00 0.  1.
     999900   -1    0    0    0    0 -0.00000000000E+00 -0.00000000000E+00 -0.74505805969E-08  0.93827000000E+00  0.93827000000E+00 0.  1.
     999902    2    1    2    0    0 -0.85724474853E-02 -0.90891576987E-02 -0.63766313392E-02  0.10299028452E+01  0.10298073167E+01 0.  0.
     999903    2    3    3    0    0 -0.51672569493E-02 -0.10987986739E+00 -0.76671149035E-01  0.14135814647E+00  0.44759073700E-01 0.  0.
         14    1    1    2    0    0  0.85724474853E-02  0.90891576987E-02  0.63766313392E-02  0.14027154765E-01  0.00000000000E+00 0. -1.
     999901    1    3    3    0    0 -0.34051905360E-02  0.10079070969E+00  0.70294517696E-01  0.88854469876E+00  0.88000000000E+00 0. -1.
        -11    1    4    4    0    0  0.17674508964E-01 -0.24760056266E-01 -0.23327588633E-01  0.38339094484E-01  0.51100000000E-03 0.  1.
         11    1    4    4    0    0 -0.22841765913E-01 -0.85119811120E-01 -0.53343560403E-01  0.10301905199E+00  0.51100000000E-03 0. -1.
</event>
<event>
 8    1  0.2190512E+004  0.1043930E+01  0.7957747E-01            NaN
         13   -1    0    0    0    0  0.00000000000E+00  0.00000000000E+00  0.74505805969E-08  0.10566000000E+00  0.10566000000E+00 0. -1.
     999900   -1    0    0    0    0 -0.00000000000E+00 -0.00000000000E+00 -0.74505805969E-08  0.93827000000E+00  0.93827000000E+00 0.  1.
     999902    2    1    2    0    0  0.12333408939E-01 -0.14670365833E-02  0.33297368512E-02  0.10310710607E+01  0.10309908728E+01 0.  0.
     999903    2    3    3    0    0  0.11552667606E-02  0.13168824585E+00  0.25348253797E-01  0.14071152928E+00  0.42591921358E-01 0.  0.
         14    1    1    2    0    0 -0.12333408939E-01  0.14670365833E-02 -0.33297368512E-02  0.12858939299E-01  0.00000000000E+00 0. -1.
     999901    1    3    3    0    0  0.11178142179E-01 -0.13315528244E+00 -0.22018516946E-01  0.89035953142E+00  0.88000000000E+00 0. -1.
        -11    1    4    4    0    0 -0.10829664467E-01  0.37152765587E-01 -0.84275951810E-02  0.39609280538E-01  0.51100000000E-03 0.  1.
         11    1    4    4    0    0  0.11984931228E-01  0.94535480265E-01  0.33775848978E-01  0.10110224874E+00  0.51100000000E-03 0. -1.
</event>
<event>
 8    1  0.2190512E+004  0.1043930E+01  0.7957747E-01            NaN
         13   -1    0    0    0    0  0.00000000000E+00  0.00000000000E+00  0.74505805969E-08  0.10566000000E+00  0.10566000000E+00 0.  1.
     999900   -1    0    0    0    0 -0.00000000000E+00 -0.00000000000E+00 -0.74505805969E-08  0.93827000000E+00  0.93827000000E+00 0.  1.
     999902    2    1    2    0    0 -0.60701287946E-02 -0.41596559955E-02  0.12800353086E-01  0.10291652365E+01  0.10290593208E+01 0.  0.
     999903    2    3    3    0    0  0.12994054972E+00 -0.14615104246E-01 -0.65977626542E-02  0.13844389515E+00  0.45000376652E-01 0.  0.
         14    1    1    2    0    0  0.60701287946E-02  0.41596559955E-02 -0.12800353086E-01  0.14764763483E-01  0.00000000000E+00 0. -1.
     999901    1    3    3    0    0 -0.13601067852E+00  0.10455448251E-01  0.19398115740E-01  0.89072134136E+00  0.88000000000E+00 0. -1.
        -11    1    4    4    0    0  0.87150866901E-01 -0.26356424641E-01 -0.17576872918E-01  0.92731560453E-01  0.51100000000E-03 0.  1.
         11    1    4    4    0    0  0.42789682820E-01  0.11741320394E-01  0.10979110264E-01  0.45712334699E-01  0.51100000000E-03 0. -1.
</event>
<event>
 8    1  0.2190512E+004  0.1043930E+01  0.7957747E-01            NaN
         13   -1    0    0    0    0  0.00000000000E+00  0.00000000000E+00  0.74505805969E-08  0.10566000000E+00  0.10566000000E+00 0. -1.
     999900   -1    0    0    0    0 -0.00000000000E+00 -0.00000000000E+00 -0.74505805969E-08  0.93827000000E+00  0.93827000000E+00 0. -1.
     999902    2    1    2    0    0  0.60091822084E-02  0.12582427059E-01 -0.11202878006E-02  0.10299413336E+01  0.10298463322E+01 0.  0.
     999903    2    3    3    0    0 -0.97642229853E-01 -0.44466561649E-01  0.76614940023E-01  0.13862715336E+00  0.42852753228E-01 0.  0.
         14    1    1    2    0    0 -0.60091822084E-02 -0.12582427059E-01  0.11202878006E-02  0.13988666351E-01  0.00000000000E+00 0.  1.
     999901    1    3    3    0    0  0.10365141206E+00  0.57048988708E-01 -0.77735227824E-01  0.89131418029E+00  0.88000000000E+00 0. -1.
        -11    1    4    4    0    0 -0.13204527707E-01 -0.24817344522E-01  0.25666798515E-01  0.38069749252E-01  0.51100000000E-03 0.  1.
         11    1    4    4    0    0 -0.84437702146E-01 -0.19649217127E-01  0.50948141509E-01  0.10055740411E+00  0.51100000000E-03 0. -1.
</event>
<event>
 8    1  0.2190512E+004  0.1043930E+01  0.7957747E-01            NaN
         13   -1    0    0    0    0  0.00000000000E+00  0.00000000000E+00  0.74505805969E-08  0.10566000000E+00  0.10566000000E+00 0.  1.
     999900   -1    0    0    0    0 -0.00000000000E+00 -0.00000000000E+00 -0.74505805969E-08  0.93827000000E+00  0.93827000000E+00 0. -1.
     999902    2    1    2    0    0  0.10139111906E-01  0.49440236883E-02  0.95441253844E-02  0.10291538270E+01  0.10290477463E+01 0.  0.
     999903    2    3    3    0    0 -0.11193863449E+00 -0.32207154921E-01 -0.57374426787E-01  0.13743566584E+00  0.45046405809E-01 0.  0.
         14    1    1    2    0    0 -0.10139111906E-01 -0.49440236883E-02 -0.95441253844E-02  0.14776173044E-01  0.00000000000E+00 0. -1.
     999901    1    3    3    0    0  0.12207774640E+00  0.37151178609E-01  0.66918552171E-01  0.89171816111E+00  0.88000000000E+00 0.  1.
        -11    1    4    4    0    0 -0.22415585891E-01 -0.42632463278E-02 -0.33714050459E-01  0.40712799946E-01  0.51100000000E-03 0.  1.
         11    1    4    4    0    0 -0.89523048600E-01 -0.27943908593E-01 -0.23660376328E-01  0.96722865896E-01  0.51100000000E-03 0. -1.
</event>
<event>
 8    1  0.2190512E+004  0.1043930E+01  0.7957747E-01            NaN
         13   -1    0    0    0    0  0.00000000000E+00  0.00000000000E+00  0.74505805969E-08  0.10566000000E+00  0.10566000000E+00 0.  1.
     999900   -1    0    0    0    0 -0.00000000000E+00 -0.00000000000E+00 -0.74505805969E-08  0.93827000000E+00  0.93827000000E+00 0. -1.
     999902    2    1    2    0    0 -0.28114683554E-02 -0.10815962775E-01 -0.77112637445E-02  0.10303523348E+01  0.10302628697E+01 0.  0.
     999903    2    3    3    0    0  0.11089283133E+00 -0.25915605193E-01 -0.69489486743E-01  0.14076073418E+00  0.44899408532E-01 0.  0.
         14    1    1    2    0    0  0.28114683554E-02  0.10815962775E-01  0.77112637445E-02  0.13577665249E-01  0.00000000000E+00 0.  1.
     999901    1    3    3    0    0 -0.11370429969E+00  0.15099642418E-01  0.61778222999E-01  0.88959160057E+00  0.88000000000E+00 0.  1.
        -11    1    4    4    0    0  0.44978268742E-01 -0.30075902872E-02 -0.43361472201E-02  0.45289662751E-01  0.51100000000E-03 0. -1.
         11    1    4    4    0    0  0.65914562588E-01 -0.22908014905E-01 -0.65153339523E-01  0.95471071430E-01  0.51100000000E-03 0.  1.
</event>
<event>
 8    1  0.2190512E+004  0.1043930E+01  0.7957747E-01            NaN
         13   -1    0    0    0    0  0.00000000000E+00  0.00000000000E+00  0.74505805969E-08  0.10566000000E+00  0.10566000000E+00 0. -1.
     999900   -1    0    0    0    0 -0.00000000000E+00 -0.00000000000E+00 -0.74505805969E-08  0.93827000000E+00  0.93827000000E+00 0.  1.
     999902    2    1    2    0    0  0.56097191007E-02 -0.13301941539E-01 -0.27540456892E-02  0.10292332192E+01  0.10291282837E+01 0.  0.
     999903    2    3    3    0    0  0.31978180357E-01  0.22011409260E-02 -0.12837827757E+00  0.13978558787E+00  0.45073044976E-01 0.  0.
         14    1    1    2    0    0 -0.56097191007E-02  0.13301941539E-01  0.27540456892E-02  0.14696780761E-01  0.00000000000E+00 0. -1.
     999901    1    3    3    0    0 -0.26368461257E-01 -0.15503082465E-01  0.12562423188E+00  0.88944763137E+00  0.88000000000E+00 0. -1.
        -11    1    4    4    0    0  0.23040561328E-01  0.26534310872E-02 -0.18850534956E-01  0.29891670277E-01  0.51100000000E-03 0. -1.
         11    1    4    4    0    0  0.89376190297E-02 -0.45229016125E-03 -0.10952774261E+00  0.10989391759E+00  0.51100000000E-03 0.  1.
</event>
<event>
 8    1  0.2190512E+004  0.1043930E+01  0.7957747E-01            NaN
         13   -1    0    0    0    0  0.00000000000E+00  0.00000000000E+00  0.74505805969E-08  0.10566000000E+00  0.10566000000E+00 0.  1.
     999900   -1    0    0    0    0 -0.00000000000E+00 -0.00000000000E+00 -0.74505805969E-08  0.93827000000E+00  0.93827000000E+00 0. -1.
     999902    2    1    2    0    0 -0.66647128477E-02 -0.43000639408E-02  0.10705924353E-01  0.10306061206E+01  0.10305199901E+01 0.  0.
     999903    2    3    3    0    0 -0.10179301532E+00  0.27578608759E-01 -0.80545341404E-01  0.14021719587E+00  0.45286999964E-01 0.  0.
         14    1    1    2    0    0  0.66647128477E-02  0.43000639408E-02 -0.10705924353E-01  0.13323879446E-01  0.00000000000E+00 0. -1.
     999901    1    3    3    0    0  0.95128302472E-01 -0.31878672700E-01  0.91251265757E-01  0.89038892469E+00  0.88000000000E+00 0. -1.
        -11    1    4    4    0    0 -0.14074214624E-01 -0.63599842115E-02 -0.29253019774E-01  0.33083730191E-01  0.51100000000E-03 0.  1.
         11    1    4    4    0    0 -0.87718800696E-01  0.33938592971E-01 -0.51292321629E-01  0.10713346568E+00  0.51100000000E-03 0. -1.
</event>
<event>
 8    1  0.2190512E+004  0.1043930E+01  0.7957747E-01            NaN
         13   -1    0    0    0    0  0.00000000000E+00  0.00000000000E+00  0.74505805969E-08  0.10566000000E+00  0.10566000000E+00 0. -1.
     999900   -1    0    0    0    0 -0.00000000000E+00 -0.00000000000E+00 -0.74505805969E-08  0.93827000000E+00  0.93827000000E+00 0. -1.
     999902    2    1    2    0    0 -0.58964626230E-02 -0.11629962305E-01 -0.48278360723E-02  0.10300256016E+01  0.10299317490E+01 0.  0.
     999903    2    3    3    0    0  0.10782133303E+00  0.43990770163E-01 -0.61658750088E-01  0.13915234699E+00  0.44731940421E-01 0.  0.
         14    1    1    2    0    0  0.58964626230E-02  0.11629962305E-01  0.48278360723E-02  0.13904398434E-01  0.00000000000E+00 0. -1.
     999901    1    3    3    0    0 -0.11371779566E+00 -0.55620732468E-01  0.56830914015E-01  0.89087325458E+00  0.88000000000E+00 0. -1.
        -11    1    4    4    0    0  0.44329920964E-01 -0.22875681046E-02 -0.11224310951E-01  0.45788875700E-01  0.51100000000E-03 0.  1.
         11    1    4    4    0    0  0.63491412070E-01  0.46278338268E-01 -0.50434439137E-01  0.93363471291E-01  0.51100000000E-03 0. -1.
</event>
<event>
 8    1  0.2190512E+004  0.1043930E+01  0.7957747E-01            NaN
         13   -1    0    0    0    0  0.00000000000E+00  0.00000000000E+00  0.74505805969E-08  0.10566000000E+00  0.10566000000E+00 0.  1.
     999900   -1    0    0    0    0 -0.00000000000E+00 -0.00000000000E+00 -0.74505805969E-08  0.93827000000E+00  0.93827000000E+00 0.  1.
     999902    2    1    2    0    0 -0.12671810695E-01  0.11362862723E-02 -0.58319249406E-02  0.10299343835E+01  0.10298392870E+01 0.  0.
     999903    2    3    3    0    0  0.69717892537E-01  0.60649004017E-01  0.92974793008E-01  0.13859124290E+00  0.44992602132E-01 0.  0.
         14    1    1    2    0    0  0.12671810695E-01 -0.11362862723E-02  0.58319249406E-02  0.13995616503E-01  0.00000000000E+00 0.  1.
     999901    1    3    3    0    0 -0.82389703231E-01 -0.59512717744E-01 -0.98806717949E-01  0.89134314059E+00  0.88000000000E+00 0. -1.
        -11    1    4    4    0    0  0.65973875014E-01  0.33627403298E-01  0.77642567730E-01  0.10729391354E+00  0.51100000000E-03 0.  1.
         11    1    4    4    0    0  0.37440175223E-02  0.27021600719E-01  0.15332225278E-01  0.31297329368E-01  0.51100000000E-03 0. -1.
</event>
<event>
 8    1  0.2190512E+004  0.1043930E+01  0.7957747E-01            NaN
         13   -1    0    0    0    0  0.00000000000E+00  0.00000000000E+00  0.74505805969E-08  0.10566000000E+00  0.10566000000E+00 0.  1.
     999900   -1    0    0    0    0 -0.00000000000E+00 -0.00000000000E+00 -0.74505805969E-08  0.93827000000E+00  0.93827000000E+00 0.  1.
     999902    2    1    2    0    0 -0.49281824690E-02 -0.30001932866E-02  0.13095787483E-01  0.10296195915E+01  0.10295201384E+01 0.  0.
     999903    2    3    3    0    0 -0.63933978999E-01 -0.11662487233E+00  0.13317357814E-01  0.14035455742E+00  0.42815128784E-01 0.  0.
         14    1    1    2    0    0  0.49281824690E-02  0.30001932866E-02 -0.13095787483E-01  0.14310408520E-01  0.00000000000E+00 0. -1.
     999901    1    3    3    0    0  0.59005796530E-01  0.11362467904E+00 -0.22157033086E-03  0.88926503406E+00  0.88000000000E+00 0.  1.
        -11    1    4    4    0    0 -0.49826343872E-01 -0.53946866235E-01 -0.48172416566E-02  0.73596167417E-01  0.51100000000E-03 0. -1.
         11    1    4    4    0    0 -0.14107635126E-01 -0.62678006093E-01  0.18134599471E-01  0.66758390001E-01  0.51100000000E-03 0.  1.
</event>
<event>
 8    1  0.2190512E+004  0.1043930E+01  0.7957747E-01            NaN
         13   -1    0    0    0    0  0.00000000000E+00  0.00000000000E+00  0.74505805969E-08  0.10566000000E+00  0.10566000000E+00 0.  1.
     999900   -1    0    0    0    0 -0.00000000000E+00 -0.00000000000E+00 -0.74505805969E-08  0.93827000000E+00  0.93827000000E+00 0.  1.
     999902    2    1    2    0    0  0.19880979948E-02  0.40933542378E-02 -0.12819456658E-01  0.10303268183E+01  0.10302370145E+01 0.  0.
     999903    2    3    3    0    0 -0.14657873173E-01  0.12605325768E+00  0.39552971631E-01  0.14021773645E+00  0.44635177077E-01 0.  0.
         14    1    1    2    0    0 -0.19880979948E-02 -0.40933542378E-02  0.12819456658E-01  0.13603181671E-01  0.00000000000E+00 0.  1.
     999901    1    3    3    0    0  0.16645971168E-01 -0.12195990344E+00 -0.52372428290E-01  0.89010908188E+00  0.88000000000E+00 0.  1.
        -11    1    4    4    0    0 -0.42299583662E-03  0.89675731372E-01  0.45731216975E-01  0.10066539152E+00  0.51100000000E-03 0.  1.
         11    1    4    4    0    0 -0.14234877336E-01  0.36377526305E-01 -0.61782453438E-02  0.39552344929E-01  0.51100000000E-03 0. -1.
</event>
<event>
 8    1  0.2190512E+004  0.1043930E+01  0.7957747E-01            NaN
         13   -1    0    0    0    0  0.00000000000E+00  0.00000000000E+00  0.74505805969E-08  0.10566000000E+00  0.10566000000E+00 0. -1.
     999900   -1    0    0    0    0 -0.00000000000E+00 -0.00000000000E+00 -0.74505805969E-08  0.93827000000E+00  0.93827000000E+00 0.  1.
     999902    2    1    2    0    0 -0.86104331222E-02 -0.85420246174E-02  0.70958641313E-02  0.10298780595E+01  0.10297821908E+01 0.  0.
     999903    2    3    3    0    0 -0.10095981743E+00  0.23315069542E-01 -0.82425481783E-01  0.13995820100E+00  0.45363650395E-01 0.  0.
         14    1    1    2    0    0  0.86104331222E-02  0.85420246174E-02 -0.70958641313E-02  0.14051940467E-01  0.00000000000E+00 0.  1.
     999901    1    3    3    0    0  0.92349384311E-01 -0.31857094159E-01  0.89521345914E-01  0.88991985853E+00  0.88000000000E+00 0.  1.
        -11    1    4    4    0    0 -0.86796344824E-01  0.13707610766E-02 -0.66621162697E-01  0.10942634464E+00  0.51100000000E-03 0.  1.
         11    1    4    4    0    0 -0.14163472610E-01  0.21944308465E-01 -0.15804319085E-01  0.30531856365E-01  0.51100000000E-03 0. -1.
</event>
<event>
 8    1  0.2190512E+004  0.1043930E+01  0.7957747E-01            NaN
         13   -1    0    0    0    0  0.00000000000E+00  0.00000000000E+00  0.74505805969E-08  0.10566000000E+00  0.10566000000E+00 0. -1.
     999900   -1    0    0    0    0 -0.00000000000E+00 -0.00000000000E+00 -0.74505805969E-08  0.93827000000E+00  0.93827000000E+00 0.  1.
     999902    2    1    2    0    0  0.14289838125E-01 -0.16866169429E-01  0.15643772203E-01  0.10168487380E+01  0.10164880526E+01 0.  0.
     999903    2    3    3    0    0 -0.99001663481E-01 -0.63934844398E-01  0.20187917446E-01  0.12832689031E+00  0.46596620750E-01 0.  0.
         14    1    1    2    0    0 -0.14289838125E-01  0.16866169429E-01 -0.15643772203E-01  0.27081262038E-01  0.00000000000E+00 0. -1.
     999901    1    3    3    0    0  0.11329150161E+00  0.47068674969E-01 -0.45441452429E-02  0.88852184765E+00  0.88000000000E+00 0. -1.
        -11    1    4    4    0    0 -0.25612762168E-01  0.40896194528E-02  0.97599487061E-02  0.27717436622E-01  0.51100000000E-03 0. -1.
         11    1    4    4    0    0 -0.73388901313E-01 -0.68024463851E-01  0.10427968740E-01  0.10060945369E+00  0.51100000000E-03 0.  1.
</event>
<event>
 8    1  0.2190512E+004  0.1043930E+01  0.7957747E-01            NaN
         13   -1    0    0    0    0  0.00000000000E+00  0.00000000000E+00  0.74505805969E-08  0.10566000000E+00  0.10566000000E+00 0. -1.
     999900   -1    0    0    0    0 -0.00000000000E+00 -0.00000000000E+00 -0.74505805969E-08  0.93827000000E+00  0.93827000000E+00 0. -1.
     999902    2    1    2    0    0 -0.52675906222E-02 -0.11170073073E-01  0.82069002039E-02  0.10291019437E+01  0.10289951114E+01 0.  0.
     999903    2    3    3    0    0 -0.28735043206E-01 -0.46822384615E-01 -0.11947121650E+00  0.13886404843E+00  0.44629743047E-01 0.  0.
         14    1    1    2    0    0  0.52675906222E-02  0.11170073073E-01 -0.82069002039E-02  0.14828056325E-01  0.00000000000E+00 0.  1.
     999901    1    3    3    0    0  0.23467452584E-01  0.35652311542E-01  0.12767811670E+00  0.89023789525E+00  0.88000000000E+00 0.  1.
        -11    1    4    4    0    0 -0.23333399416E-01 -0.51110677438E-01 -0.11938673839E+00  0.13194772943E+00  0.51100000000E-03 0. -1.
         11    1    4    4    0    0 -0.54016437909E-02  0.42882928224E-02 -0.84478110668E-04  0.69163190011E-02  0.51100000000E-03 0.  1.
</event>
<event>
 8    1  0.2190512E+004  0.1043930E+01  0.7957747E-01            NaN
         13   -1    0    0    0    0  0.00000000000E+00  0.00000000000E+00  0.74505805969E-08  0.10566000000E+00  0.10566000000E+00 0.  1.
     999900   -1    0    0    0    0 -0.00000000000E+00 -0.00000000000E+00 -0.74505805969E-08  0.93827000000E+00  0.93827000000E+00 0.  1.
     999902    2    1    2    0    0  0.58605628503E-02 -0.50015142871E-02 -0.12161805985E-01  0.10295330952E+01  0.10294324278E+01 0.  0.
     999903    2    3    3    0    0 -0.53092255255E-01 -0.11854306654E+00 -0.22558592543E-01  0.14022144456E+00  0.47769417260E-01 0.  0.
         14    1    1    2    0    0 -0.58605628503E-02  0.50015142871E-02  0.12161805985E-01  0.14396904768E-01  0.00000000000E+00 0.  1.
     999901    1    3    3    0    0  0.58952818105E-01  0.11354155225E+00  0.10396786558E-01  0.88931165067E+00  0.88000000000E+00 0. -1.
        -11    1    4    4    0    0 -0.27302672235E-01 -0.27848595328E-01 -0.24227659143E-01  0.45915365200E-01  0.51100000000E-03 0. -1.
         11    1    4    4    0    0 -0.25789583020E-01 -0.90694471208E-01  0.16690666000E-02  0.94306079360E-01  0.51100000000E-03 0.  1.
</event>
<event>
 8    1  0.2190512E+004  0.1043930E+01  0.7957747E-01            NaN
         13   -1    0    0    0    0  0.00000000000E+00  0.00000000000E+00  0.74505805969E-08  0.10566000000E+00  0.10566000000E+00 0. -1.
     999900   -1    0    0    0    0 -0.00000000000E+00 -0.00000000000E+00 -0.74505805969E-08  0.93827000000E+00  0.93827000000E+00 0.  1.
     999902    2    1    2    0    0 -0.19380447915E-02  0.12098512493E-01  0.41092249229E-02  0.10310065426E+01  0.10309255429E+01 0.  0.
     999903    2    3    3    0    0  0.12872997917E+00  0.33233606719E-01  0.14203505482E-01  0.14104995983E+00  0.44916271516E-01 0.  0.
         14    1    1    2    0    0  0.19380447915E-02 -0.12098512493E-01 -0.41092249229E-02  0.12923457418E-01  0.00000000000E+00 0.  1.
     999901    1    3    3    0    0 -0.13066802396E+00 -0.21135094226E-01 -0.10094280559E-01  0.88995658276E+00  0.88000000000E+00 0. -1.
        -11    1    4    4    0    0  0.85933398468E-01  0.10030521835E-02  0.16111038643E-01  0.87437873791E-01  0.51100000000E-03 0.  1.
         11    1    4    4    0    0  0.42796580699E-01  0.32230554536E-01 -0.19075331609E-02  0.53612086034E-01  0.51100000000E-03 0. -1.
</event>
<event>
 8    1  0.2190512E+004  0.1043930E+01  0.7957747E-01            NaN
         13   -1    0    0    0    0  0.00000000000E+00  0.00000000000E+00  0.74505805969E-08  0.10566000000E+00  0.10566000000E+00 0.  1.
     999900   -1    0    0    0    0 -0.00000000000E+00 -0.00000000000E+00 -0.74505805969E-08  0.93827000000E+00  0.93827000000E+00 0. -1.
     999902    2    1    2    0    0 -0.55279780832E-02 -0.27084984070E-02 -0.12327842539E-01  0.10301506601E+01  0.10300584995E+01 0.  0.
     999903    2    3    3    0    0 -0.57652357646E-01 -0.11981361007E+00 -0.34878339294E-02  0.14082017946E+00  0.46249999533E-01 0.  0.
         14    1    1    2    0    0  0.55279780832E-02  0.27084984070E-02  0.12327842539E-01  0.13779339860E-01  0.00000000000E+00 0.  1.
     999901    1    3    3    0    0  0.52124379562E-01  0.11710511166E+00 -0.88400086099E-02  0.88933048068E+00  0.88000000000E+00 0. -1.
        -11    1    4    4    0    0 -0.58396472447E-03 -0.45079009974E-01  0.89564468806E-02  0.45966696823E-01  0.51100000000E-03 0.  1.
         11    1    4    4    0    0 -0.57068392921E-01 -0.74734600093E-01 -0.12444280810E-01  0.94853482633E-01  0.51100000000E-03 0. -1.
</event>
<event>
 8    1  0.2579924E+004  0.1043930E+01  0.7957747E-01            NaN
         13   -1    0    0    0    0  0.00000000000E+00  0.00000000000E+00  0.74505805969E-08  0.10566000000E+00  0.10566000000E+00 0.  1.
     999900   -1    0    0    0    0 -0.00000000000E+00 -0.00000000000E+00 -0.74505805969E-08  0.93827000000E+00  0.93827000000E+00 0. -1.
     999902    2    1    2    0    0  0.83944343972E-02 -0.18837104102E-01  0.11422087898E-01  0.10203552866E+01  0.10200829103E+01 0.  0.
     999903    2    3    3    0    0 -0.89223523174E-02 -0.30156311591E-01  0.12130064146E+00  0.13328071697E+00  0.45397052724E-01 0.  0.
         14    1    1    2    0    0 -0.83944343972E-02  0.18837104102E-01 -0.11422087898E-01  0.23574713397E-01  0.00000000000E+00 0. -1.
     999901    1    3    3    0    0  0.17316786715E-01  0.11319207489E-01 -0.10987855357E+00  0.88707456964E+00  0.88000000000E+00 0. -1.
        -11    1    4    4    0    0 -0.21947099320E-01  0.22878943740E-03  0.54166762276E-01  0.58446785794E-01  0.51100000000E-03 0. -1.
         11    1    4    4    0    0  0.13024747003E-01 -0.30385101028E-01  0.67133879188E-01  0.74833931173E-01  0.51100000000E-03 0.  1.
</event>
<event>
 8    1  0.2190512E+004  0.1043930E+01  0.7957747E-01            NaN
         13   -1    0    0    0    0  0.00000000000E+00  0.00000000000E+00  0.74505805969E-08  0.10566000000E+00  0.10566000000E+00 0.  1.
     999900   -1    0    0    0    0 -0.00000000000E+00 -0.00000000000E+00 -0.74505805969E-08  0.93827000000E+00  0.93827000000E+00 0.  1.
     999902    2    1    2    0    0  0.95809567189E-02  0.11401966709E-01 -0.34544510390E-02  0.10286416774E+01  0.10285280588E+01 0.  0.
     999903    2    3    3    0    0  0.49507183754E-02 -0.94534939994E-01 -0.89954221873E-01  0.13806530353E+00  0.44820771012E-01 0.  0.
         14    1    1    2    0    0 -0.95809567189E-02 -0.11401966709E-01  0.34544510390E-02  0.15288322618E-01  0.00000000000E+00 0. -1.
     999901    1    3    3    0    0  0.46302383435E-02  0.10593690670E+00  0.86499770834E-01  0.89057637385E+00  0.88000000000E+00 0. -1.
        -11    1    4    4    0    0  0.62685927419E-03 -0.25294945156E-02  0.50719259517E-02  0.57251068910E-02  0.51100000000E-03 0. -1.
         11    1    4    4    0    0  0.43238591012E-02 -0.92005445478E-01 -0.95026147825E-01  0.13234019664E+00  0.51100000000E-03 0.  1.
</event>
<event>
 8    1  0.2190512E+004  0.1043930E+01  0.7957747E-01            NaN
         13   -1    0    0    0    0  0.00000000000E+00  0.00000000000E+00  0.74505805969E-08  0.10566000000E+00  0.10566000000E+00 0. -1.
     999900   -1    0    0    0    0 -0.00000000000E+00 -0.00000000000E+00 -0.74505805969E-08  0.93827000000E+00  0.93827000000E+00 0.  1.
     999902    2    1    2    0    0 -0.12978042844E-01  0.93129062234E-02 -0.42177518427E-02  0.10274088242E+01  0.10272759818E+01 0.  0.
     999903    2    3    3    0    0  0.24792017713E-01  0.10609871532E+00  0.71610301424E-01  0.13805851980E+00  0.45393150200E-01 0.  0.
         14    1    1    2    0    0  0.12978042844E-01 -0.93129062234E-02  0.42177518427E-02  0.16521175775E-01  0.00000000000E+00 0. -1.
     999901    1    3    3    0    0 -0.37770060557E-01 -0.96785809095E-01 -0.75828053267E-01  0.88935030442E+00  0.88000000000E+00 0.  1.
        -11    1    4    4    0    0  0.27941610796E-01  0.67263818677E-01  0.24338126424E-01  0.76796877773E-01  0.51100000000E-03 0.  1.
         11    1    4    4    0    0 -0.31495930824E-02  0.38834896641E-01  0.47272175000E-01  0.61261642028E-01  0.51100000000E-03 0. -1.
</event>
<event>
 8    1  0.2190512E+004  0.1043930E+01  0.7957747E-01            NaN
         13   -1    0    0    0    0  0.00000000000E+00  0.00000000000E+00  0.74505805969E-08  0.10566000000E+00  0.10566000000E+00 0. -1.
     999900   -1    0    0    0    0 -0.00000000000E+00 -0.00000000000E+00 -0.74505805969E-08  0.93827000000E+00  0.93827000000E+00 0. -1.
     999902    2    1    2    0    0 -0.70801596944E-02 -0.33986943829E-02 -0.11280976696E-01  0.10301844473E+01  0.10300927411E+01 0.  0.
     999903    2    3    3    0    0 -0.13908512086E-01  0.88107477320E-01  0.96483354084E-01  0.13887464880E+00  0.44952821877E-01 0.  0.
         14    1    1    2    0    0  0.70801596944E-02  0.33986943829E-02  0.11280976696E-01  0.13745552736E-01  0.00000000000E+00 0. -1.
     999901    1    3    3    0    0  0.68283523913E-02 -0.91506171703E-01 -0.10776433078E+00  0.89130979847E+00  0.88000000000E+00 0. -1.
        -11    1    4    4    0    0 -0.13313465866E-01  0.25456958632E-01  0.68914476089E-02  0.29547559753E-01  0.51100000000E-03 0.  1.
         11    1    4    4    0    0 -0.59504621938E-03  0.62650518688E-01  0.89591906475E-01  0.10932708904E+00  0.51100000000E-03 0. -1.
</event>
<event>
 8    1  0.2190512E+004  0.1043930E+01  0.7957747E-01            NaN
         13   -1    0    0    0    0  0.00000000000E+00  0.00000000000E+00  0.74505805969E-08  0.10566000000E+00  0.10566000000E+00 0.  1.
     999900   -1    0    0    0    0 -0.00000000000E+00 -0.00000000000E+00 -0.74505805969E-08  0.93827000000E+00  0.93827000000E+00 0. -1.
     999902    2    1    2    0    0  0.91115180280E-02  0.89045106193E-02 -0.59861794846E-02  0.10298536221E+01  0.10297574173E+01 0.  0.
     999903    2    3    3    0    0 -0.23281182296E-01  0.13043514172E+00  0.14985194794E-01  0.14066366496E+00  0.44792532098E-01 0.  0.
         14    1    1    2    0    0 -0.91115180280E-02 -0.89045106193E-02  0.59861794846E-02  0.14076377906E-01  0.00000000000E+00 0. -1.
     999901    1    3    3    0    0  0.32392700324E-01 -0.12153063110E+00 -0.20971374278E-01  0.88918995713E+00  0.88000000000E+00 0. -1.
        -11    1    4    4    0    0  0.74512202351E-02  0.60552049259E-01  0.19866387171E-01  0.64163898047E-01  0.51100000000E-03 0. -1.
         11    1    4    4    0    0 -0.30732402531E-01  0.69883092462E-01 -0.48811923774E-02  0.76499766911E-01  0.51100000000E-03 0.  1.
</event>
<event>
 8    1  0.2190512E+004  0.1043930E+01  0.7957747E-01            NaN
         13   -1    0    0    0    0  0.00000000000E+00  0.00000000000E+00  0.74505805969E-08  0.10566000000E+00  0.10566000000E+00 0.  1.
     999900   -1    0    0    0    0 -0.00000000000E+00 -0.00000000000E+00 -0.74505805969E-08  0.93827000000E+00  0.93827000000E+00 0. -1.
     999902    2    1    2    0    0 -0.95743139512E-02 -0.16037627770E-02 -0.10151919685E-01  0.10298836120E+01  0.10297878195E+01 0.  0.
     999903    2    3    3    0    0  0.10627162932E+00  0.35950419479E-01  0.66605945149E-01  0.13818726851E+00  0.45533255864E-01 0.  0.
         14    1    1    2    0    0  0.95743139512E-02  0.16037627770E-02  0.10151919685E-01  0.14046388005E-01  0.00000000000E+00 0.  1.
     999901    1    3    3    0    0 -0.11584594327E+00 -0.37554182256E-01 -0.76757864834E-01  0.89169634349E+00  0.88000000000E+00 0. -1.
        -11    1    4    4    0    0  0.84498251869E-01  0.19894050362E-01  0.28335536635E-01  0.91317531538E-01  0.51100000000E-03 0. -1.
         11    1    4    4    0    0  0.21773377449E-01  0.16056369117E-01  0.38270408514E-01  0.46869736969E-01  0.51100000000E-03 0.  1.
</event>
<event>
 8    1  0.2190512E+004  0.1043930E+01  0.7957747E-01            NaN
         13   -1    0    0    0    0  0.00000000000E+00  0.00000000000E+00  0.74505805969E-08  0.10566000000E+00  0.10566000000E+00 0. -1.
     999900   -1    0    0    0    0 -0.00000000000E+00 -0.00000000000E+00 -0.74505805969E-08  0.93827000000E+00  0.93827000000E+00 0.  1.
     999902    2    1    2    0    0  0.11866908242E-01 -0.41458018073E-02  0.77963199519E-02  0.10291383203E+01  0.10290320153E+01 0.  0.
     999903    2    3    3    0    0  0.69299797248E-01 -0.11213600165E+00  0.20353935471E-01  0.14059000213E+00  0.44433334825E-01 0.  0.
         14    1    1    2    0    0 -0.11866908242E-01  0.41458018073E-02 -0.77963199519E-02  0.14791679710E-01  0.00000000000E+00 0.  1.
     999901    1    3    3    0    0 -0.57432889005E-01  0.10799019985E+00 -0.12557615520E-01  0.88854831816E+00  0.88000000000E+00 0. -1.
        -11    1    4    4    0    0  0.71751949023E-01 -0.82859902043E-01  0.13699649093E-01  0.11046287639E+00  0.51100000000E-03 0.  1.
         11    1    4    4    0    0 -0.24521517749E-02 -0.29276099609E-01  0.66542863790E-02  0.30127125732E-01  0.51100000000E-03 0. -1.
</event>
<event>
 8    1  0.2190512E+004  0.1043930E+01  0.7957747E-01            NaN
         13   -1    0    0    0    0  0.00000000000E+00  0.00000000000E+00  0.74505805969E-08  0.10566000000E+00  0.10566000000E+00 0.  1.
     999900   -1    0    0    0    0 -0.00000000000E+00 -0.00000000000E+00 -0.74505805969E-08  0.93827000000E+00  0.93827000000E+00 0. -1.
     999902    2    1    2    0    0  0.13179052318E-01  0.41802049524E-02 -0.28260286075E-02  0.10298180203E+01  0.10297213249E+01 0.  0.
     999903    2    3    3    0    0 -0.57696358511E-01  0.53688353423E-01  0.10497865441E+00  0.13903396661E+00  0.45810663706E-01 0.  0.
         14    1    1    2    0    0 -0.13179052318E-01 -0.41802049524E-02  0.28260286075E-02  0.14111979703E-01  0.00000000000E+00 0.  1.
     999901    1    3    3    0    0  0.70875410829E-01 -0.49508148471E-01 -0.10780468302E+00  0.89078405369E+00  0.88000000000E+00 0. -1.
        -11    1    4    4    0    0  0.57296819130E-02  0.16849092146E-01  0.21059797816E-01  0.27577116710E-01  0.51100000000E-03 0. -1.
         11    1    4    4    0    0 -0.63426040424E-01  0.36839261277E-01  0.83918856599E-01  0.11145684990E+00  0.51100000000E-03 0.  1.
</event>
<event>
 7    1  0.2190512E+004  0.1043930E+01  0.7957747E-01            NaN
         13   -1    0    0    0    0  0.00000000000E+00  0.00000000000E+00  0.74505805969E-08  0.10566000000E+00  0.10566000000E+00 0.  1.
     999900   -1    0    0    0    0 -0.00000000000E+00 -0.00000000000E+00 -0.74505805969E-08  0.93827000000E+00  0.93827000000E+00 0. -1.
     999903    2    1    2    0    0  0.30832151884E-01  0.44202687144E-01 -0.65111204050E-01  0.95549499026E-01  0.44561628457E-01 0.  0.
         14    1    1    2    0    0  0.56666707235E-01 -0.91332432280E-02 -0.16140456124E-01  0.59624207875E-01  0.00000000000E+00 0.  1.
     999901    1    1    2    0    0 -0.87498859119E-01 -0.35069443916E-01  0.81251660174E-01  0.88875629310E+00  0.88000000000E+00 0.  1.
        -11    1    3    3    0    0  0.14152578163E-01  0.50205414629E-01 -0.47329638923E-01  0.70436034587E-01  0.51100000000E-03 0.  1.
         11    1    3    3    0    0  0.16679573720E-01 -0.60027274855E-02 -0.17781565127E-01  0.25113464439E-01  0.51100000000E-03 0. -1.
</event>
<event>
 8    1  0.2190512E+004  0.1043930E+01  0.7957747E-01            NaN
         13   -1    0    0    0    0  0.00000000000E+00  0.00000000000E+00  0.74505805969E-08  0.10566000000E+00  0.10566000000E+00 0.  1.
     999900   -1    0    0    0    0 -0.00000000000E+00 -0.00000000000E+00 -0.74505805969E-08  0.93827000000E+00  0.93827000000E+00 0. -1.
     999902    2    1    2    0    0 -0.88305578172E-02 -0.27766540334E-02  0.10617519977E-01  0.10298438263E+01  0.10297474867E+01 0.  0.
     999903    2    3    3    0    0 -0.92425887137E-01 -0.82583729595E-01 -0.48129687223E-01  0.14034476349E+00  0.44917355659E-01 0.  0.
         14    1    1    2    0    0  0.88305578172E-02  0.27766540334E-02 -0.10617519977E-01  0.14086173698E-01  0.00000000000E+00 0.  1.
     999901    1    3    3    0    0  0.83595329320E-01  0.79807075562E-01  0.58747207200E-01  0.88949906281E+00  0.88000000000E+00 0. -1.
        -11    1    4    4    0    0 -0.52680149308E-01 -0.62909854385E-01 -0.49758220915E-01  0.95963480447E-01  0.51100000000E-03 0.  1.
         11    1    4    4    0    0 -0.39745737830E-01 -0.19673875210E-01  0.16285336917E-02  0.44381283041E-01  0.51100000000E-03 0. -1.
</event>
<event>
 7    1  0.2190512E+004  0.1043930E+01  0.7957747E-01            NaN
         13   -1    0    0    0    0  0.00000000000E+00  0.00000000000E+00  0.74505805969E-08  0.10566000000E+00  0.10566000000E+00 0.  1.
     999900   -1    0    0    0    0 -0.00000000000E+00 -0.00000000000E+00 -0.74505805969E-08  0.93827000000E+00  0.93827000000E+00 0. -1.
     999903    2    1    2    0    0 -0.74407696680E-02  0.25971705332E-01 -0.34479889373E-01  0.62104441137E-01  0.44025041814E-01 0.  0.
         14    1    1    2    0    0 -0.24237210438E-02 -0.97121199223E-01  0.17629738998E-01  0.98738085151E-01  0.00000000000E+00 0.  1.
     999901    1    1    2    0    0  0.98644907118E-02  0.71149493891E-01  0.16850150375E-01  0.88308747371E+00  0.88000000000E+00 0.  1.
        -11    1    3    3    0    0 -0.21570533068E-01  0.24087121458E-01 -0.35229028650E-01  0.47820737109E-01  0.51100000000E-03 0.  1.
         11    1    3    3    0    0  0.14129763400E-01  0.18845838740E-02  0.74913927747E-03  0.14283704029E-01  0.51100000000E-03 0. -1.
</event>
<event>
 8    1  0.2190512E+004  0.1043930E+01  0.7957747E-01            NaN
         13   -1    0    0    0    0  0.00000000000E+00  0.00000000000E+00  0.74505805969E-08  0.10566000000E+00  0.10566000000E+00 0.  1.
     999900   -1    0    0    0    0 -0.00000000000E+00 -0.00000000000E+00 -0.74505805969E-08  0.93827000000E+00  0.93827000000E+00 0. -1.
     999902    2    1    2    0    0 -0.24527888237E-02  0.14166514936E-01 -0.21130994178E-02  0.10293982586E+01  0.10292956831E+01 0.  0.
     999903    2    3    3    0    0  0.10607176349E+00  0.36641216897E-01  0.69564291191E-01  0.13955538541E+00  0.45196429085E-01 0.  0.
         14    1    1    2    0    0  0.24527888237E-02 -0.14166514936E-01  0.21130994178E-02  0.14531741382E-01  0.00000000000E+00 0.  1.
     999901    1    3    3    0    0 -0.10852455231E+00 -0.22474701962E-01 -0.71677390609E-01  0.88984287321E+00  0.88000000000E+00 0.  1.
        -11    1    4    4    0    0  0.31683565079E-01  0.14719923868E-01 -0.64107998332E-03  0.34945622893E-01  0.51100000000E-03 0. -1.
         11    1    4    4    0    0  0.74388198408E-01  0.21921293029E-01  0.70205371174E-01  0.10460976251E+00  0.51100000000E-03 0.  1.
</event>
<event>
 8    1  0.2190512E+004  0.1043930E+01  0.7957747E-01            NaN
         13   -1    0    0    0    0  0.00000000000E+00  0.00000000000E+00  0.74505805969E-08  0.10566000000E+00  0.10566000000E+00 0. -1.
     999900   -1    0    0    0    0 -0.00000000000E+00 -0.00000000000E+00 -0.74505805969E-08  0.93827000000E+00  0.93827000000E+00 0. -1.
     999902    2    1    2    0    0  0.12481121378E-01 -0.14948135471E-02 -0.65633047627E-02  0.10297493855E+01  0.10296517407E+01 0.  0.
     999903    2    3    3    0    0  0.13107787487E+00 -0.21970675378E-01  0.14794571386E-01  0.14130095720E+00  0.45639470932E-01 0.  0.
         14    1    1    2    0    0 -0.12481121378E-01  0.14948135471E-02  0.65633047627E-02  0.14180614507E-01  0.00000000000E+00 0.  1.
     999901    1    3    3    0    0 -0.11859675349E+00  0.20475861831E-01 -0.21357876149E-01  0.88844842829E+00  0.88000000000E+00 0.  1.
        -11    1    4    4    0    0  0.11948794163E+00 -0.89170596615E-02  0.22994693408E-01  0.12200778334E+00  0.51100000000E-03 0.  1.
         11    1    4    4    0    0  0.11589933239E-01 -0.13053615716E-01 -0.82001220215E-02  0.19293173868E-01  0.51100000000E-03 0. -1.
</event>
<event>
 8    1  0.2190512E+004  0.1043930E+01  0.7957747E-01            NaN
         13   -1    0    0    0    0  0.00000000000E+00  0.00000000000E+00  0.74505805969E-08  0.10566000000E+00  0.10566000000E+00 0.  1.
     999900   -1    0    0    0    0 -0.00000000000E+00 -0.00000000000E+00 -0.74505805969E-08  0.93827000000E+00  0.93827000000E+00 0. -1.
     999902    2    1    2    0    0  0.23400744054E-02 -0.44697729011E-02 -0.12551164919E-01  0.10304027476E+01  0.10303139500E+01 0.  0.
     999903    2    3    3    0    0 -0.60844965924E-01  0.11346093126E+00  0.28318060110E-01  0.13935264017E+00  0.45185760964E-01 0.  0.
         14    1    1    2    0    0 -0.23400744054E-02  0.44697729011E-02  0.12551164919E-01  0.13527252450E-01  0.00000000000E+00 0.  1.
     999901    1    3    3    0    0  0.63185040330E-01 -0.11793070416E+00 -0.40869225029E-01  0.89105010738E+00  0.88000000000E+00 0.  1.
        -11    1    4    4    0    0 -0.46684043570E-01  0.99229708681E-01  0.39263223210E-01  0.11648088610E+00  0.51100000000E-03 0.  1.
         11    1    4    4    0    0 -0.14160922355E-01  0.14231222578E-01 -0.10945163100E-01  0.22871754071E-01  0.51100000000E-03 0. -1.
</event>
<event>
 8    1  0.2190512E+004  0.1043930E+01  0.7957747E-01            NaN
         13   -1    0    0    0    0  0.00000000000E+00  0.00000000000E+00  0.74505805969E-08  0.10566000000E+00  0.10566000000E+00 0. -1.
     999900   -1    0    0    0    0 -0.00000000000E+00 -0.00000000000E+00 -0.74505805969E-08  0.93827000000E+00  0.93827000000E+00 0. -1.
     999902    2    1    2    0    0 -0.13798014083E-01  0.83843767104E-03  0.39303046546E-02  0.10295586582E+01  0.10294583504E+01 0.  0.
     999903    2    3    3    0    0  0.48645594879E-01 -0.81505603588E-01 -0.90573458380E-01  0.13848587405E+00  0.44330899279E-01 0.  0.
         14    1    1    2    0    0  0.13798014083E-01 -0.83843767104E-03 -0.39303046546E-02  0.14371341797E-01  0.00000000000E+00 0.  1.
     999901    1    3    3    0    0 -0.62443608962E-01  0.82344041259E-01  0.94503763035E-01  0.89107278415E+00  0.88000000000E+00 0. -1.
        -11    1    4    4    0    0  0.44425860362E-01 -0.56318738257E-01 -0.40759596538E-01  0.82504928208E-01  0.51100000000E-03 0.  1.
         11    1    4    4    0    0  0.42197345172E-02 -0.25186865331E-01 -0.49813861843E-01  0.55980945841E-01  0.51100000000E-03 0. -1.
</event>
<event>
 8    1  0.2190512E+004  0.1043930E+01  0.7957747E-01            NaN
         13   -1    0    0    0    0  0.00000000000E+00  0.00000000000E+00  0.74505805969E-08  0.10566000000E+00  0.10566000000E+00 0. -1.
     999900   -1    0    0    0    0 -0.00000000000E+00 -0.00000000000E+00 -0.74505805969E-08  0.93827000000E+00  0.93827000000E+00 0. -1.
     999902    2    1    2    0    0 -0.60165183067E-03  0.16550190610E-02 -0.13550491478E-01  0.10302655610E+01  0.10301749411E+01 0.  0.
     999903    2    3    3    0    0  0.11757403084E+00 -0.67465213741E-01 -0.85764959981E-02  0.13966585343E+00  0.32523630428E-01 0.  0.
         14    1    1    2    0    0  0.60165183067E-03 -0.16550190610E-02  0.13550491478E-01  0.13664438968E-01  0.00000000000E+00 0. -1.
     999901    1    3    3    0    0 -0.11817568267E+00  0.69120232802E-01 -0.49739954801E-02  0.89059970761E+00  0.88000000000E+00 0. -1.
        -11    1    4    4    0    0  0.31846083902E-01 -0.23317703137E-01 -0.16772938860E-01  0.42889170410E-01  0.51100000000E-03 0.  1.
         11    1    4    4    0    0  0.85727946938E-01 -0.44147510604E-01  0.81964428620E-02  0.96776683015E-01  0.51100000000E-03 0. -1.
</event>
<event>
 8    1  0.2190512E+004  0.1043930E+01  0.7957747E-01            NaN
         13   -1    0    0    0    0  0.00000000000E+00  0.00000000000E+00  0.74505805969E-08  0.10566000000E+00  0.10566000000E+00 0.  1.
     999900   -1    0    0    0    0 -0.00000000000E+00 -0.00000000000E+00 -0.74505805969E-08  0.93827000000E+00  0.93827000000E+00 0. -1.
     999902    2    1    2    0    0 -0.60590985986E-02 -0.87666610180E-02  0.90252671031E-02  0.10299649555E+01  0.10298702768E+01 0.  0.
     999903    2    3    3    0    0  0.36402774607E-01 -0.19659144552E-01  0.12696612253E+00  0.14101518064E+00  0.45312701711E-01 0.  0.
         14    1    1    2    0    0  0.60590985986E-02  0.87666610180E-02 -0.90252671031E-02  0.13965044487E-01  0.00000000000E+00 0. -1.
     999901    1    3    3    0    0 -0.42461873206E-01  0.10892483534E-01 -0.11794085543E+00  0.88894977488E+00  0.88000000000E+00 0. -1.
        -11    1    4    4    0    0  0.34548901920E-01  0.48302172884E-02  0.56647538786E-01  0.66529409996E-01  0.51100000000E-03 0.  1.
         11    1    4    4    0    0  0.18538726867E-02 -0.24489361840E-01  0.70318583744E-01  0.74485770641E-01  0.51100000000E-03 0. -1.
</event>
<event>
 8    1  0.2190512E+004  0.1043930E+01  0.7957747E-01            NaN
         13   -1    0    0    0    0  0.00000000000E+00  0.00000000000E+00  0.74505805969E-08  0.10566000000E+00  0.10566000000E+00 0. -1.
     999900   -1    0    0    0    0 -0.00000000000E+00 -0.00000000000E+00 -0.74505805969E-08  0.93827000000E+00  0.93827000000E+00 0.  1.
     999902    2    1    2    0    0 -0.13047325552E-01 -0.81840661489E-02  0.70966296471E-02  0.10269719991E+01  0.10268319790E+01 0.  0.
     999903    2    3    3    0    0  0.55151946724E-01 -0.45418295949E-02 -0.11600556547E+00  0.13578259325E+00  0.43786481546E-01 0.  0.
         14    1    1    2    0    0  0.13047325552E-01  0.81840661489E-02 -0.70966296471E-02  0.16958000918E-01  0.00000000000E+00 0.  1.
     999901    1    3    3    0    0 -0.68199272275E-01 -0.36422365540E-02  0.12310219512E+00  0.89118940583E+00  0.88000000000E+00 0.  1.
        -11    1    4    4    0    0  0.92446773369E-02 -0.50810225813E-02 -0.69978201840E-01  0.70770690991E-01  0.51100000000E-03 0. -1.
         11    1    4    4    0    0  0.45907269387E-01  0.53919298639E-03 -0.46027363629E-01  0.65011902259E-01  0.51100000000E-03 0.  1.
</event>
<event>
 8    1  0.2190512E+004  0.1043930E+01  0.7957747E-01            NaN
         13   -1    0    0    0    0  0.00000000000E+00  0.00000000000E+00  0.74505805969E-08  0.10566000000E+00  0.10566000000E+00 0. -1.
     999900   -1    0    0    0    0 -0.00000000000E+00 -0.00000000000E+00 -0.74505805969E-08  0.93827000000E+00  0.93827000000E+00 0. -1.
     999902    2    1    2    0    0  0.44975728702E-02 -0.10611902847E-01 -0.63731410121E-02  0.10307596708E+01  0.10306755268E+01 0.  0.
     999903    2    3    3    0    0  0.61876659569E-01  0.47727009594E-01 -0.10853007120E+00  0.14107892660E+00  0.44921027716E-01 0.  0.
         14    1    1    2    0    0 -0.44975728702E-02  0.10611902847E-01  0.63731410121E-02  0.13170329158E-01  0.00000000000E+00 0.  1.
     999901    1    3    3    0    0 -0.57379086699E-01 -0.58338912441E-01  0.10215693019E+00  0.88968074425E+00  0.88000000000E+00 0.  1.
        -11    1    4    4    0    0  0.35529036768E-01  0.37245268087E-01 -0.34942628224E-01  0.62215519260E-01  0.51100000000E-03 0. -1.
         11    1    4    4    0    0  0.26347622801E-01  0.10481741507E-01 -0.73587442975E-01  0.78863407337E-01  0.51100000000E-03 0.  1.
</event>
<event>
 8    1  0.2190512E+004  0.1043930E+01  0.7957747E-01            NaN
         13   -1    0    0    0    0  0.00000000000E+00  0.00000000000E+00  0.74505805969E-08  0.10566000000E+00  0.10566000000E+00 0.  1.
     999900   -1    0    0    0    0 -0.00000000000E+00 -0.00000000000E+00 -0.74505805969E-08  0.93827000000E+00  0.93827000000E+00 0.  1.
     999902    2    1    2    0    0  0.12546421766E-02  0.81836880535E-02 -0.11479220335E-01  0.10297765772E+01  0.10296793091E+01 0.  0.
     999903    2    3    3    0    0 -0.81292044896E-01 -0.52521761223E-01 -0.91820207420E-01  0.14019589997E+00  0.43093014650E-01 0.  0.
         14    1    1    2    0    0 -0.12546421766E-02 -0.81836880535E-02  0.11479220335E-01  0.14153422789E-01  0.00000000000E+00 0. -1.
     999901    1    3    3    0    0  0.82546687073E-01  0.60705449277E-01  0.80340987085E-01  0.88958067724E+00  0.88000000000E+00 0. -1.
        -11    1    4    4    0    0 -0.47034545596E-01 -0.45109900710E-01 -0.36478801231E-01  0.74686783850E-01  0.51100000000E-03 0.  1.
         11    1    4    4    0    0 -0.34257499300E-01 -0.74118605127E-02 -0.55341406190E-01  0.65509116118E-01  0.51100000000E-03 0. -1.
</event>
<event>
 8    1  0.2190512E+004  0.1043930E+01  0.7957747E-01            NaN
         13   -1    0    0    0    0  0.00000000000E+00  0.00000000000E+00  0.74505805969E-08  0.10566000000E+00  0.10566000000E+00 0.  1.
     999900   -1    0    0    0    0 -0.00000000000E+00 -0.00000000000E+00 -0.74505805969E-08  0.93827000000E+00  0.93827000000E+00 0.  1.
     999902    2    1    2    0    0  0.93353129996E-02 -0.92980042324E-02 -0.26504582098E-02  0.10304902872E+01  0.10304026427E+01 0.  0.
     999903    2    3    3    0    0 -0.49412515845E-01  0.12068456615E+00  0.17139739576E-01  0.13878493904E+00  0.44284618150E-01 0.  0.
         14    1    1    2    0    0 -0.93353129996E-02  0.92980042324E-02  0.26504582098E-02  0.13439712803E-01  0.00000000000E+00 0.  1.
     999901    1    3    3    0    0  0.58747828845E-01 -0.12998257038E+00 -0.19790197786E-01  0.89170534815E+00  0.88000000000E+00 0.  1.
        -11    1    4    4    0    0 -0.46227706488E-01  0.82317889117E-01  0.28539684178E-01  0.98630676819E-01  0.51100000000E-03 0. -1.
         11    1    4    4    0    0 -0.31848093566E-02  0.38366677030E-01 -0.11399944601E-01  0.40154262225E-01  0.51100000000E-03 0.  1.
</event>
<event>
 8    1  0.2190512E+004  0.1043930E+01  0.7957747E-01            NaN
         13   -1    0    0    0    0  0.00000000000E+00  0.00000000000E+00  0.74505805969E-08  0.10566000000E+00  0.10566000000E+00 0. -1.
     999900   -1    0    0    0    0 -0.00000000000E+00 -0.00000000000E+00 -0.74505805969E-08  0.93827000000E+00  0.93827000000E+00 0.  1.
     999902    2    1    2    0    0  0.20348063541E-02 -0.14026966405E-01  0.18343047138E-02  0.10296380128E+01  0.10295388174E+01 0.  0.
     999903    2    3    3    0    0  0.12684212419E+00 -0.33736866550E-01  0.23408026289E-01  0.14035134802E+00  0.43857320514E-01 0.  0.
         14    1    1    2    0    0 -0.20348063541E-02  0.14026966405E-01 -0.18343047138E-02  0.14291987168E-01  0.00000000000E+00 0.  1.
     999901    1    3    3    0    0 -0.12480731784E+00  0.19709900146E-01 -0.21573721575E-01  0.88928666481E+00  0.88000000000E+00 0. -1.
        -11    1    4    4    0    0  0.56951050343E-01 -0.25435162138E-01 -0.87193224765E-02  0.62981404506E-01  0.51100000000E-03 0.  1.
         11    1    4    4    0    0  0.69891073848E-01 -0.83017044124E-02  0.32127348765E-01  0.77369943515E-01  0.51100000000E-03 0. -1.
</event>
<event>
 8    1  0.2190512E+004  0.1043930E+01  0.7957747E-01            NaN
         13   -1    0    0    0    0  0.00000000000E+00  0.00000000000E+00  0.74505805969E-08  0.10566000000E+00  0.10566000000E+00 0. -1.
     999900   -1    0    0    0    0 -0.00000000000E+00 -0.00000000000E+00 -0.74505805969E-08  0.93827000000E+00  0.93827000000E+00 0.  1.
     999902    2    1    2    0    0  0.24497546855E-02 -0.11422750358E-01  0.56986626252E-02  0.10309317201E+01  0.10308497739E+01 0.  0.
     999903    2    3    3    0    0 -0.89249460671E-01  0.40020055584E-01  0.90317735135E-01  0.14064216285E+00  0.45341521938E-01 0.  0.
         14    1    1    2    0    0 -0.24497546855E-02  0.11422750358E-01 -0.56986626252E-02  0.12998279866E-01  0.00000000000E+00 0.  1.
     999901    1    3    3    0    0  0.91699215356E-01 -0.51442805942E-01 -0.84619072510E-01  0.89028955729E+00  0.88000000000E+00 0.  1.
        -11    1    4    4    0    0 -0.84774442069E-01  0.32706803908E-01  0.59413073788E-01  0.10856618031E+00  0.51100000000E-03 0. -1.
         11    1    4    4    0    0 -0.44750186021E-02  0.73132516760E-02  0.30904661347E-01  0.32075982535E-01  0.51100000000E-03 0.  1.
</event>
<event>
 8    1  0.2190512E+004  0.1043930E+01  0.7957747E-01            NaN
         13   -1    0    0    0    0  0.00000000000E+00  0.00000000000E+00  0.74505805969E-08  0.10566000000E+00  0.10566000000E+00 0.  1.
     999900   -1    0    0    0    0 -0.00000000000E+00 -0.00000000000E+00 -0.74505805969E-08  0.93827000000E+00  0.93827000000E+00 0. -1.
     999902    2    1    2    0    0  0.43408986459E-02  0.92615581293E-02 -0.92564457589E-02  0.10301350137E+01  0.10300426422E+01 0.  0.
     999903    2    3    3    0    0 -0.56657119571E-02 -0.94446164041E-01 -0.93089328854E-01  0.14003199929E+00  0.44622410131E-01 0.  0.
         14    1    1    2    0    0 -0.43408986459E-02 -0.92615581293E-02  0.92564457589E-02  0.13794986340E-01  0.00000000000E+00 0.  1.
     999901    1    3    3    0    0  0.10006610603E-01  0.10370772217E+00  0.83832883095E-01  0.89010301436E+00  0.88000000000E+00 0.  1.
        -11    1    4    4    0    0  0.52244273087E-02 -0.22395768704E-01 -0.50834471577E-01  0.55796681963E-01  0.51100000000E-03 0.  1.
         11    1    4    4    0    0 -0.10890139266E-01 -0.72050395338E-01 -0.42254857277E-01  0.84235317332E-01  0.51100000000E-03 0. -1.
</event>
<event>
 8    1  0.2190512E+004  0.1043930E+01  0.7957747E-01            NaN
         13   -1    0    0    0    0  0.00000000000E+00  0.00000000000E+00  0.74505805969E-08  0.10566000000E+00  0.10566000000E+00 0. -1.
     999900   -1    0    0    0    0 -0.00000000000E+00 -0.00000000000E+00 -0.74505805969E-08  0.93827000000E+00  0.93827000000E+00 0.  1.
     999902    2    1    2    0    0  0.97772284187E-02  0.48523401987E-02  0.13970142597E-02  0.10329258622E+01  0.10328672449E+01 0.  0.
     999903    2    3    3    0    0  0.61130457128E-02 -0.55952872925E-01 -0.12236933523E+00  0.14217965282E+00  0.45526982687E-01 0.  0.
         14    1    1    2    0    0 -0.97772284187E-02 -0.48523401987E-02 -0.13970142597E-02  0.11004137849E-01  0.00000000000E+00 0.  1.
     999901    1    3    3    0    0  0.36641827059E-02  0.60805213124E-01  0.12376634949E+00  0.89074620934E+00  0.88000000000E+00 0. -1.
        -11    1    4    4    0    0  0.23713818764E-02 -0.45858535721E-01 -0.45807872280E-01  0.64863325803E-01  0.51100000000E-03 0.  1.
         11    1    4    4    0    0  0.37416638364E-02 -0.10094337204E-01 -0.76561462955E-01  0.77316327012E-01  0.51100000000E-03 0. -1.
</event>
<event>
 8    1  0.2190512E+004  0.1043930E+01  0.7957747E-01            NaN
         13   -1    0    0    0    0  0.00000000000E+00  0.00000000000E+00  0.74505805969E-08  0.10566000000E+00  0.10566000000E+00 0. -1.
     999900   -1    0    0    0    0 -0.00000000000E+00 -0.00000000000E+00 -0.74505805969E-08  0.93827000000E+00  0.93827000000E+00 0.  1.
     999902    2    1    2    0    0 -0.13743358226E-01 -0.26236302680E-02  0.24300797887E-02  0.10297289923E+01  0.10296310645E+01 0.  0.
     999903    2    3    3    0    0  0.73700892068E-01  0.10815959051E+00  0.24409945590E-02  0.13848299989E+00  0.45180352971E-01 0.  0.
         14    1    1    2    0    0  0.13743358226E-01  0.26236302680E-02 -0.24300797887E-02  0.14201007671E-01  0.00000000000E+00 0.  1.
     999901    1    3    3    0    0 -0.87444250294E-01 -0.11078322077E+00 -0.10914770345E-04  0.89124599244E+00  0.88000000000E+00 0.  1.
        -11    1    4    4    0    0  0.25563046435E-01  0.35097329669E-01 -0.20515256664E-01  0.48025293023E-01  0.51100000000E-03 0. -1.
         11    1    4    4    0    0  0.48137845634E-01  0.73062260837E-01  0.22956251223E-01  0.90457706870E-01  0.51100000000E-03 0.  1.
</event>
<event>
 8    1  0.2190512E+004  0.1043930E+01  0.7957747E-01            NaN
         13   -1    0    0    0    0  0.00000000000E+00  0.00000000000E+00  0.74505805969E-08  0.10566000000E+00  0.10566000000E+00 0. -1.
     999900   -1    0    0    0    0 -0.00000000000E+00 -0.00000000000E+00 -0.74505805969E-08  0.93827000000E+00  0.93827000000E+00 0. -1.
     999902    2    1    2    0    0 -0.40326563271E-02 -0.13732481717E-01  0.21469200619E-02  0.10294575214E+01  0.10293557868E+01 0.  0.
     999903    2    3    3    0    0  0.41119990521E-01 -0.52544864730E-01 -0.11404958683E+00  0.13982456854E+00  0.45736039211E-01 0.  0.
         14    1    1    2    0    0  0.40326563271E-02  0.13732481717E-01 -0.21469200619E-02  0.14472478603E-01  0.00000000000E+00 0. -1.
     999901    1    3    3    0    0 -0.45152646848E-01  0.38812383013E-01  0.11619650689E+00  0.88963295286E+00  0.88000000000E+00 0. -1.
        -11    1    4    4    0    0  0.48159538183E-01 -0.29353845596E-01 -0.84653182203E-01  0.10172222838E+00  0.51100000000E-03 0.  1.
         11    1    4    4    0    0 -0.70395476617E-02 -0.23191019134E-01 -0.29396404623E-01  0.38102340158E-01  0.51100000000E-03 0. -1.
</event>
<event>
 8    1  0.2190512E+004  0.1043930E+01  0.7957747E-01            NaN
         13   -1    0    0    0    0  0.00000000000E+00  0.00000000000E+00  0.74505805969E-08  0.10566000000E+00  0.10566000000E+00 0.  1.
     999900   -1    0    0    0    0 -0.00000000000E+00 -0.00000000000E+00 -0.74505805969E-08  0.93827000000E+00  0.93827000000E+00 0.  1.
     999902    2    1    2    0    0 -0.74887322455E-02  0.11497311390E-01 -0.81729751159E-03  0.10301845551E+01  0.10300928504E+01 0.  0.
     999903    2    3    3    0    0 -0.73695281170E-01  0.91328842586E-01 -0.67222644193E-01  0.14160926255E+00  0.41980321488E-01 0.  0.
         14    1    1    2    0    0  0.74887322455E-02 -0.11497311390E-01  0.81729751159E-03  0.13745444885E-01  0.00000000000E+00 0.  1.
     999901    1    3    3    0    0  0.66206548924E-01 -0.79831531196E-01  0.66405346682E-01  0.88857529257E+00  0.88000000000E+00 0. -1.
        -11    1    4    4    0    0 -0.62263128500E-01  0.79687063470E-01 -0.37801423784E-01  0.10796265102E+00  0.51100000000E-03 0.  1.
         11    1    4    4    0    0 -0.11432152669E-01  0.11641779116E-01 -0.29421220409E-01  0.33646611524E-01  0.51100000000E-03 0. -1.
</event>
<event>
 8    1  0.2190512E+004  0.1043930E+01  0.7957747E-01            NaN
         13   -1    0    0    0    0  0.00000000000E+00  0.00000000000E+00  0.74505805969E-08  0.10566000000E+00  0.10566000000E+00 0. -1.
     999900   -1    0    0    0    0 -0.00000000000E+00 -0.00000000000E+00 -0.74505805969E-08  0.93827000000E+00  0.93827000000E+00 0. -1.
     999902    2    1    2    0    0 -0.23977733354E-03 -0.12291620425E-01 -0.52934233925E-02  0.10305448681E+01  0.10304579387E+01 0.  0.
     999903    2    3    3    0    0 -0.86687472443E-01  0.42679310824E-01 -0.91356468550E-01  0.14043147359E+00  0.45152552286E-01 0.  0.
         14    1    1    2    0    0  0.23977733354E-03  0.12291620425E-01  0.52934233925E-02  0.13385131940E-01  0.00000000000E+00 0. -1.
     999901    1    3    3    0    0  0.86447695110E-01 -0.54970931249E-01  0.86063045157E-01  0.89011339447E+00  0.88000000000E+00 0.  1.
        -11    1    4    4    0    0 -0.33114028896E-01  0.75298720277E-02 -0.73034056887E-02  0.34739584599E-01  0.51100000000E-03 0.  1.
         11    1    4    4    0    0 -0.53573443547E-01  0.35149438796E-01 -0.84053062861E-01  0.10569188899E+00  0.51100000000E-03 0. -1.
</event>
<event>
 8    1  0.2190512E+004  0.1043930E+01  0.7957747E-01            NaN
         13   -1    0    0    0    0  0.00000000000E+00  0.00000000000E+00  0.74505805969E-08  0.10566000000E+00  0.10566000000E+00 0. -1.
     999900   -1    0    0    0    0 -0.00000000000E+00 -0.00000000000E+00 -0.74505805969E-08  0.93827000000E+00  0.93827000000E+00 0. -1.
     999902    2    1    2    0    0  0.10201035761E-01  0.27556771135E-02  0.69134843677E-02  0.10313026031E+01  0.10312252945E+01 0.  0.
     999903    2    3    3    0    0 -0.10674848432E+00  0.77472829324E-01 -0.15553766182E-01  0.14014345880E+00  0.44732440281E-01 0.  0.
         14    1    1    2    0    0 -0.10201035761E-01 -0.27556771135E-02 -0.69134843677E-02  0.12627396923E-01  0.00000000000E+00 0.  1.
     999901    1    3    3    0    0  0.11694952008E+00 -0.74717152210E-01  0.22467250550E-01  0.89115914428E+00  0.88000000000E+00 0.  1.
        -11    1    4    4    0    0 -0.54125174602E-01  0.48882153696E-01 -0.29461652126E-01  0.78659071585E-01  0.51100000000E-03 0.  1.
         11    1    4    4    0    0 -0.52623309720E-01  0.28590675628E-01  0.13907885944E-01  0.61484387215E-01  0.51100000000E-03 0. -1.
</event>
<event>
 8    1  0.2190512E+004  0.1043930E+01  0.7957747E-01            NaN
         13   -1    0    0    0    0  0.00000000000E+00  0.00000000000E+00  0.74505805969E-08  0.10566000000E+00  0.10566000000E+00 0.  1.
     999900   -1    0    0    0    0 -0.00000000000E+00 -0.00000000000E+00 -0.74505805969E-08  0.93827000000E+00  0.93827000000E+00 0.  1.
     999902    2    1    2    0    0  0.14129048182E-02 -0.10186036760E-01  0.75215952897E-02  0.10311892763E+01  0.10311105651E+01 0.  0.
     999903    2    3    3    0    0  0.66646229230E-01 -0.80954171883E-01 -0.83243088130E-01  0.14130066342E+00  0.45179286688E-01 0.  0.
         14    1    1    2    0    0 -0.14129048182E-02  0.10186036760E-01 -0.75215952897E-02  0.12740723708E-01  0.00000000000E+00 0.  1.
     999901    1    3    3    0    0 -0.65233324411E-01  0.70768135123E-01  0.90764683420E-01  0.88988861287E+00  0.88000000000E+00 0. -1.
        -11    1    4    4    0    0  0.19931968745E-01 -0.43542815801E-01 -0.60764031710E-01  0.77367880006E-01  0.51100000000E-03 0. -1.
         11    1    4    4    0    0  0.46714260484E-01 -0.37411356082E-01 -0.22479056420E-01  0.63932783414E-01  0.51100000000E-03 0.  1.
</event>
<event>
 8    1  0.2190512E+004  0.1043930E+01  0.7957747E-01            NaN
         13   -1    0    0    0    0  0.00000000000E+00  0.00000000000E+00  0.74505805969E-08  0.10566000000E+00  0.10566000000E+00 0. -1.
     999900   -1    0    0    0    0 -0.00000000000E+00 -0.00000000000E+00 -0.74505805969E-08  0.93827000000E+00  0.93827000000E+00 0.  1.
     999902    2    1    2    0    0 -0.89731493115E-02 -0.45344765010E-02  0.91801761135E-02  0.10303155033E+01  0.10302255490E+01 0.  0.
     999903    2    3    3    0    0 -0.82778298930E-01 -0.10386901309E+00 -0.16779956103E-01  0.14127755211E+00  0.45130490233E-01 0.  0.
         14    1    1    2    0    0  0.89731493115E-02  0.45344765010E-02 -0.91801761135E-02  0.13614496655E-01  0.00000000000E+00 0.  1.
     999901    1    3    3    0    0  0.73805149619E-01  0.99334536592E-01  0.25960132216E-01  0.88903795123E+00  0.88000000000E+00 0.  1.
        -11    1    4    4    0    0 -0.44534368377E-01 -0.38777804114E-01 -0.27288021587E-01  0.65053249741E-01  0.51100000000E-03 0.  1.
         11    1    4    4    0    0 -0.38243930553E-01 -0.65091208979E-01  0.10508065484E-01  0.76224302370E-01  0.51100000000E-03 0. -1.
</event>
<event>
 8    1  0.2190512E+004  0.1043930E+01  0.7957747E-01            NaN
         13   -1    0    0    0    0  0.00000000000E+00  0.00000000000E+00  0.74505805969E-08  0.10566000000E+00  0.10566000000E+00 0.  1.
     999900   -1    0    0    0    0 -0.00000000000E+00 -0.00000000000E+00 -0.74505805969E-08  0.93827000000E+00  0.93827000000E+00 0.  1.
     999902    2    1    2    0    0 -0.67139176979E-02 -0.51420083245E-02 -0.10694693347E-01  0.10302957268E+01  0.10302055092E+01 0.  0.
     999903    2    3    3    0    0  0.42662402216E-01  0.12475265460E+00 -0.65530150739E-02  0.13938170291E+00  0.44732669339E-01 0.  0.
         14    1    1    2    0    0  0.67139176979E-02  0.51420083245E-02  0.10694693347E-01  0.13634273221E-01  0.00000000000E+00 0.  1.
     999901    1    3    3    0    0 -0.49376319914E-01 -0.12989466293E+00 -0.41416782735E-02  0.89091402387E+00  0.88000000000E+00 0.  1.
        -11    1    4    4    0    0  0.36902015067E-01  0.59345074590E-01 -0.19283490339E-01  0.72496280696E-01  0.51100000000E-03 0.  1.
         11    1    4    4    0    0  0.57603871486E-02  0.65407580014E-01  0.12730475265E-01  0.66885422215E-01  0.51100000000E-03 0. -1.
</event>
<event>
 8    1  0.2190512E+004  0.1043930E+01  0.7957747E-01            NaN
         13   -1    0    0    0    0  0.00000000000E+00  0.00000000000E+00  0.74505805969E-08  0.10566000000E+00  0.10566000000E+00 0. -1.
     999900   -1    0    0    0    0 -0.00000000000E+00 -0.00000000000E+00 -0.74505805969E-08  0.93827000000E+00  0.93827000000E+00 0.  1.
     999902    2    1    2    0    0 -0.84358234946E-02  0.71250830125E-02 -0.82124241326E-02  0.10301686833E+01  0.10300767652E+01 0.  0.
     999903    2    3    3    0    0 -0.10542294301E+00  0.69765511766E-01 -0.50290542871E-01  0.14163005574E+00  0.39353658546E-01 0.  0.
         14    1    1    2    0    0  0.84358234946E-02 -0.71250830125E-02  0.82124241326E-02  0.13761316656E-01  0.00000000000E+00 0. -1.
     999901    1    3    3    0    0  0.96987119520E-01 -0.62640428754E-01  0.42078118739E-01  0.88853862760E+00  0.88000000000E+00 0.  1.
        -11    1    4    4    0    0 -0.10637118631E+00  0.66199862082E-01 -0.53947106947E-01  0.13641041927E+00  0.51100000000E-03 0. -1.
         11    1    4    4    0    0  0.94824329763E-03  0.35656496843E-02  0.36565640755E-02  0.52196364682E-02  0.51100000000E-03 0.  1.
</event>
<event>
 8    1  0.2190512E+004  0.1043930E+01  0.7957747E-01            NaN
         13   -1    0    0    0    0  0.00000000000E+00  0.00000000000E+00  0.74505805969E-08  0.10566000000E+00  0.10566000000E+00 0.  1.
     999900   -1    0    0    0    0 -0.00000000000E+00 -0.00000000000E+00 -0.74505805969E-08  0.93827000000E+00  0.93827000000E+00 0. -1.
     999902    2    1    2    0    0 -0.73315860406E-02 -0.75084886736E-02 -0.81423954963E-02  0.10306473737E+01  0.10305617792E+01 0.  0.
     999903    2    3    3    0    0  0.58864626679E-01 -0.87517910842E-01 -0.82771383076E-01  0.14140447554E+00  0.44941015264E-01 0.  0.
         14    1    1    2    0    0  0.73315860406E-02  0.75084886736E-02  0.81423954963E-02  0.13282626263E-01  0.00000000000E+00 0.  1.
     999901    1    3    3    0    0 -0.66196212720E-01  0.80009422169E-01  0.74628987579E-01  0.88924289820E+00  0.88000000000E+00 0.  1.
        -11    1    4    4    0    0  0.31415197042E-02 -0.34952853578E-01 -0.41628382596E-01  0.54449559024E-01  0.51100000000E-03 0.  1.
         11    1    4    4    0    0  0.55723106975E-01 -0.52565057264E-01 -0.41143000480E-01  0.86954916512E-01  0.51100000000E-03 0. -1.
</event>
<event>
 8    1  0.2190512E+004  0.1043930E+01  0.7957747E-01            NaN
         13   -1    0    0    0    0  0.00000000000E+00  0.00000000000E+00  0.74505805969E-08  0.10566000000E+00  0.10566000000E+00 0. -1.
     999900   -1    0    0    0    0 -0.00000000000E+00 -0.00000000000E+00 -0.74505805969E-08  0.93827000000E+00  0.93827000000E+00 0.  1.
     999902    2    1    2    0    0  0.14419968390E-01 -0.13176095698E-02 -0.16673577160E-02  0.10293542782E+01  0.10292510765E+01 0.  0.
     999903    2    3    3    0    0 -0.18593544859E-01  0.74044869821E-01  0.10696423369E+00  0.13886552591E+00  0.44876768386E-01 0.  0.
         14    1    1    2    0    0 -0.14419968390E-01  0.13176095698E-02  0.16673577160E-02  0.14575721769E-01  0.00000000000E+00 0.  1.
     999901    1    3    3    0    0  0.33013513248E-01 -0.75362479391E-01 -0.10863159140E+00  0.89048875232E+00  0.88000000000E+00 0.  1.
        -11    1    4    4    0    0  0.84985329431E-02  0.53552067879E-01  0.59586236415E-01  0.80565685794E-01  0.51100000000E-03 0.  1.
         11    1    4    4    0    0 -0.27092077802E-01  0.20492801942E-01  0.47377997274E-01  0.58299840117E-01  0.51100000000E-03 0. -1.
</event>
<event>
 8    1  0.2190512E+004  0.1043930E+01  0.7957747E-01            NaN
         13   -1    0    0    0    0  0.00000000000E+00  0.00000000000E+00  0.74505805969E-08  0.10566000000E+00  0.10566000000E+00 0.  1.
     999900   -1    0    0    0    0 -0.00000000000E+00 -0.00000000000E+00 -0.74505805969E-08  0.93827000000E+00  0.93827000000E+00 0. -1.
     999902    2    1    2    0    0 -0.94435109342E-02 -0.99349531983E-02  0.16665301204E-02  0.10301220126E+01  0.10300294657E+01 0.  0.
     999903    2    3    3    0    0 -0.80114871886E-01  0.23528826328E-01 -0.10305942967E+00  0.14046938799E+00  0.46242886500E-01 0.  0.
         14    1    1    2    0    0  0.94435109342E-02  0.99349531983E-02 -0.16665301204E-02  0.13807987415E-01  0.00000000000E+00 0.  1.
     999901    1    3    3    0    0  0.70671360952E-01 -0.33463779526E-01  0.10472595979E+00  0.88965262460E+00  0.88000000000E+00 0.  1.
        -11    1    4    4    0    0 -0.53643812650E-01  0.17112272126E-01 -0.32922709175E-01  0.65227711851E-01  0.51100000000E-03 0. -1.
         11    1    4    4    0    0 -0.26471059236E-01  0.64165542020E-02 -0.70136720496E-01  0.75241676137E-01  0.51100000000E-03 0.  1.
</event>
<event>
 8    1  0.2190512E+004  0.1043930E+01  0.7957747E-01            NaN
         13   -1    0    0    0    0  0.00000000000E+00  0.00000000000E+00  0.74505805969E-08  0.10566000000E+00  0.10566000000E+00 0. -1.
     999900   -1    0    0    0    0 -0.00000000000E+00 -0.00000000000E+00 -0.74505805969E-08  0.93827000000E+00  0.93827000000E+00 0. -1.
     999902    2    1    2    0    0  0.10410533013E-01 -0.89519789212E-03 -0.83281968616E-02  0.10305681349E+01  0.10304815094E+01 0.  0.
     999903    2    3    3    0    0 -0.35580156746E-01  0.28523991532E-02 -0.12874958921E+00  0.14116918065E+00  0.45587247219E-01 0.  0.
         14    1    1    2    0    0 -0.10410533013E-01  0.89519789212E-03  0.83281968616E-02  0.13361865134E-01  0.00000000000E+00 0. -1.
     999901    1    3    3    0    0  0.45990689759E-01 -0.37475970454E-02  0.12042139235E+00  0.88939895422E+00  0.88000000000E+00 0.  1.
        -11    1    4    4    0    0 -0.44165024193E-01 -0.39523661999E-02 -0.82777037066E-01  0.93906706613E-01  0.51100000000E-03 0. -1.
         11    1    4    4    0    0  0.85848674465E-02  0.68047653532E-02 -0.45972552141E-01  0.47262474036E-01  0.51100000000E-03 0.  1.
</event>
<event>
 8    1  0.2190512E+004  0.1043930E+01  0.7957747E-01            NaN
         13   -1    0    0    0    0  0.00000000000E+00  0.00000000000E+00  0.74505805969E-08  0.10566000000E+00  0.10566000000E+00 0.  1.
     999900   -1    0    0    0    0 -0.00000000000E+00 -0.00000000000E+00 -0.74505805969E-08  0.93827000000E+00  0.93827000000E+00 0.  1.
     999902    2    1    2    0    0 -0.12377150831E-01  0.54673768849E-02 -0.19658752502E-02  0.10302570070E+01  0.10301662728E+01 0.  0.
     999903    2    3    3    0    0  0.56597070824E-01 -0.14764903046E-01 -0.11877353941E+00  0.13963317010E+00  0.44373840741E-01 0.  0.
         14    1    1    2    0    0  0.12377150831E-01 -0.54673768849E-02  0.19658752502E-02  0.13672993023E-01  0.00000000000E+00 0.  1.
     999901    1    3    3    0    0 -0.68974221655E-01  0.20232279931E-01  0.11680766416E+00  0.89062383687E+00  0.88000000000E+00 0.  1.
        -11    1    4    4    0    0  0.96092301491E-02 -0.14040648081E-01 -0.69447656987E-01  0.71503253664E-01  0.51100000000E-03 0. -1.
         11    1    4    4    0    0  0.46987840675E-01 -0.72425496513E-03 -0.49325882419E-01  0.68129916439E-01  0.51100000000E-03 0.  1.
</event>
<event>
 8    1  0.2190512E+004  0.1043930E+01  0.7957747E-01            NaN
         13   -1    0    0    0    0  0.00000000000E+00  0.00000000000E+00  0.74505805969E-08  0.10566000000E+00  0.10566000000E+00 0.  1.
     999900   -1    0    0    0    0 -0.00000000000E+00 -0.00000000000E+00 -0.74505805969E-08  0.93827000000E+00  0.93827000000E+00 0.  1.
     999902    2    1    2    0    0  0.33704204073E-02  0.77727963854E-02  0.84050778822E-02  0.10319959549E+01  0.10319269497E+01 0.  0.
     999903    2    3    3    0    0  0.20210445735E-01  0.43267277703E-01 -0.12466068718E+00  0.14112562628E+00  0.45778117332E-01 0.  0.
         14    1    1    2    0    0 -0.33704204073E-02 -0.77727963854E-02 -0.84050778822E-02  0.11934045063E-01  0.00000000000E+00 0. -1.
     999901    1    3    3    0    0 -0.16840025327E-01 -0.35494481318E-01  0.13306576506E+00  0.89087032866E+00  0.88000000000E+00 0. -1.
        -11    1    4    4    0    0  0.28532679614E-01  0.18291956953E-01 -0.39822058057E-01  0.52294999035E-01  0.51100000000E-03 0. -1.
         11    1    4    4    0    0 -0.83222338795E-02  0.24975320750E-01 -0.84838629124E-01  0.88830627240E-01  0.51100000000E-03 0.  1.
</event>
<event>
 8    1  0.2190512E+004  0.1043930E+01  0.7957747E-01            NaN
         13   -1    0    0    0    0  0.00000000000E+00  0.00000000000E+00  0.74505805969E-08  0.10566000000E+00  0.10566000000E+00 0.  1.
     999900   -1    0    0    0    0 -0.00000000000E+00 -0.00000000000E+00 -0.74505805969E-08  0.93827000000E+00  0.93827000000E+00 0. -1.
     999902    2    1    2    0    0  0.66632151158E-02  0.45498970904E-02  0.11157571515E-01  0.10301607807E+01  0.10300687563E+01 0.  0.
     999903    2    3    3    0    0 -0.11646516130E+00 -0.23952880756E-01  0.58640197786E-01  0.13986442257E+00  0.44559057572E-01 0.  0.
         14    1    1    2    0    0 -0.66632151158E-02 -0.45498970904E-02 -0.11157571515E-01  0.13769219343E-01  0.00000000000E+00 0. -1.
     999901    1    3    3    0    0  0.12312837642E+00  0.28502777846E-01 -0.47482626272E-01  0.89029635809E+00  0.88000000000E+00 0. -1.
        -11    1    4    4    0    0 -0.71920826253E-01 -0.20906918690E-02  0.14390487273E-01  0.73377949592E-01  0.51100000000E-03 0. -1.
         11    1    4    4    0    0 -0.44544335047E-01 -0.21862188887E-01  0.44249710513E-01  0.66486472979E-01  0.51100000000E-03 0.  1.
</event>
<event>
 8    1  0.2190512E+004  0.1043930E+01  0.7957747E-01            NaN
         13   -1    0    0    0    0  0.00000000000E+00  0.00000000000E+00  0.74505805969E-08  0.10566000000E+00  0.10566000000E+00 0.  1.
     999900   -1    0    0    0    0 -0.00000000000E+00 -0.00000000000E+00 -0.74505805969E-08  0.93827000000E+00  0.93827000000E+00 0.  1.
     999902    2    1    2    0    0 -0.63008430483E-02  0.78710779909E-02 -0.82282014171E-02  0.10309162461E+01  0.10308341034E+01 0.  0.
     999903    2    3    3    0    0 -0.12792733274E+00 -0.38503857661E-01  0.90250760338E-02  0.14117397262E+00  0.44729062477E-01 0.  0.
         14    1    1    2    0    0  0.63008430483E-02 -0.78710779909E-02  0.82282014171E-02  0.13013753894E-01  0.00000000000E+00 0.  1.
     999901    1    3    3    0    0  0.12162648969E+00  0.46374935652E-01 -0.17253277451E-01  0.88974227349E+00  0.88000000000E+00 0. -1.
        -11    1    4    4    0    0 -0.44397116642E-01  0.51460824397E-02 -0.79774920454E-02  0.45403608127E-01  0.51100000000E-03 0.  1.
         11    1    4    4    0    0 -0.83530216098E-01 -0.43649940101E-01  0.17002568079E-01  0.95770364490E-01  0.51100000000E-03 0. -1.
</event>
<event>
 8    1  0.2190512E+004  0.1043930E+01  0.7957747E-01            NaN
         13   -1    0    0    0    0  0.00000000000E+00  0.00000000000E+00  0.74505805969E-08  0.10566000000E+00  0.10566000000E+00 0. -1.
     999900   -1    0    0    0    0 -0.00000000000E+00 -0.00000000000E+00 -0.74505805969E-08  0.93827000000E+00  0.93827000000E+00 0.  1.
     999902    2    1    2    0    0 -0.70018711018E-02 -0.10888553537E-01  0.82835717801E-02  0.10285610586E+01  0.10284462295E+01 0.  0.
     999903    2    3    3    0    0  0.17644452840E-02  0.26601026131E-01 -0.12673360403E+00  0.13743146389E+00  0.45992097342E-01 0.  0.
         14    1    1    2    0    0  0.70018711018E-02  0.10888553537E-01 -0.82835717801E-02  0.15368941359E-01  0.00000000000E+00 0.  1.
     999901    1    3    3    0    0 -0.87663163858E-02 -0.37489579668E-01  0.13501717581E+00  0.89112959476E+00  0.88000000000E+00 0. -1.
        -11    1    4    4    0    0 -0.24368764982E-03 -0.93498713101E-02 -0.67232631618E-01  0.67882010522E-01  0.51100000000E-03 0.  1.
         11    1    4    4    0    0  0.20081329338E-02  0.35950897441E-01 -0.59500972408E-01  0.69549453364E-01  0.51100000000E-03 0. -1.
</event>
<event>
 8    1  0.2190512E+004  0.1043930E+01  0.7957747E-01            NaN
         13   -1    0    0    0    0  0.00000000000E+00  0.00000000000E+00  0.74505805969E-08  0.10566000000E+00  0.10566000000E+00 0. -1.
     999900   -1    0    0    0    0 -0.00000000000E+00 -0.00000000000E+00 -0.74505805969E-08  0.93827000000E+00  0.93827000000E+00 0. -1.
     999902    2    1    2    0    0  0.12690830366E-01 -0.34265709299E-02 -0.19711542929E-02  0.10306377461E+01  0.10305520267E+01 0.  0.
     999903    2    3    3    0    0 -0.41690049459E-01  0.54774438407E-01  0.11275361919E+00  0.13962348629E+00  0.45199999527E-01 0.  0.
         14    1    1    2    0    0 -0.12690830366E-01  0.34265709299E-02  0.19711542929E-02  0.13292253871E-01  0.00000000000E+00 0.  1.
     999901    1    3    3    0    0  0.54380879825E-01 -0.58201009337E-01 -0.11472477349E+00  0.89101425984E+00  0.88000000000E+00 0. -1.
        -11    1    4    4    0    0 -0.26329852910E-01  0.20175883468E-02  0.47182668081E-01  0.54072147223E-01  0.51100000000E-03 0.  1.
         11    1    4    4    0    0 -0.15360196549E-01  0.52756850060E-01  0.65570951111E-01  0.85551339071E-01  0.51100000000E-03 0. -1.
</event>
<event>
 8    1  0.2190512E+004  0.1043930E+01  0.7957747E-01            NaN
         13   -1    0    0    0    0  0.00000000000E+00  0.00000000000E+00  0.74505805969E-08  0.10566000000E+00  0.10566000000E+00 0. -1.
     999900   -1    0    0    0    0 -0.00000000000E+00 -0.00000000000E+00 -0.74505805969E-08  0.93827000000E+00  0.93827000000E+00 0. -1.
     999902    2    1    2    0    0 -0.47849286475E-02  0.56404036658E-02 -0.12623332004E-01  0.10292992718E+01  0.10291952841E+01 0.  0.
     999903    2    3    3    0    0 -0.10214384680E+00  0.49189631989E-01  0.67482022051E-01  0.13924749695E+00  0.44531525605E-01 0.  0.
         14    1    1    2    0    0  0.47849286475E-02 -0.56404036658E-02  0.12623332004E-01  0.14630728162E-01  0.00000000000E+00 0. -1.
     999901    1    3    3    0    0  0.97358918152E-01 -0.43549228323E-01 -0.80105354055E-01  0.89005177489E+00  0.88000000000E+00 0. -1.
        -11    1    4    4    0    0 -0.55246566131E-01  0.50153378240E-01  0.36840797078E-01  0.83216884516E-01  0.51100000000E-03 0. -1.
         11    1    4    4    0    0 -0.46897280669E-01 -0.96374625160E-03  0.30641224973E-01  0.56030612435E-01  0.51100000000E-03 0.  1.
</event>
<event>
 7    1  0.2511891E+004  0.1043930E+01  0.7957747E-01            NaN
         13   -1    0    0    0    0  0.00000000000E+00  0.00000000000E+00  0.74505805969E-08  0.10566000000E+00  0.10566000000E+00 0. -1.
     999900   -1    0    0    0    0 -0.00000000000E+00 -0.00000000000E+00 -0.74505805969E-08  0.93827000000E+00  0.93827000000E+00 0.  1.
     999903    2    1    2    0    0  0.61377649450E-01  0.53443743153E-02  0.91059189842E-01  0.11882424487E+00  0.45073794222E-01 0.  0.
         14    1    1    2    0    0 -0.43098983829E-02  0.71936379254E-02 -0.40891419437E-01  0.41742446433E-01  0.00000000000E+00 0.  1.
     999901    1    1    2    0    0 -0.57067751068E-01 -0.12538012241E-01 -0.50167770405E-01  0.88336330870E+00  0.88000000000E+00 0.  1.
        -11    1    3    3    0    0  0.14106183819E-01  0.21102733981E-01  0.40760644960E-01  0.48020840288E-01  0.51100000000E-03 0.  1.
         11    1    3    3    0    0  0.47271465631E-01 -0.15758359665E-01  0.50298544882E-01  0.70803404583E-01  0.51100000000E-03 0. -1.
</event>
<event>
 8    1  0.2190512E+004  0.1043930E+01  0.7957747E-01            NaN
         13   -1    0    0    0    0  0.00000000000E+00  0.00000000000E+00  0.74505805969E-08  0.10566000000E+00  0.10566000000E+00 0.  1.
     999900   -1    0    0    0    0 -0.00000000000E+00 -0.00000000000E+00 -0.74505805969E-08  0.93827000000E+00  0.93827000000E+00 0. -1.
     999902    2    1    2    0    0  0.72918707182E-02  0.88929074088E-02  0.74210306550E-02  0.10302432591E+01  0.10301523412E+01 0.  0.
     999903    2    3    3    0    0  0.35552016881E-01  0.12272893074E+00 -0.41714890558E-01  0.14110231704E+00  0.42934781195E-01 0.  0.
         14    1    1    2    0    0 -0.72918707182E-02 -0.88929074088E-02 -0.74210306550E-02  0.13686740910E-01  0.00000000000E+00 0. -1.
     999901    1    3    3    0    0 -0.28260146163E-01 -0.11383602333E+00  0.49135921213E-01  0.88914094205E+00  0.88000000000E+00 0.  1.
        -11    1    4    4    0    0  0.16677439581E-01  0.72249063290E-01 -0.20408040151E-02  0.74178771487E-01  0.51100000000E-03 0. -1.
         11    1    4    4    0    0  0.18874577300E-01  0.50479867449E-01 -0.39674086543E-01  0.66923545557E-01  0.51100000000E-03 0.  1.
</event>
<event>
 8    1  0.2190512E+004  0.1043930E+01  0.7957747E-01            NaN
         13   -1    0    0    0    0  0.00000000000E+00  0.00000000000E+00  0.74505805969E-08  0.10566000000E+00  0.10566000000E+00 0. -1.
     999900   -1    0    0    0    0 -0.00000000000E+00 -0.00000000000E+00 -0.74505805969E-08  0.93827000000E+00  0.93827000000E+00 0. -1.
     999902    2    1    2    0    0  0.32223632175E-03  0.13115201088E-01  0.86870947580E-02  0.10281953900E+01  0.10280749886E+01 0.  0.
     999903    2    3    3    0    0 -0.40759792845E-01  0.12524442645E+00  0.17608277146E-01  0.14008487674E+00  0.44341788391E-01 0.  0.
         14    1    1    2    0    0 -0.32223632175E-03 -0.13115201088E-01 -0.86870947580E-02  0.15734609978E-01  0.00000000000E+00 0.  1.
     999901    1    3    3    0    0  0.41082029167E-01 -0.11212922537E+00 -0.89211823877E-02  0.88811051328E+00  0.88000000000E+00 0.  1.
        -11    1    4    4    0    0 -0.99915359967E-02  0.49590979296E-02  0.11116153140E-01  0.15756059960E-01  0.51100000000E-03 0.  1.
         11    1    4    4    0    0 -0.30768256848E-01  0.12028532852E+00  0.64921240062E-02  0.12432881678E+00  0.51100000000E-03 0. -1.
</event>
<event>
 8    1  0.2190512E+004  0.1043930E+01  0.7957747E-01            NaN
         13   -1    0    0    0    0  0.00000000000E+00  0.00000000000E+00  0.74505805969E-08  0.10566000000E+00  0.10566000000E+00 0. -1.
     999900   -1    0    0    0    0 -0.00000000000E+00 -0.00000000000E+00 -0.74505805969E-08  0.93827000000E+00  0.93827000000E+00 0.  1.
     999902    2    1    2    0    0  0.13541019326E-01  0.24661957290E-02  0.24299965984E-02  0.10299533692E+01  0.10298585323E+01 0.  0.
     999903    2    3    3    0    0 -0.92598947532E-01  0.92678834308E-01 -0.21849839876E-01  0.13866580437E+00  0.39835391114E-01 0.  0.
         14    1    1    2    0    0 -0.13541019326E-01 -0.24661957290E-02 -0.24299965984E-02  0.13976630825E-01  0.00000000000E+00 0.  1.
     999901    1    3    3    0    0  0.10613996686E+00 -0.90212638579E-01  0.24279836475E-01  0.89128756481E+00  0.88000000000E+00 0.  1.
        -11    1    4    4    0    0 -0.26447987178E-01  0.48918746582E-01  0.25777139153E-02  0.55672664055E-01  0.51100000000E-03 0.  1.
         11    1    4    4    0    0 -0.66150960354E-01  0.43760087726E-01 -0.24427553792E-01  0.82993140311E-01  0.51100000000E-03 0. -1.
</event>
<event>
 8    1  0.2190512E+004  0.1043930E+01  0.7957747E-01            NaN
         13   -1    0    0    0    0  0.00000000000E+00  0.00000000000E+00  0.74505805969E-08  0.10566000000E+00  0.10566000000E+00 0.  1.
     999900   -1    0    0    0    0 -0.00000000000E+00 -0.00000000000E+00 -0.74505805969E-08  0.93827000000E+00  0.93827000000E+00 0. -1.
     999902    2    1    2    0    0  0.15868313658E-02  0.16728012642E-01 -0.17342691980E-02  0.10270376310E+01  0.10268987016E+01 0.  0.
     999903    2    3    3    0    0 -0.71431331739E-01  0.10140564836E+00  0.43908017628E-01  0.13878925781E+00  0.44147518599E-01 0.  0.
         14    1    1    2    0    0 -0.15868313658E-02 -0.16728012642E-01  0.17342691980E-02  0.16892368999E-01  0.00000000000E+00 0.  1.
     999901    1    3    3    0    0  0.73018163105E-01 -0.84677635714E-01 -0.45642286826E-01  0.88824837319E+00  0.88000000000E+00 0.  1.
        -11    1    4    4    0    0 -0.68737719449E-01  0.75115616005E-01  0.47058649844E-01  0.11216954796E+00  0.51100000000E-03 0.  1.
         11    1    4    4    0    0 -0.26936122900E-02  0.26290032351E-01 -0.31506322154E-02  0.26619709851E-01  0.51100000000E-03 0. -1.
</event>
<event>
 8    1  0.2190512E+004  0.1043930E+01  0.7957747E-01            NaN
         13   -1    0    0    0    0  0.00000000000E+00  0.00000000000E+00  0.74505805969E-08  0.10566000000E+00  0.10566000000E+00 0. -1.
     999900   -1    0    0    0    0 -0.00000000000E+00 -0.00000000000E+00 -0.74505805969E-08  0.93827000000E+00  0.93827000000E+00 0.  1.
     999902    2    1    2    0    0 -0.24595462222E-02 -0.66908728897E-02 -0.12048921605E-01  0.10299302264E+01  0.10298350731E+01 0.  0.
     999903    2    3    3    0    0 -0.90295609498E-01 -0.25045624478E-01  0.93843583787E-01  0.13905128203E+00  0.41809812426E-01 0.  0.
         14    1    1    2    0    0  0.24595462222E-02  0.66908728897E-02  0.12048921605E-01  0.13999773551E-01  0.00000000000E+00 0. -1.
     999901    1    3    3    0    0  0.87836063276E-01  0.18354751589E-01 -0.10589250539E+00  0.89087894442E+00  0.88000000000E+00 0.  1.
        -11    1    4    4    0    0 -0.27322245411E-01 -0.37689116365E-02  0.49076752271E-02  0.28018854123E-01  0.51100000000E-03 0. -1.
         11    1    4    4    0    0 -0.62973364087E-01 -0.21276712842E-01  0.88935908559E-01  0.11103242790E+00  0.51100000000E-03 0.  1.
</event>
<event>
 8    1  0.2190512E+004  0.1043930E+01  0.7957747E-01            NaN
         13   -1    0    0    0    0  0.00000000000E+00  0.00000000000E+00  0.74505805969E-08  0.10566000000E+00  0.10566000000E+00 0.  1.
     999900   -1    0    0    0    0 -0.00000000000E+00 -0.00000000000E+00 -0.74505805969E-08  0.93827000000E+00  0.93827000000E+00 0.  1.
     999902    2    1    2    0    0  0.83592036103E-02  0.89716791655E-02  0.63461330931E-02  0.10301227295E+01  0.10300301924E+01 0.  0.
     999903    2    3    3    0    0  0.11033708523E+00  0.23237025236E-01 -0.71601997444E-01  0.14069656651E+00  0.44209117532E-01 0.  0.
         14    1    1    2    0    0 -0.83592036103E-02 -0.89716791655E-02 -0.63461330931E-02  0.13807270450E-01  0.00000000000E+00 0. -1.
     999901    1    3    3    0    0 -0.10197788162E+00 -0.14265346070E-01  0.77948130537E-01  0.88942616304E+00  0.88000000000E+00 0. -1.
        -11    1    4    4    0    0  0.64390589042E-01  0.30407810863E-01 -0.26701225550E-01  0.76052609985E-01  0.51100000000E-03 0.  1.
         11    1    4    4    0    0  0.45946496184E-01 -0.71707856271E-02 -0.44900771894E-01  0.64643956530E-01  0.51100000000E-03 0. -1.
</event>
<event>
 8    1  0.2190512E+004  0.1043930E+01  0.7957747E-01            NaN
         13   -1    0    0    0    0  0.00000000000E+00  0.00000000000E+00  0.74505805969E-08  0.10566000000E+00  0.10566000000E+00 0.  1.
     999900   -1    0    0    0    0 -0.00000000000E+00 -0.00000000000E+00 -0.74505805969E-08  0.93827000000E+00  0.93827000000E+00 0. -1.
     999902    2    1    2    0    0 -0.39900439676E-02  0.85221466630E-03 -0.14296270114E-01  0.10290629203E+01  0.10289555208E+01 0.  0.
     999903    2    3    3    0    0  0.36977778942E-01 -0.13719458101E-01  0.12343748865E+00  0.13728868624E+00  0.45340821566E-01 0.  0.
         14    1    1    2    0    0  0.39900439676E-02 -0.85221466630E-03  0.14296270114E-01  0.14867079736E-01  0.00000000000E+00 0.  1.
     999901    1    3    3    0    0 -0.40967822910E-01  0.14571672768E-01 -0.13773375876E+00  0.89177423402E+00  0.88000000000E+00 0. -1.
        -11    1    4    4    0    0  0.25572709402E-01  0.11094208992E-01  0.89402321054E-01  0.93648710990E-01  0.51100000000E-03 0. -1.
         11    1    4    4    0    0  0.11405069540E-01 -0.24813667093E-01  0.34035167595E-01  0.43639975253E-01  0.51100000000E-03 0.  1.
</event>
<event>
 8    1  0.2190512E+004  0.1043930E+01  0.7957747E-01            NaN
         13   -1    0    0    0    0  0.00000000000E+00  0.00000000000E+00  0.74505805969E-08  0.10566000000E+00  0.10566000000E+00 0. -1.
     999900   -1    0    0    0    0 -0.00000000000E+00 -0.00000000000E+00 -0.74505805969E-08  0.93827000000E+00  0.93827000000E+00 0.  1.
     999902    2    1    2    0    0  0.91555291869E-02 -0.62379702215E-02 -0.75132327008E-02  0.10305440128E+01  0.10304570722E+01 0.  0.
     999903    2    3    3    0    0  0.74937754504E-01 -0.10832001149E+00 -0.29362943347E-01  0.14193529456E+00  0.43983558978E-01 0.  0.
         14    1    1    2    0    0 -0.91555291869E-02  0.62379702215E-02  0.75132327008E-02  0.13385987180E-01  0.00000000000E+00 0. -1.
     999901    1    3    3    0    0 -0.65782225317E-01  0.10208204127E+00  0.21849710647E-01  0.88860871826E+00  0.88000000000E+00 0. -1.
        -11    1    4    4    0    0  0.40182533094E-01 -0.41966991733E-01 -0.33219151184E-01  0.66930094034E-01  0.51100000000E-03 0.  1.
         11    1    4    4    0    0  0.34755221410E-01 -0.66353019754E-01  0.38562078365E-02  0.75005200523E-01  0.51100000000E-03 0. -1.
</event>
<event>
 8    1  0.2190512E+004  0.1043930E+01  0.7957747E-01            NaN
         13   -1    0    0    0    0  0.00000000000E+00  0.00000000000E+00  0.74505805969E-08  0.10566000000E+00  0.10566000000E+00 0.  1.
     999900   -1    0    0    0    0 -0.00000000000E+00 -0.00000000000E+00 -0.74505805969E-08  0.93827000000E+00  0.93827000000E+00 0.  1.
     999902    2    1    2    0    0  0.10901795189E-01  0.23598374716E-02  0.61937845641E-02  0.10311714367E+01  0.10310925035E+01 0.  0.
     999903    2    3    3    0    0 -0.59467687014E-01  0.35075771838E-01 -0.11248750896E+00  0.13981996512E+00  0.46146152667E-01 0.  0.
         14    1    1    2    0    0 -0.10901795189E-01 -0.23598374716E-02 -0.61937845641E-02  0.12758563338E-01  0.00000000000E+00 0. -1.
     999901    1    3    3    0    0  0.70369482203E-01 -0.32715934367E-01  0.11868129352E+00  0.89135147154E+00  0.88000000000E+00 0. -1.
        -11    1    4    4    0    0 -0.49395142574E-01  0.27306557358E-01 -0.48015928082E-01  0.74103432142E-01  0.51100000000E-03 0. -1.
         11    1    4    4    0    0 -0.10072544441E-01  0.77692144800E-02 -0.64471580875E-01  0.65716532978E-01  0.51100000000E-03 0.  1.
</event>
<event>
 8    1  0.2190512E+004  0.1043930E+01  0.7957747E-01            NaN
         13   -1    0    0    0    0  0.00000000000E+00  0.00000000000E+00  0.74505805969E-08  0.10566000000E+00  0.10566000000E+00 0. -1.
     999900   -1    0    0    0    0 -0.00000000000E+00 -0.00000000000E+00 -0.74505805969E-08  0.93827000000E+00  0.93827000000E+00 0.  1.
     999902    2    1    2    0    0 -0.25171223134E-02 -0.83614933098E-02  0.97612230616E-02  0.10308329793E+01  0.10307497753E+01 0.  0.
     999903    2    3    3    0    0  0.57036194209E-02  0.89873958621E-01 -0.95342417428E-01  0.13911297850E+00  0.46393798226E-01 0.  0.
         14    1    1    2    0    0  0.25171223134E-02  0.83614933098E-02 -0.97612230616E-02  0.13097020683E-01  0.00000000000E+00 0.  1.
     999901    1    3    3    0    0 -0.82207417343E-02 -0.98235451931E-01  0.10510364049E+00  0.89172000082E+00  0.88000000000E+00 0. -1.
        -11    1    4    4    0    0 -0.15988902807E-02  0.92909247603E-01 -0.91068491576E-01  0.13010924648E+00  0.51100000000E-03 0. -1.
         11    1    4    4    0    0  0.73025097015E-02 -0.30352889822E-02 -0.42739258514E-02  0.90037320224E-02  0.51100000000E-03 0.  1.
</event>
<event>
 8    1  0.2190512E+004  0.1043930E+01  0.7957747E-01            NaN
         13   -1    0    0    0    0  0.00000000000E+00  0.00000000000E+00  0.74505805969E-08  0.10566000000E+00  0.10566000000E+00 0. -1.
     999900   -1    0    0    0    0 -0.00000000000E+00 -0.00000000000E+00 -0.74505805969E-08  0.93827000000E+00  0.93827000000E+00 0.  1.
     999902    2    1    2    0    0  0.10379937075E-02 -0.14204194533E-01  0.39688405112E-03  0.10296824005E+01  0.10295838246E+01 0.  0.
     999903    2    3    3    0    0  0.85781326332E-01  0.51684623549E-01  0.85278226516E-01  0.13910527807E+00  0.45256670354E-01 0.  0.
         14    1    1    2    0    0 -0.10379937075E-02  0.14204194533E-01 -0.39688405112E-03  0.14247599455E-01  0.00000000000E+00 0.  1.
     999901    1    3    3    0    0 -0.84743332624E-01 -0.65888818082E-01 -0.84881342464E-01  0.89057712247E+00  0.88000000000E+00 0.  1.
        -11    1    4    4    0    0  0.68262737337E-01  0.59630882946E-01  0.69475802316E-01  0.11420504253E+00  0.51100000000E-03 0. -1.
         11    1    4    4    0    0  0.17518588994E-01 -0.79462593972E-02  0.15802424200E-01  0.24900235548E-01  0.51100000000E-03 0.  1.
</event>
<event>
 8    1  0.2190512E+004  0.1043930E+01  0.7957747E-01            NaN
         13   -1    0    0    0    0  0.00000000000E+00  0.00000000000E+00  0.74505805969E-08  0.10566000000E+00  0.10566000000E+00 0. -1.
     999900   -1    0    0    0    0 -0.00000000000E+00 -0.00000000000E+00 -0.74505805969E-08  0.93827000000E+00  0.93827000000E+00 0.  1.
     999902    2    1    2    0    0 -0.72605251278E-02  0.12034143001E-01 -0.32840724376E-03  0.10298714199E+01  0.10297754599E+01 0.  0.
     999903    2    3    3    0    0 -0.88024027247E-01 -0.69106253551E-01 -0.69559847587E-01  0.13975934856E+00  0.46585399653E-01 0.  0.
         14    1    1    2    0    0  0.72605251278E-02 -0.12034143001E-01  0.32840724376E-03  0.14058580092E-01  0.00000000000E+00 0.  1.
     999901    1    3    3    0    0  0.80763502120E-01  0.81140396552E-01  0.69231440343E-01  0.89011207135E+00  0.88000000000E+00 0. -1.
        -11    1    4    4    0    0 -0.16159296265E-01 -0.29369918955E-01 -0.22902012728E-02  0.33603885758E-01  0.51100000000E-03 0.  1.
         11    1    4    4    0    0 -0.71864730983E-01 -0.39736334596E-01 -0.67269646314E-01  0.10615546280E+00  0.51100000000E-03 0. -1.
</event>
<event>
 8    1  0.2190512E+004  0.1043930E+01  0.7957747E-01            NaN
         13   -1    0    0    0    0  0.00000000000E+00  0.00000000000E+00  0.74505805969E-08  0.10566000000E+00  0.10566000000E+00 0.  1.
     999900   -1    0    0    0    0 -0.00000000000E+00 -0.00000000000E+00 -0.74505805969E-08  0.93827000000E+00  0.93827000000E+00 0. -1.
     999902    2    1    2    0    0  0.50434059141E-02  0.11995912811E-01  0.31768587891E-02  0.10305348405E+01  0.10304477799E+01 0.  0.
     999903    2    3    3    0    0 -0.48262252262E-01 -0.12225443239E+00  0.37796577401E-02  0.13875851663E+00  0.44319847596E-01 0.  0.
         14    1    1    2    0    0 -0.50434059141E-02 -0.11995912811E-01 -0.31768587891E-02  0.13395159541E-01  0.00000000000E+00 0. -1.
     999901    1    3    3    0    0  0.53305658177E-01  0.13425034520E+00 -0.60279895103E-03  0.89177632383E+00  0.88000000000E+00 0.  1.
        -11    1    4    4    0    0 -0.35620773052E-01 -0.52843474842E-01 -0.15558323226E-01  0.65601789981E-01  0.51100000000E-03 0. -1.
         11    1    4    4    0    0 -0.12641479210E-01 -0.69410957550E-01  0.19337980966E-01  0.73156726645E-01  0.51100000000E-03 0.  1.
</event>
<event>
 8    1  0.2190512E+004  0.1043930E+01  0.7957747E-01            NaN
         13   -1    0    0    0    0  0.00000000000E+00  0.00000000000E+00  0.74505805969E-08  0.10566000000E+00  0.10566000000E+00 0. -1.
     999900   -1    0    0    0    0 -0.00000000000E+00 -0.00000000000E+00 -0.74505805969E-08  0.93827000000E+00  0.93827000000E+00 0.  1.
     999902    2    1    2    0    0 -0.13299135308E-01 -0.10409042492E-02  0.49315332929E-02  0.10297078165E+01  0.10296095944E+01 0.  0.
     999903    2    3    3    0    0 -0.11281757178E+00  0.45073685725E-01  0.55986252033E-01  0.14143023667E+00  0.45919601254E-01 0.  0.
         14    1    1    2    0    0  0.13299135308E-01  0.10409042492E-02 -0.49315332929E-02  0.14222183454E-01  0.00000000000E+00 0.  1.
     999901    1    3    3    0    0  0.99518436475E-01 -0.46114589974E-01 -0.51054718740E-01  0.88827757988E+00  0.88000000000E+00 0.  1.
        -11    1    4    4    0    0 -0.86616786881E-01  0.12818294335E-01  0.30723709320E-01  0.92795387141E-01  0.51100000000E-03 0. -1.
         11    1    4    4    0    0 -0.26200784903E-01  0.32255391390E-01  0.25262542713E-01  0.48634849528E-01  0.51100000000E-03 0.  1.
</event>
<event>
 8    1  0.2686597E+004  0.1043930E+01  0.7957747E-01            NaN
         13   -1    0    0    0    0  0.00000000000E+00  0.00000000000E+00  0.74505805969E-08  0.10566000000E+00  0.10566000000E+00 0.  1.
     999900   -1    0    0    0    0 -0.00000000000E+00 -0.00000000000E+00 -0.74505805969E-08  0.93827000000E+00  0.93827000000E+00 0. -1.
     999902    2    1    2    0    0  0.92829267742E-02 -0.10380352548E-01  0.25616559699E-02  0.10297706734E+01  0.10296733236E+01 0.  0.
     999903    2    3    3    0    0  0.26118419417E-02  0.11526228724E+00  0.62693318202E-01  0.13879009386E+00  0.45166596381E-01 0.  0.
         14    1    1    2    0    0 -0.92829267742E-02  0.10380352548E-01 -0.25616559699E-02  0.14159326602E-01  0.00000000000E+00 0. -1.
     999901    1    3    3    0    0  0.66710848325E-02 -0.12564263979E+00 -0.60131662232E-01  0.89098057954E+00  0.88000000000E+00 0.  1.
        -11    1    4    4    0    0  0.21793074633E-01  0.37211713887E-01  0.26712489507E-01  0.50729360030E-01  0.51100000000E-03 0.  1.
         11    1    4    4    0    0 -0.19181232691E-01  0.78050573355E-01  0.35980828695E-01  0.88060733833E-01  0.51100000000E-03 0. -1.
</event>
<event>
 8    1  0.2190512E+004  0.1043930E+01  0.7957747E-01            NaN
         13   -1    0    0    0    0  0.00000000000E+00  0.00000000000E+00  0.74505805969E-08  0.10566000000E+00  0.10566000000E+00 0.  1.
     999900   -1    0    0    0    0 -0.00000000000E+00 -0.00000000000E+00 -0.74505805969E-08  0.93827000000E+00  0.93827000000E+00 0.  1.
     999902    2    1    2    0    0 -0.66273596825E-02 -0.81113145694E-02  0.93425894415E-02  0.10298943562E+01  0.10297987112E+01 0.  0.
     999903    2    3    3    0    0  0.79601406723E-01  0.90290875085E-01  0.52891283906E-01  0.13915596591E+00  0.45585840556E-01 0.  0.
         14    1    1    2    0    0  0.66273596825E-02  0.81113145694E-02 -0.93425894415E-02  0.14035643835E-01  0.00000000000E+00 0. -1.
     999901    1    3    3    0    0 -0.86228766405E-01 -0.98402189654E-01 -0.43548694465E-01  0.89073839025E+00  0.88000000000E+00 0. -1.
        -11    1    4    4    0    0  0.69246855302E-01  0.94644179298E-01  0.50371264955E-01  0.12763296243E+00  0.51100000000E-03 0.  1.
         11    1    4    4    0    0  0.10354551420E-01 -0.43533042136E-02  0.25200189515E-02  0.11523003480E-01  0.51100000000E-03 0. -1.
</event>
<event>
 8    1  0.2190512E+004  0.1043930E+01  0.7957747E-01            NaN
         13   -1    0    0    0    0  0.00000000000E+00  0.00000000000E+00  0.74505805969E-08  0.10566000000E+00  0.10566000000E+00 0. -1.
     999900   -1    0    0    0    0 -0.00000000000E+00 -0.00000000000E+00 -0.74505805969E-08  0.93827000000E+00  0.93827000000E+00 0.  1.
     999902    2    1    2    0    0 -0.81449562476E-02 -0.29371108565E-02  0.15882872260E-01  0.10258404294E+01  0.10256809222E+01 0.  0.
     999903    2    3    3    0    0  0.27173108183E-01  0.73562985724E-01 -0.99280011927E-01  0.13434611068E+00  0.45193650111E-01 0.  0.
         14    1    1    2    0    0  0.81449562476E-02  0.29371108565E-02 -0.15882872260E-01  0.18089570577E-01  0.00000000000E+00 0.  1.
     999901    1    3    3    0    0 -0.35318064430E-01 -0.76500096580E-01  0.11516288419E+00  0.89149431874E+00  0.88000000000E+00 0. -1.
        -11    1    4    4    0    0 -0.86249388868E-02  0.10813145729E-02 -0.16401613658E-01  0.18569675915E-01  0.51100000000E-03 0.  1.
         11    1    4    4    0    0  0.35798047070E-01  0.72481671151E-01 -0.82878398269E-01  0.11577643477E+00  0.51100000000E-03 0. -1.
</event>
<event>
 8    1  0.2190512E+004  0.1043930E+01  0.7957747E-01            NaN
         13   -1    0    0    0    0  0.00000000000E+00  0.00000000000E+00  0.74505805969E-08  0.10566000000E+00  0.10566000000E+00 0.  1.
     999900   -1    0    0    0    0 -0.00000000000E+00 -0.00000000000E+00 -0.74505805969E-08  0.93827000000E+00  0.93827000000E+00 0.  1.
     999902    2    1    2    0    0  0.21328464271E-02  0.73163335623E-02  0.11151336742E-01  0.10304233319E+01  0.10303348062E+01 0.  0.
     999903    2    3    3    0    0 -0.80669025810E-01  0.10537257708E+00  0.15644243234E-01  0.14110260063E+00  0.45324715482E-01 0.  0.
         14    1    1    2    0    0 -0.21328464271E-02 -0.73163335623E-02 -0.11151336742E-01  0.13506668050E-01  0.00000000000E+00 0. -1.
     999901    1    3    3    0    0  0.82801872237E-01 -0.98056243519E-01 -0.44929064917E-02  0.88932073132E+00  0.88000000000E+00 0.  1.
        -11    1    4    4    0    0 -0.31464885762E-01  0.70174129001E-01 -0.52757180434E-02  0.77087883217E-01  0.51100000000E-03 0.  1.
         11    1    4    4    0    0 -0.49204140048E-01  0.35198448080E-01  0.20919961277E-01  0.64014717417E-01  0.51100000000E-03 0. -1.
</event>
<event>
 8    1  0.2190512E+004  0.1043930E+01  0.7957747E-01            NaN
         13   -1    0    0    0    0  0.00000000000E+00  0.00000000000E+00  0.74505805969E-08  0.10566000000E+00  0.10566000000E+00 0.  1.
     999900   -1    0    0    0    0 -0.00000000000E+00 -0.00000000000E+00 -0.74505805969E-08  0.93827000000E+00  0.93827000000E+00 0.  1.
     999902    2    1    2    0    0 -0.73336542004E-02 -0.90280305744E-02 -0.91795659294E-02  0.10291127043E+01  0.10290060282E+01 0.  0.
     999903    2    3    3    0    0  0.49491419552E-01  0.71533137442E-01  0.96179925777E-01  0.13736172268E+00  0.45290996611E-01 0.  0.
         14    1    1    2    0    0  0.73336542004E-02  0.90280305744E-02  0.91795659294E-02  0.14817295659E-01  0.00000000000E+00 0.  1.
     999901    1    3    3    0    0 -0.56825073752E-01 -0.80561168016E-01 -0.10535949171E+00  0.89175098166E+00  0.88000000000E+00 0. -1.
        -11    1    4    4    0    0  0.52161814407E-01  0.38322173204E-01  0.64791078128E-01  0.91583780045E-01  0.51100000000E-03 0.  1.
         11    1    4    4    0    0 -0.26703948554E-02  0.33210964238E-01  0.31388847649E-01  0.45777942636E-01  0.51100000000E-03 0. -1.
</event>
<event>
 8    1  0.2190512E+004  0.1043930E+01  0.7957747E-01            NaN
         13   -1    0    0    0    0  0.00000000000E+00  0.00000000000E+00  0.74505805969E-08  0.10566000000E+00  0.10566000000E+00 0.  1.
     999900   -1    0    0    0    0 -0.00000000000E+00 -0.00000000000E+00 -0.74505805969E-08  0.93827000000E+00  0.93827000000E+00 0. -1.
     999902    2    1    2    0    0 -0.42388870217E-02  0.39693333631E-03  0.13414872827E-01  0.10298557493E+01  0.10297595738E+01 0.  0.
     999903    2    3    3    0    0  0.12268128999E+00 -0.41477241060E-01  0.25908411291E-01  0.13967696598E+00  0.45468105415E-01 0.  0.
         14    1    1    2    0    0  0.42388870217E-02 -0.39693333631E-03 -0.13414872827E-01  0.14074250681E-01  0.00000000000E+00 0. -1.
     999901    1    3    3    0    0 -0.12692017701E+00  0.41874174396E-01 -0.12493538464E-01  0.89017878334E+00  0.88000000000E+00 0. -1.
        -11    1    4    4    0    0  0.90967501287E-01 -0.49120564507E-01  0.11534493644E-01  0.10402510184E+00  0.51100000000E-03 0. -1.
         11    1    4    4    0    0  0.31713788698E-01  0.76433234468E-02  0.14373917647E-01  0.35651864137E-01  0.51100000000E-03 0.  1.
</event>
<event>
 8    1  0.2190512E+004  0.1043930E+01  0.7957747E-01            NaN
         13   -1    0    0    0    0  0.00000000000E+00  0.00000000000E+00  0.74505805969E-08  0.10566000000E+00  0.10566000000E+00 0.  1.
     999900   -1    0    0    0    0 -0.00000000000E+00 -0.00000000000E+00 -0.74505805969E-08  0.93827000000E+00  0.93827000000E+00 0. -1.
     999902    2    1    2    0    0 -0.34220110056E-02  0.86209746490E-02 -0.13289079866E-01  0.10277241058E+01  0.10275963247E+01 0.  0.
     999903    2    3    3    0    0 -0.66241877549E-01  0.11352312432E+00 -0.18288317655E-01  0.13925587957E+00  0.42216718662E-01 0.  0.
         14    1    1    2    0    0  0.34220110056E-02 -0.86209746490E-02  0.13289079866E-01  0.16205894202E-01  0.00000000000E+00 0.  1.
     999901    1    3    3    0    0  0.62819866544E-01 -0.10490214967E+00  0.49992377896E-02  0.88846822623E+00  0.88000000000E+00 0. -1.
        -11    1    4    4    0    0 -0.40552438089E-01  0.54979022507E-01 -0.29376691163E-01  0.74366956745E-01  0.51100000000E-03 0. -1.
         11    1    4    4    0    0 -0.25689439460E-01  0.58544101816E-01  0.11088373508E-01  0.64888922824E-01  0.51100000000E-03 0.  1.
</event>
<event>
 8    1  0.2190512E+004  0.1043930E+01  0.7957747E-01            NaN
         13   -1    0    0    0    0  0.00000000000E+00  0.00000000000E+00  0.74505805969E-08  0.10566000000E+00  0.10566000000E+00 0. -1.
     999900   -1    0    0    0    0 -0.00000000000E+00 -0.00000000000E+00 -0.74505805969E-08  0.93827000000E+00  0.93827000000E+00 0.  1.
     999902    2    1    2    0    0  0.83258578673E-02 -0.11531097658E-01 -0.59017204347E-02  0.10285314148E+01  0.10284161389E+01 0.  0.
     999903    2    3    3    0    0  0.10189677388E+00 -0.33963853975E-01  0.76650379642E-01  0.13944559547E+00  0.45092100125E-01 0.  0.
         14    1    1    2    0    0 -0.83258578673E-02  0.11531097658E-01  0.59017204347E-02  0.15398585211E-01  0.00000000000E+00 0.  1.
     999901    1    3    3    0    0 -0.93570916013E-01  0.22432756317E-01 -0.82552100077E-01  0.88908581931E+00  0.88000000000E+00 0.  1.
        -11    1    4    4    0    0  0.51317315717E-01  0.62166530918E-02  0.30073481528E-01  0.59806262885E-01  0.51100000000E-03 0. -1.
         11    1    4    4    0    0  0.50579458163E-01 -0.40180507067E-01  0.46576898114E-01  0.79639332589E-01  0.51100000000E-03 0.  1.
</event>
<event>
 7    1  0.2190512E+004  0.1043930E+01  0.7957747E-01            NaN
         13   -1    0    0    0    0  0.00000000000E+00  0.00000000000E+00  0.74505805969E-08  0.10566000000E+00  0.10566000000E+00 0. -1.
     999900   -1    0    0    0    0 -0.00000000000E+00 -0.00000000000E+00 -0.74505805969E-08  0.93827000000E+00  0.93827000000E+00 0.  1.
     999902    2    1    2    0    0 -0.61207845068E-02 -0.93443532124E-02 -0.75229102487E-02  0.10304624420E+01  0.10303744316E+01 0.  0.
         14    1    1    2    0    0  0.61207845068E-02  0.93443532124E-02  0.75229102487E-02  0.13467558002E-01  0.00000000000E+00 0. -1.
     999901    1    3    3    0    0  0.92347187390E-02 -0.22044052573E-01  0.13033707886E+00  0.88992076861E+00  0.88000000000E+00 0. -1.
        -11    1    3    3    0    0 -0.17276797113E-01  0.35065420221E-02 -0.99075009650E-01  0.10063251072E+00  0.51100000000E-03 0.  1.
         11    1    3    3    0    0  0.19212938676E-02  0.91931573381E-02 -0.38784979459E-01  0.39909162665E-01  0.51100000000E-03 0. -1.
</event>
<event>
 8    1  0.2190512E+004  0.1043930E+01  0.7957747E-01            NaN
         13   -1    0    0    0    0  0.00000000000E+00  0.00000000000E+00  0.74505805969E-08  0.10566000000E+00  0.10566000000E+00 0.  1.
     999900   -1    0    0    0    0 -0.00000000000E+00 -0.00000000000E+00 -0.74505805969E-08  0.93827000000E+00  0.93827000000E+00 0. -1.
     999902    2    1    2    0    0 -0.10594804404E-01 -0.77026467715E-02 -0.44467799252E-02  0.10300969056E+01  0.10300040197E+01 0.  0.
     999903    2    3    3    0    0  0.10575470269E+00 -0.73614480952E-01 -0.28987830169E-01  0.13965665452E+00  0.45393148227E-01 0.  0.
         14    1    1    2    0    0  0.10594804404E-01  0.77026467715E-02  0.44467799252E-02  0.13833094352E-01  0.00000000000E+00 0. -1.
     999901    1    3    3    0    0 -0.11634950710E+00  0.65911834181E-01  0.24541050244E-01  0.89044025113E+00  0.88000000000E+00 0.  1.
        -11    1    4    4    0    0  0.50147318604E-01 -0.16730125676E-01  0.50960395349E-02  0.53111970480E-01  0.51100000000E-03 0. -1.
         11    1    4    4    0    0  0.55607384088E-01 -0.56884355276E-01 -0.34083869704E-01  0.86544684038E-01  0.51100000000E-03 0.  1.
</event>
<event>
 8    1  0.2190512E+004  0.1043930E+01  0.7957747E-01            NaN
         13   -1    0    0    0    0  0.00000000000E+00  0.00000000000E+00  0.74505805969E-08  0.10566000000E+00  0.10566000000E+00 0.  1.
     999900   -1    0    0    0    0 -0.00000000000E+00 -0.00000000000E+00 -0.74505805969E-08  0.93827000000E+00  0.93827000000E+00 0. -1.
     999902    2    1    2    0    0  0.13989981780E-01 -0.17572959870E-02  0.39782132336E-02  0.10292796123E+01  0.10291753429E+01 0.  0.
     999903    2    3    3    0    0  0.95374201755E-01  0.29031207978E-01  0.88505711969E-01  0.14095747406E+00  0.45789726410E-01 0.  0.
         14    1    1    2    0    0 -0.13989981780E-01  0.17572959870E-02 -0.39782132336E-02  0.14650387705E-01  0.00000000000E+00 0. -1.
     999901    1    3    3    0    0 -0.81384219975E-01 -0.30788503965E-01 -0.84527498736E-01  0.88832213824E+00  0.88000000000E+00 0. -1.
        -11    1    4    4    0    0  0.14038075501E-01  0.18535946266E-01  0.38269313435E-01  0.44782254740E-01  0.51100000000E-03 0. -1.
         11    1    4    4    0    0  0.81336126254E-01  0.10495261712E-01  0.50236398534E-01  0.96175219319E-01  0.51100000000E-03 0.  1.
</event>
<event>
 8    1  0.2190512E+004  0.1043930E+01  0.7957747E-01            NaN
         13   -1    0    0    0    0  0.00000000000E+00  0.00000000000E+00  0.74505805969E-08  0.10566000000E+00  0.10566000000E+00 0. -1.
     999900   -1    0    0    0    0 -0.00000000000E+00 -0.00000000000E+00 -0.74505805969E-08  0.93827000000E+00  0.93827000000E+00 0. -1.
     999902    2    1    2    0    0  0.12700854371E-01  0.44348205784E-03  0.59580657891E-02  0.10298940844E+01  0.10297984357E+01 0.  0.
     999903    2    3    3    0    0 -0.71388501038E-01  0.11049144378E+00  0.43184197668E-02  0.13906061962E+00  0.44883515362E-01 0.  0.
         14    1    1    2    0    0 -0.12700854371E-01 -0.44348205784E-03 -0.59580657891E-02  0.14035915575E-01  0.00000000000E+00 0.  1.
     999901    1    3    3    0    0  0.84089355409E-01 -0.11004796172E+00  0.16396460223E-02  0.89083346480E+00  0.88000000000E+00 0. -1.
        -11    1    4    4    0    0  0.61727385134E-03  0.14157792524E-01  0.11954095953E-01  0.18546850062E-01  0.51100000000E-03 0.  1.
         11    1    4    4    0    0 -0.72005774889E-01  0.96333651257E-01 -0.76356761864E-02  0.12051376956E+00  0.51100000000E-03 0. -1.
</event>
<event>
 8    1  0.2190512E+004  0.1043930E+01  0.7957747E-01            NaN
         13   -1    0    0    0    0  0.00000000000E+00  0.00000000000E+00  0.74505805969E-08  0.10566000000E+00  0.10566000000E+00 0.  1.
     999900   -1    0    0    0    0 -0.00000000000E+00 -0.00000000000E+00 -0.74505805969E-08  0.93827000000E+00  0.93827000000E+00 0. -1.
     999902    2    1    2    0    0  0.52198906449E-02 -0.27499881265E-03 -0.12929431490E-01  0.10299839224E+01  0.10298895024E+01 0.  0.
     999903    2    3    3    0    0  0.43553017303E-01 -0.10193890074E+00 -0.74891013166E-01  0.14113960801E+00  0.44981332766E-01 0.  0.
         14    1    1    2    0    0 -0.52198906449E-02  0.27499881265E-03  0.12929431490E-01  0.13946077633E-01  0.00000000000E+00 0.  1.
     999901    1    3    3    0    0 -0.38333126658E-01  0.10166390193E+00  0.61961581675E-01  0.88884431435E+00  0.88000000000E+00 0.  1.
        -11    1    4    4    0    0  0.14776571649E-01 -0.39811953782E-01 -0.41201485376E-02  0.42668202196E-01  0.51100000000E-03 0. -1.
         11    1    4    4    0    0  0.28776445654E-01 -0.62126946956E-01 -0.70770864628E-01  0.98471405818E-01  0.51100000000E-03 0.  1.
</event>
<event>
 8    1  0.2190512E+004  0.1043930E+01  0.7957747E-01            NaN
         13   -1    0    0    0    0  0.00000000000E+00  0.00000000000E+00  0.74505805969E-08  0.10566000000E+00  0.10566000000E+00 0. -1.
     999900   -1    0    0    0    0 -0.00000000000E+00 -0.00000000000E+00 -0.74505805969E-08  0.93827000000E+00  0.93827000000E+00 0.  1.
     999902    2    1    2    0    0 -0.10459487761E-01  0.17475653682E-02  0.51930460015E-02  0.10321222654E+01  0.10320547215E+01 0.  0.
     999903    2    3    3    0    0 -0.35153946250E-01 -0.12929322800E+00  0.13112343490E-01  0.14204124604E+00  0.45290653350E-01 0.  0.
         14    1    1    2    0    0  0.10459487761E-01 -0.17475653682E-02 -0.51930460015E-02  0.11807734571E-01  0.00000000000E+00 0.  1.
     999901    1    3    3    0    0  0.24694458490E-01  0.13104079337E+00 -0.79192974886E-02  0.89008101939E+00  0.88000000000E+00 0.  1.
        -11    1    4    4    0    0  0.57545689207E-02 -0.43351486082E-01 -0.82120481345E-02  0.44499047906E-01  0.51100000000E-03 0. -1.
         11    1    4    4    0    0 -0.40908515171E-01 -0.85941741917E-01  0.21324391625E-01  0.97542198132E-01  0.51100000000E-03 0.  1.
</event>
<event>
 7    1  0.2190512E+004  0.1043930E+01  0.7957747E-01            NaN
         13   -1    0    0    0    0  0.00000000000E+00  0.00000000000E+00  0.74505805969E-08  0.10566000000E+00  0.10566000000E+00 0.  1.
     999900   -1    0    0    0    0 -0.00000000000E+00 -0.00000000000E+00 -0.74505805969E-08  0.93827000000E+00  0.93827000000E+00 0. -1.
     999903    2    1    2    0    0  0.51636349473E-01  0.21639236102E-01 -0.94042716329E-01  0.11822702309E+00  0.44710483879E-01 0.  0.
         14    1    1    2    0    0 -0.31687183326E-01 -0.23985352223E-01 -0.44085303209E-02  0.39985120332E-01  0.00000000000E+00 0. -1.
     999901    1    1    2    0    0 -0.19949166147E-01  0.23461161214E-02  0.98451246650E-01  0.88571785658E+00  0.88000000000E+00 0.  1.
        -11    1    3    3    0    0  0.42351011464E-01 -0.35683338376E-02 -0.71383950829E-01  0.83079905726E-01  0.51100000000E-03 0. -1.
         11    1    3    3    0    0  0.92853380090E-02  0.25207569939E-01 -0.22658765500E-01  0.35147117366E-01  0.51100000000E-03 0.  1.
</event>
<event>
 8    1  0.2190512E+004  0.1043930E+01  0.7957747E-01            NaN
         13   -1    0    0    0    0  0.00000000000E+00  0.00000000000E+00  0.74505805969E-08  0.10566000000E+00  0.10566000000E+00 0. -1.
     999900   -1    0    0    0    0 -0.00000000000E+00 -0.00000000000E+00 -0.74505805969E-08  0.93827000000E+00  0.93827000000E+00 0.  1.
     999902    2    1    2    0    0 -0.66568733069E-02  0.10832729953E-01  0.66479377821E-02  0.10295822797E+01  0.10294823037E+01 0.  0.
     999903    2    3    3    0    0 -0.13137559541E+00  0.23073921724E-01  0.21141994008E-02  0.14069243210E+00  0.44698296130E-01 0.  0.
         14    1    1    2    0    0  0.66568733069E-02 -0.10832729953E-01 -0.66479377821E-02  0.14347720280E-01  0.00000000000E+00 0.  1.
     999901    1    3    3    0    0  0.12471872211E+00 -0.12241191770E-01  0.45337383813E-02  0.88888984762E+00  0.88000000000E+00 0.  1.
        -11    1    4    4    0    0 -0.63180232466E-01 -0.10642952727E-01  0.70296192327E-02  0.64456891678E-01  0.51100000000E-03 0. -1.
         11    1    4    4    0    0 -0.68195362948E-01  0.33716874450E-01 -0.49154198319E-02  0.76235540422E-01  0.51100000000E-03 0.  1.
</event>
<event>
 8    1  0.2190512E+004  0.1043930E+01  0.7957747E-01            NaN
         13   -1    0    0    0    0  0.00000000000E+00  0.00000000000E+00  0.74505805969E-08  0.10566000000E+00  0.10566000000E+00 0.  1.
     999900   -1    0    0    0    0 -0.00000000000E+00 -0.00000000000E+00 -0.74505805969E-08  0.93827000000E+00  0.93827000000E+00 0.  1.
     999902    2    1    2    0    0  0.12605739596E-01 -0.54755801461E-02  0.81874306754E-02  0.10279324793E+01  0.10278079885E+01 0.  0.
     999903    2    3    3    0    0 -0.74091033037E-01 -0.40099352977E-01  0.99933974364E-01  0.13825132047E+00  0.45046521441E-01 0.  0.
         14    1    1    2    0    0 -0.12605739596E-01  0.54755801461E-02 -0.81874306754E-02  0.15997520738E-01  0.00000000000E+00 0.  1.
     999901    1    3    3    0    0  0.86696772633E-01  0.34623772831E-01 -0.91746543689E-01  0.88968115879E+00  0.88000000000E+00 0.  1.
        -11    1    4    4    0    0 -0.37143215367E-01 -0.35784920106E-01  0.31720864706E-01  0.60552896987E-01  0.51100000000E-03 0.  1.
         11    1    4    4    0    0 -0.36947817670E-01 -0.43144328708E-02  0.68213109658E-01  0.77698423484E-01  0.51100000000E-03 0. -1.
</event>
<event>
 8    1  0.2190512E+004  0.1043930E+01  0.7957747E-01            NaN
         13   -1    0    0    0    0  0.00000000000E+00  0.00000000000E+00  0.74505805969E-08  0.10566000000E+00  0.10566000000E+00 0.  1.
     999900   -1    0    0    0    0 -0.00000000000E+00 -0.00000000000E+00 -0.74505805969E-08  0.93827000000E+00  0.93827000000E+00 0. -1.
     999902    2    1    2    0    0 -0.57610294533E-02  0.17364047820E-02 -0.11398849226E-01  0.10310405343E+01  0.10309599629E+01 0.  0.
     999903    2    3    3    0    0  0.10890940382E+00  0.28753411922E-01 -0.71997894035E-01  0.14112398139E+00  0.45213542674E-01 0.  0.
         14    1    1    2    0    0  0.57610294533E-02 -0.17364047820E-02  0.11398849226E-01  0.12889465684E-01  0.00000000000E+00 0.  1.
     999901    1    3    3    0    0 -0.11467043327E+00 -0.27017007140E-01  0.60599044808E-01  0.88991655293E+00  0.88000000000E+00 0.  1.
        -11    1    4    4    0    0  0.30270542718E-01  0.28009742709E-01 -0.14563501199E-01  0.43740234696E-01  0.51100000000E-03 0.  1.
         11    1    4    4    0    0  0.78638861099E-01  0.74366921226E-03 -0.57434392836E-01  0.97383746694E-01  0.51100000000E-03 0. -1.
</event>
<event>
 8    1  0.2190512E+004  0.1043930E+01  0.7957747E-01            NaN
         13   -1    0    0    0    0  0.00000000000E+00  0.00000000000E+00  0.74505805969E-08  0.10566000000E+00  0.10566000000E+00 0. -1.
     999900   -1    0    0    0    0 -0.00000000000E+00 -0.00000000000E+00 -0.74505805969E-08  0.93827000000E+00  0.93827000000E+00 0.  1.
     999902    2    1    2    0    0 -0.20550576641E-02  0.14358109486E-01 -0.33388315885E-02  0.10290462382E+01  0.10289385958E+01 0.  0.
     999903    2    3    3    0    0  0.10835607963E+00  0.45396483633E-01 -0.61322907298E-01  0.13971156947E+00  0.44237348072E-01 0.  0.
         14    1    1    2    0    0  0.20550576641E-02 -0.14358109486E-01  0.33388315885E-02  0.14883761836E-01  0.00000000000E+00 0. -1.
     999901    1    3    3    0    0 -0.11041113730E+00 -0.31038374146E-01  0.57984075710E-01  0.88933466870E+00  0.88000000000E+00 0. -1.
        -11    1    4    4    0    0  0.86588518409E-01  0.37050771942E-01 -0.67156793048E-01  0.11567466099E+00  0.51100000000E-03 0.  1.
         11    1    4    4    0    0  0.21767561222E-01  0.83457116910E-02  0.58338857503E-02  0.24036908477E-01  0.51100000000E-03 0. -1.
</event>
<event>
 8    1  0.2190512E+004  0.1043930E+01  0.7957747E-01            NaN
         13   -1    0    0    0    0  0.00000000000E+00  0.00000000000E+00  0.74505805969E-08  0.10566000000E+00  0.10566000000E+00 0. -1.
     999900   -1    0    0    0    0 -0.00000000000E+00 -0.00000000000E+00 -0.74505805969E-08  0.93827000000E+00  0.93827000000E+00 0.  1.
     999902    2    1    2    0    0 -0.55820304150E-02  0.10391333804E-01 -0.53688320542E-02  0.10309699368E+01  0.10308884747E+01 0.  0.
     999903    2    3    3    0    0 -0.11916075234E+00  0.11150712897E-01 -0.60971749805E-01  0.14192978738E+00  0.45857245607E-01 0.  0.
         14    1    1    2    0    0  0.55820304150E-02 -0.10391333804E-01  0.53688320542E-02  0.12960063248E-01  0.00000000000E+00 0. -1.
     999901    1    3    3    0    0  0.11357872193E+00 -0.75937909362E-03  0.55602917751E-01  0.88904014937E+00  0.88000000000E+00 0. -1.
        -11    1    4    4    0    0 -0.88675544746E-01  0.19548335426E-01 -0.25314120499E-01  0.94268528531E-01  0.51100000000E-03 0.  1.
         11    1    4    4    0    0 -0.30485207597E-01 -0.83976225287E-02 -0.35657629306E-01  0.47661258849E-01  0.51100000000E-03 0. -1.
</event>
<event>
 8    1  0.2190512E+004  0.1043930E+01  0.7957747E-01            NaN
         13   -1    0    0    0    0  0.00000000000E+00  0.00000000000E+00  0.74505805969E-08  0.10566000000E+00  0.10566000000E+00 0. -1.
     999900   -1    0    0    0    0 -0.00000000000E+00 -0.00000000000E+00 -0.74505805969E-08  0.93827000000E+00  0.93827000000E+00 0.  1.
     999902    2    1    2    0    0 -0.11550223901E-01  0.16223850371E-02 -0.82489114254E-02  0.10296441908E+01  0.10295450817E+01 0.  0.
     999903    2    3    3    0    0  0.42951634318E-01 -0.11993565114E+00 -0.37235969732E-02  0.13960638980E+00  0.56979606811E-01 0.  0.
         14    1    1    2    0    0  0.11550223901E-01 -0.16223850371E-02  0.82489114254E-02  0.14285809220E-01  0.00000000000E+00 0. -1.
     999901    1    3    3    0    0 -0.54501858219E-01  0.12155803618E+00 -0.45253144522E-02  0.89003780098E+00  0.88000000000E+00 0. -1.
        -11    1    4    4    0    0  0.31781249678E-02 -0.71111077093E-01  0.17222926550E-01  0.73237805016E-01  0.51100000000E-03 0. -1.
         11    1    4    4    0    0  0.39773509350E-01 -0.48824574048E-01 -0.20946523523E-01  0.66368584780E-01  0.51100000000E-03 0.  1.
</event>
<event>
 8    1  0.2190512E+004  0.1043930E+01  0.7957747E-01            NaN
         13   -1    0    0    0    0  0.00000000000E+00  0.00000000000E+00  0.74505805969E-08  0.10566000000E+00  0.10566000000E+00 0. -1.
     999900   -1    0    0    0    0 -0.00000000000E+00 -0.00000000000E+00 -0.74505805969E-08  0.93827000000E+00  0.93827000000E+00 0. -1.
     999902    2    1    2    0    0  0.97416641158E-02  0.12733527573E-02 -0.89727489456E-02  0.10306246751E+01  0.10305387859E+01 0.  0.
     999903    2    3    3    0    0 -0.88463444547E-01  0.89647300187E-01 -0.41990577507E-01  0.14015043350E+00  0.44905633939E-01 0.  0.
         14    1    1    2    0    0 -0.97416641158E-02 -0.12733527573E-02  0.89727489456E-02  0.13305324898E-01  0.00000000000E+00 0. -1.
     999901    1    3    3    0    0  0.98205108662E-01 -0.88373947429E-01  0.33017828562E-01  0.89047424160E+00  0.88000000000E+00 0. -1.
        -11    1    4    4    0    0 -0.60492807721E-01  0.32574166382E-01 -0.11531644707E-01  0.69668472440E-01  0.51100000000E-03 0.  1.
         11    1    4    4    0    0 -0.27970636825E-01  0.57073133805E-01 -0.30458932801E-01  0.70481961061E-01  0.51100000000E-03 0. -1.
</event>
<event>
 8    1  0.2381472E+004  0.1043930E+01  0.7957747E-01            NaN
         13   -1    0    0    0    0  0.00000000000E+00  0.00000000000E+00  0.74505805969E-08  0.10566000000E+00  0.10566000000E+00 0. -1.
     999900   -1    0    0    0    0 -0.00000000000E+00 -0.00000000000E+00 -0.74505805969E-08  0.93827000000E+00  0.93827000000E+00 0. -1.
     999902    2    1    2    0    0 -0.23215388566E-01 -0.55057609979E-02  0.39185129503E-03  0.10200674516E+01  0.10197883038E+01 0.  0.
     999903    2    3    3    0    0 -0.18252362474E-01  0.10497861169E+00  0.61694906854E-01  0.13102892998E+00  0.44818091362E-01 0.  0.
         14    1    1    2    0    0  0.23215388566E-01  0.55057609979E-02 -0.39185129503E-03  0.23862548436E-01  0.00000000000E+00 0.  1.
     999901    1    3    3    0    0 -0.49630260914E-02 -0.11048437268E+00 -0.61303055559E-01  0.88903852158E+00  0.88000000000E+00 0.  1.
        -11    1    4    4    0    0 -0.25304401946E-01  0.28084503583E-01  0.26494615253E-01  0.46165764997E-01  0.51100000000E-03 0.  1.
         11    1    4    4    0    0  0.70520394717E-02  0.76894108102E-01  0.35200291600E-01  0.84863164985E-01  0.51100000000E-03 0. -1.
</event>
<event>
 8    1  0.2190512E+004  0.1043930E+01  0.7957747E-01            NaN
         13   -1    0    0    0    0  0.00000000000E+00  0.00000000000E+00  0.74505805969E-08  0.10566000000E+00  0.10566000000E+00 0.  1.
     999900   -1    0    0    0    0 -0.00000000000E+00 -0.00000000000E+00 -0.74505805969E-08  0.93827000000E+00  0.93827000000E+00 0.  1.
     999902    2    1    2    0    0  0.35131969327E-02 -0.13275467227E-01  0.14688999187E-02  0.10301191981E+01  0.10300266132E+01 0.  0.
     999903    2    3    3    0    0 -0.90507045509E-01 -0.47365676596E-01  0.85230683043E-01  0.14050243526E+00  0.45184426267E-01 0.  0.
         14    1    1    2    0    0 -0.35131969327E-02  0.13275467227E-01 -0.14688999187E-02  0.13810801923E-01  0.00000000000E+00 0. -1.
     999901    1    3    3    0    0  0.94020242442E-01  0.34090209369E-01 -0.83761783125E-01  0.88961676281E+00  0.88000000000E+00 0.  1.
        -11    1    4    4    0    0 -0.37575177003E-01 -0.19824721221E-02  0.12267118943E-01  0.39579886947E-01  0.51100000000E-03 0.  1.
         11    1    4    4    0    0 -0.52931868506E-01 -0.45383204474E-01  0.72963564100E-01  0.10092254832E+00  0.51100000000E-03 0. -1.
</event>
<event>
 8    1  0.3073093E+004  0.1043930E+01  0.7957747E-01            NaN
         13   -1    0    0    0    0  0.00000000000E+00  0.00000000000E+00  0.74505805969E-08  0.10566000000E+00  0.10566000000E+00 0. -1.
     999900   -1    0    0    0    0 -0.00000000000E+00 -0.00000000000E+00 -0.74505805969E-08  0.93827000000E+00  0.93827000000E+00 0.  1.
     999902    2    1    2    0    0 -0.11413816853E-01  0.75059350917E-02 -0.27374835194E-02  0.10299977320E+01  0.10299035002E+01 0.  0.
     999903    2    3    3    0    0  0.57762760325E-01  0.11835948952E+00  0.16026148277E-01  0.14015168728E+00  0.45168050404E-01 0.  0.
         14    1    1    2    0    0  0.11413816853E-01 -0.75059350917E-02  0.27374835194E-02  0.13932268041E-01  0.00000000000E+00 0.  1.
     999901    1    3    3    0    0 -0.69176577178E-01 -0.11085355443E+00 -0.18763631797E-01  0.88984604468E+00  0.88000000000E+00 0.  1.
        -11    1    4    4    0    0  0.33155423282E-01  0.51449367981E-01  0.28927024300E-01  0.67700468348E-01  0.51100000000E-03 0.  1.
         11    1    4    4    0    0  0.24607337043E-01  0.66910121541E-01 -0.12900876022E-01  0.72451218928E-01  0.51100000000E-03 0. -1.
</event>
<event>
 8    1  0.2190512E+004  0.1043930E+01  0.7957747E-01            NaN
         13   -1    0    0    0    0  0.00000000000E+00  0.00000000000E+00  0.74505805969E-08  0.10566000000E+00  0.10566000000E+00 0. -1.
     999900   -1    0    0    0    0 -0.00000000000E+00 -0.00000000000E+00 -0.74505805969E-08  0.93827000000E+00  0.93827000000E+00 0. -1.
     999902    2    1    2    0    0 -0.25485852732E-02 -0.80287752124E-02 -0.10312107867E-01  0.10306147423E+01  0.10305287240E+01 0.  0.
     999903    2    3    3    0    0 -0.11785149766E+00 -0.25920647972E-01  0.56347146925E-01  0.14041345219E+00  0.44498102156E-01 0.  0.
         14    1    1    2    0    0  0.25485852732E-02  0.80287752124E-02  0.10312107867E-01  0.13315257676E-01  0.00000000000E+00 0. -1.
     999901    1    3    3    0    0  0.11530291239E+00  0.17891872760E-01 -0.66659254792E-01  0.89020129014E+00  0.88000000000E+00 0.  1.
        -11    1    4    4    0    0 -0.63626151129E-01  0.54070487748E-02  0.15722134568E-01  0.65764503498E-01  0.51100000000E-03 0. -1.
         11    1    4    4    0    0 -0.54225346533E-01 -0.31327696747E-01  0.40625012357E-01  0.74648948687E-01  0.51100000000E-03 0.  1.
</event>
<event>
 8    1  0.2190512E+004  0.1043930E+01  0.7957747E-01            NaN
         13   -1    0    0    0    0  0.00000000000E+00  0.00000000000E+00  0.74505805969E-08  0.10566000000E+00  0.10566000000E+00 0.  1.
     999900   -1    0    0    0    0 -0.00000000000E+00 -0.00000000000E+00 -0.74505805969E-08  0.93827000000E+00  0.93827000000E+00 0.  1.
     999902    2    1    2    0    0  0.64529565761E-02 -0.90447426775E-02  0.79226672857E-02  0.10302838769E+01  0.10301935014E+01 0.  0.
     999903    2    3    3    0    0  0.45036298575E-02 -0.40338655473E-01  0.12802358126E+00  0.14157282240E+00  0.44780987907E-01 0.  0.
         14    1    1    2    0    0 -0.64529565761E-02  0.90447426775E-02 -0.79226672857E-02  0.13646123098E-01  0.00000000000E+00 0. -1.
     999901    1    3    3    0    0  0.19493267187E-02  0.31293912795E-01 -0.12010091397E+00  0.88871105450E+00  0.88000000000E+00 0.  1.
        -11    1    4    4    0    0 -0.21943976307E-02  0.96835025457E-02  0.22622676293E-01  0.24710973396E-01  0.51100000000E-03 0.  1.
         11    1    4    4    0    0  0.66980274882E-02 -0.50022158019E-01  0.10540090496E+00  0.11686184901E+00  0.51100000000E-03 0. -1.
</event>
<event>
 8    1  0.2190512E+004  0.1043930E+01  0.7957747E-01            NaN
         13   -1    0    0    0    0  0.00000000000E+00  0.00000000000E+00  0.74505805969E-08  0.10566000000E+00  0.10566000000E+00 0. -1.
     999900   -1    0    0    0    0 -0.00000000000E+00 -0.00000000000E+00 -0.74505805969E-08  0.93827000000E+00  0.93827000000E+00 0. -1.
     999902    2    1    2    0    0 -0.10860010897E-01  0.84132509068E-02 -0.14683631107E-02  0.10301141136E+01  0.10300214601E+01 0.  0.
     999903    2    3    3    0    0  0.63808392462E-01 -0.72958320511E-01  0.88107043307E-01  0.13869925139E+00  0.45609250974E-01 0.  0.
         14    1    1    2    0    0  0.10860010897E-01 -0.84132509068E-02  0.14683631107E-02  0.13815886426E-01  0.00000000000E+00 0.  1.
     999901    1    3    3    0    0 -0.74668403358E-01  0.81371571418E-01 -0.89575406418E-01  0.89141486219E+00  0.88000000000E+00 0.  1.
        -11    1    4    4    0    0  0.42890392139E-01 -0.67427062777E-01  0.85281618193E-01  0.11687262321E+00  0.51100000000E-03 0. -1.
         11    1    4    4    0    0  0.20918000323E-01 -0.55312577346E-02  0.28254251144E-02  0.21826628180E-01  0.51100000000E-03 0.  1.
</event>
<event>
 8    1  0.2190512E+004  0.1043930E+01  0.7957747E-01            NaN
         13   -1    0    0    0    0  0.00000000000E+00  0.00000000000E+00  0.74505805969E-08  0.10566000000E+00  0.10566000000E+00 0.  1.
     999900   -1    0    0    0    0 -0.00000000000E+00 -0.00000000000E+00 -0.74505805969E-08  0.93827000000E+00  0.93827000000E+00 0. -1.
     999902    2    1    2    0    0  0.78961841372E-02  0.87545754236E-02 -0.27282140126E-02  0.10318289477E+01  0.10317579861E+01 0.  0.
     999903    2    3    3    0    0 -0.30721919235E-01  0.13140808940E+00  0.16362488967E-01  0.14227866957E+00  0.41994838833E-01 0.  0.
         14    1    1    2    0    0 -0.78961841372E-02 -0.87545754236E-02  0.27282140126E-02  0.12101052288E-01  0.00000000000E+00 0. -1.
     999901    1    3    3    0    0  0.38618103373E-01 -0.12265351398E+00 -0.19090702980E-01  0.88955027814E+00  0.88000000000E+00 0.  1.
        -11    1    4    4    0    0  0.52099651101E-02  0.47273639476E-01 -0.64284924961E-02  0.47995076441E-01  0.51100000000E-03 0. -1.
         11    1    4    4    0    0 -0.35931884346E-01  0.84134449924E-01  0.22790981464E-01  0.94283593131E-01  0.51100000000E-03 0.  1.
</event>
<event>
 8    1  0.2190512E+004  0.1043930E+01  0.7957747E-01            NaN
         13   -1    0    0    0    0  0.00000000000E+00  0.00000000000E+00  0.74505805969E-08  0.10566000000E+00  0.10566000000E+00 0. -1.
     999900   -1    0    0    0    0 -0.00000000000E+00 -0.00000000000E+00 -0.74505805969E-08  0.93827000000E+00  0.93827000000E+00 0.  1.
     999902    2    1    2    0    0 -0.15043620217E-02  0.95992240916E-03  0.13594226361E-01  0.10302191449E+01  0.10301279042E+01 0.  0.
     999903    2    3    3    0    0 -0.97153665398E-01 -0.50316071884E-01 -0.73659391411E-01  0.13926953321E+00  0.44718621932E-01 0.  0.
         14    1    1    2    0    0  0.15043620217E-02 -0.95992240916E-03 -0.13594226361E-01  0.13710855060E-01  0.00000000000E+00 0.  1.
     999901    1    3    3    0    0  0.95649303376E-01  0.51275994294E-01  0.87253617772E-01  0.89094961173E+00  0.88000000000E+00 0. -1.
        -11    1    4    4    0    0 -0.55075972756E-01 -0.78883720862E-02 -0.50631647056E-01  0.75229076784E-01  0.51100000000E-03 0. -1.
         11    1    4    4    0    0 -0.42077692642E-01 -0.42427699798E-01 -0.23027744355E-01  0.64040456426E-01  0.51100000000E-03 0.  1.
</event>
<event>
 8    1  0.2190512E+004  0.1043930E+01  0.7957747E-01            NaN
         13   -1    0    0    0    0  0.00000000000E+00  0.00000000000E+00  0.74505805969E-08  0.10566000000E+00  0.10566000000E+00 0. -1.
     999900   -1    0    0    0    0 -0.00000000000E+00 -0.00000000000E+00 -0.74505805969E-08  0.93827000000E+00  0.93827000000E+00 0. -1.
     999902    2    1    2    0    0  0.12211352960E-01  0.93290223879E-02  0.12607908078E-02  0.10285112649E+01  0.10283956848E+01 0.  0.
     999903    2    3    3    0    0  0.43810796562E-01 -0.15378000876E-01  0.11782744605E+00  0.13991869965E+00  0.59481649792E-01 0.  0.
         14    1    1    2    0    0 -0.12211352960E-01 -0.93290223879E-02 -0.12607908078E-02  0.15418735139E-01  0.00000000000E+00 0.  1.
     999901    1    3    3    0    0 -0.31599443602E-01  0.24707023264E-01 -0.11656665524E+00  0.88859256521E+00  0.88000000000E+00 0. -1.
        -11    1    4    4    0    0  0.16095746035E-01  0.11913056328E-01  0.89714653994E-01  0.91923741295E-01  0.51100000000E-03 0.  1.
         11    1    4    4    0    0  0.27715050527E-01 -0.27291057205E-01  0.28112792058E-01  0.47994958354E-01  0.51100000000E-03 0. -1.
</event>
<event>
 8    1  0.2190512E+004  0.1043930E+01  0.7957747E-01            NaN
         13   -1    0    0    0    0  0.00000000000E+00  0.00000000000E+00  0.74505805969E-08  0.10566000000E+00  0.10566000000E+00 0.  1.
     999900   -1    0    0    0    0 -0.00000000000E+00 -0.00000000000E+00 -0.74505805969E-08  0.93827000000E+00  0.93827000000E+00 0. -1.
     999902    2    1    2    0    0  0.42605583917E-02 -0.11519340380E-01  0.91876093099E-02  0.10285918213E+01  0.10284774549E+01 0.  0.
     999903    2    3    3    0    0 -0.60529327552E-01  0.81970706269E-01 -0.79423101262E-01  0.13685756932E+00  0.45154945320E-01 0.  0.
         14    1    1    2    0    0 -0.42605583917E-02  0.11519340380E-01 -0.91876093099E-02  0.15338178687E-01  0.00000000000E+00 0. -1.
     999901    1    3    3    0    0  0.64789885943E-01 -0.93490046650E-01  0.88610710572E-01  0.89173425199E+00  0.88000000000E+00 0.  1.
        -11    1    4    4    0    0 -0.32473164573E-01  0.35011482892E-01 -0.64313260529E-01  0.80104724908E-01  0.51100000000E-03 0.  1.
         11    1    4    4    0    0 -0.28056162978E-01  0.46959223377E-01 -0.15109840733E-01  0.56752844416E-01  0.51100000000E-03 0. -1.
</event>
<event>
 8    1  0.2190512E+004  0.1043930E+01  0.7957747E-01            NaN
         13   -1    0    0    0    0  0.00000000000E+00  0.00000000000E+00  0.74505805969E-08  0.10566000000E+00  0.10566000000E+00 0. -1.
     999900   -1    0    0    0    0 -0.00000000000E+00 -0.00000000000E+00 -0.74505805969E-08  0.93827000000E+00  0.93827000000E+00 0.  1.
     999902    2    1    2    0    0 -0.12510148706E-01 -0.57529645106E-02 -0.43866462821E-02  0.10294785957E+01  0.10293771592E+01 0.  0.
     999903    2    3    3    0    0 -0.16303757874E-03  0.87254717758E-01 -0.98976630791E-01  0.13945042461E+00  0.45129094056E-01 0.  0.
         14    1    1    2    0    0  0.12510148706E-01  0.57529645106E-02  0.43866462821E-02  0.14451404323E-01  0.00000000000E+00 0. -1.
     999901    1    3    3    0    0 -0.12347111127E-01 -0.93007682268E-01  0.94589984509E-01  0.89002817106E+00  0.88000000000E+00 0. -1.
        -11    1    4    4    0    0  0.18389225863E-01  0.53313345647E-01 -0.75360601594E-01  0.94127349083E-01  0.51100000000E-03 0.  1.
         11    1    4    4    0    0 -0.18552263442E-01  0.33941372111E-01 -0.23616029198E-01  0.45323075532E-01  0.51100000000E-03 0. -1.
</event>
<event>
 8    1  0.2190512E+004  0.1043930E+01  0.7957747E-01            NaN
         13   -1    0    0    0    0  0.00000000000E+00  0.00000000000E+00  0.74505805969E-08  0.10566000000E+00  0.10566000000E+00 0. -1.
     999900   -1    0    0    0    0 -0.00000000000E+00 -0.00000000000E+00 -0.74505805969E-08  0.93827000000E+00  0.93827000000E+00 0.  1.
     999902    2    1    2    0    0  0.13074191980E-01  0.68426684031E-02 -0.63027181539E-02  0.10278837898E+01  0.10277585341E+01 0.  0.
     999903    2    3    3    0    0  0.17832698446E-02  0.78707249717E-01 -0.99084091091E-01  0.14002097033E+00  0.59918309515E-01 0.  0.
         14    1    1    2    0    0 -0.13074191980E-01 -0.68426684031E-02  0.63027181539E-02  0.16046210236E-01  0.00000000000E+00 0. -1.
     999901    1    3    3    0    0  0.11290922136E-01 -0.71864581314E-01  0.92781372937E-01  0.88786281943E+00  0.88000000000E+00 0. -1.
        -11    1    4    4    0    0  0.19126394231E-01  0.49876216970E-01 -0.25680662087E-01  0.59272367101E-01  0.51100000000E-03 0.  1.
         11    1    4    4    0    0 -0.17343124387E-01  0.28831032748E-01 -0.73403429004E-01  0.80748603228E-01  0.51100000000E-03 0. -1.
</event>
<event>
 8    1  0.2190512E+004  0.1043930E+01  0.7957747E-01            NaN
         13   -1    0    0    0    0  0.00000000000E+00  0.00000000000E+00  0.74505805969E-08  0.10566000000E+00  0.10566000000E+00 0. -1.
     999900   -1    0    0    0    0 -0.00000000000E+00 -0.00000000000E+00 -0.74505805969E-08  0.93827000000E+00  0.93827000000E+00 0.  1.
     999902    2    1    2    0    0  0.19774161821E-02  0.89426941036E-02 -0.10200874451E-01  0.10302208865E+01  0.10301296691E+01 0.  0.
     999903    2    3    3    0    0  0.11936791611E+00 -0.55584344229E-01 -0.15048048202E-01  0.14007047045E+00  0.45331823448E-01 0.  0.
         14    1    1    2    0    0 -0.19774161821E-02 -0.89426941036E-02  0.10200874451E-01  0.13709113471E-01  0.00000000000E+00 0. -1.
     999901    1    3    3    0    0 -0.11739049993E+00  0.64527038332E-01  0.48471737510E-02  0.89015041608E+00  0.88000000000E+00 0. -1.
        -11    1    4    4    0    0  0.59054637824E-01 -0.20922944056E-01 -0.29129251166E-01  0.69094096932E-01  0.51100000000E-03 0.  1.
         11    1    4    4    0    0  0.60313278290E-01 -0.34661400173E-01  0.14081202963E-01  0.70976373519E-01  0.51100000000E-03 0. -1.
</event>
<event>
 8    1  0.2190512E+004  0.1043930E+01  0.7957747E-01            NaN
         13   -1    0    0    0    0  0.00000000000E+00  0.00000000000E+00  0.74505805969E-08  0.10566000000E+00  0.10566000000E+00 0. -1.
     999900   -1    0    0    0    0 -0.00000000000E+00 -0.00000000000E+00 -0.74505805969E-08  0.93827000000E+00  0.93827000000E+00 0.  1.
     999902    2    1    2    0    0 -0.31266116935E-02 -0.12174847534E-01 -0.50520384109E-02  0.10303828341E+01  0.10302937732E+01 0.  0.
     999903    2    3    3    0    0 -0.82686382194E-01 -0.87407928186E-01 -0.59774897144E-01  0.14190978169E+00  0.45696434217E-01 0.  0.
         14    1    1    2    0    0  0.31266116935E-02  0.12174847534E-01  0.50520384109E-02  0.13547165949E-01  0.00000000000E+00 0. -1.
     999901    1    3    3    0    0  0.79559770501E-01  0.75233080652E-01  0.54722858733E-01  0.88847305236E+00  0.88000000000E+00 0. -1.
        -11    1    4    4    0    0 -0.36737043918E-01 -0.70936930107E-01 -0.36520317454E-01  0.87838790730E-01  0.51100000000E-03 0.  1.
         11    1    4    4    0    0 -0.45949338276E-01 -0.16470998079E-01 -0.23254579691E-01  0.54070990959E-01  0.51100000000E-03 0. -1.
</event>
<event>
 8    1  0.2190512E+004  0.1043930E+01  0.7957747E-01            NaN
         13   -1    0    0    0    0  0.00000000000E+00  0.00000000000E+00  0.74505805969E-08  0.10566000000E+00  0.10566000000E+00 0. -1.
     999900   -1    0    0    0    0 -0.00000000000E+00 -0.00000000000E+00 -0.74505805969E-08  0.93827000000E+00  0.93827000000E+00 0. -1.
     999902    2    1    2    0    0  0.47405223358E-02  0.12656502732E-01 -0.43870465206E-02  0.10297206443E+01  0.10296226005E+01 0.  0.
     999903    2    3    3    0    0 -0.11288092364E+00  0.44426585938E-01 -0.54123532695E-01  0.13993535510E+00  0.44008207844E-01 0.  0.
         14    1    1    2    0    0 -0.47405223358E-02 -0.12656502732E-01  0.43870465206E-02  0.14209355742E-01  0.00000000000E+00 0.  1.
     999901    1    3    3    0    0  0.11762144597E+00 -0.31770083206E-01  0.49736486175E-01  0.88978528915E+00  0.88000000000E+00 0.  1.
        -11    1    4    4    0    0 -0.50446064225E-01  0.27552987181E-01 -0.48147983949E-01  0.74983077942E-01  0.51100000000E-03 0.  1.
         11    1    4    4    0    0 -0.62434859410E-01  0.16873598757E-01 -0.59755487469E-02  0.64952277161E-01  0.51100000000E-03 0. -1.
</event>
<event>
 8    1  0.2190512E+004  0.1043930E+01  0.7957747E-01            NaN
         13   -1    0    0    0    0  0.00000000000E+00  0.00000000000E+00  0.74505805969E-08  0.10566000000E+00  0.10566000000E+00 0.  1.
     999900   -1    0    0    0    0 -0.00000000000E+00 -0.00000000000E+00 -0.74505805969E-08  0.93827000000E+00  0.93827000000E+00 0.  1.
     999902    2    1    2    0    0 -0.47527376478E-02  0.11414901048E-01  0.66052631150E-02  0.10299115129E+01  0.10298161032E+01 0.  0.
     999903    2    3    3    0    0  0.10245941261E+00  0.47955110207E-01  0.69225911881E-01  0.14044483124E+00  0.46204977197E-01 0.  0.
         14    1    1    2    0    0  0.47527376478E-02 -0.11414901048E-01 -0.66052631150E-02  0.14018487148E-01  0.00000000000E+00 0. -1.
     999901    1    3    3    0    0 -0.10721215026E+00 -0.36540209158E-01 -0.62620648766E-01  0.88946668161E+00  0.88000000000E+00 0.  1.
        -11    1    4    4    0    0  0.85258023729E-01  0.18222212415E-01  0.56067156874E-01  0.10365696714E+00  0.51100000000E-03 0. -1.
         11    1    4    4    0    0  0.17201388884E-01  0.29732897792E-01  0.13158755007E-01  0.36787864099E-01  0.51100000000E-03 0.  1.
</event>
<event>
 8    1  0.2190512E+004  0.1043930E+01  0.7957747E-01            NaN
         13   -1    0    0    0    0  0.00000000000E+00  0.00000000000E+00  0.74505805969E-08  0.10566000000E+00  0.10566000000E+00 0.  1.
     999900   -1    0    0    0    0 -0.00000000000E+00 -0.00000000000E+00 -0.74505805969E-08  0.93827000000E+00  0.93827000000E+00 0.  1.
     999902    2    1    2    0    0  0.12727059530E-01  0.82083256897E-02 -0.46967015145E-02  0.10280739709E+01  0.10279516895E+01 0.  0.
     999903    2    3    3    0    0  0.13910744785E-01 -0.90285055253E-01  0.92033329096E-01  0.13731078908E+00  0.45157713740E-01 0.  0.
         14    1    1    2    0    0 -0.12727059530E-01 -0.82083256897E-02  0.46967015145E-02  0.15856029138E-01  0.00000000000E+00 0.  1.
     999901    1    3    3    0    0 -0.11836852552E-02  0.98493380943E-01 -0.96730030610E-01  0.89076318178E+00  0.88000000000E+00 0.  1.
        -11    1    4    4    0    0  0.20853280110E-01 -0.87956723561E-01  0.93246586980E-01  0.12987082665E+00  0.51100000000E-03 0.  1.
         11    1    4    4    0    0 -0.69425353249E-02 -0.23283316922E-02 -0.12132578839E-02  0.74399624259E-02  0.51100000000E-03 0. -1.
</event>
<event>
 8    1  0.2190512E+004  0.1043930E+01  0.7957747E-01            NaN
         13   -1    0    0    0    0  0.00000000000E+00  0.00000000000E+00  0.74505805969E-08  0.10566000000E+00  0.10566000000E+00 0.  1.
     999900   -1    0    0    0    0 -0.00000000000E+00 -0.00000000000E+00 -0.74505805969E-08  0.93827000000E+00  0.93827000000E+00 0. -1.
     999902    2    1    2    0    0 -0.12746102835E-02 -0.58219422897E-02  0.11673065221E-01  0.10308235094E+01  0.10307401843E+01 0.  0.
     999903    2    3    3    0    0  0.12923602690E+00 -0.97683765684E-03 -0.29422822254E-01  0.14023641463E+00  0.45800050857E-01 0.  0.
         14    1    1    2    0    0  0.12746102835E-02  0.58219422897E-02 -0.11673065221E-01  0.13106490569E-01  0.00000000000E+00 0. -1.
     999901    1    3    3    0    0 -0.13051063718E+00 -0.48451046329E-02  0.41095887475E-01  0.89058709480E+00  0.88000000000E+00 0.  1.
        -11    1    4    4    0    0  0.59048994129E-01 -0.23142249441E-01 -0.11151484031E-01  0.64396926432E-01  0.51100000000E-03 0. -1.
         11    1    4    4    0    0  0.70187032771E-01  0.22165411785E-01 -0.18271338224E-01  0.75839488199E-01  0.51100000000E-03 0.  1.
</event>
<event>
 8    1  0.2190512E+004  0.1043930E+01  0.7957747E-01            NaN
         13   -1    0    0    0    0  0.00000000000E+00  0.00000000000E+00  0.74505805969E-08  0.10566000000E+00  0.10566000000E+00 0. -1.
     999900   -1    0    0    0    0 -0.00000000000E+00 -0.00000000000E+00 -0.74505805969E-08  0.93827000000E+00  0.93827000000E+00 0.  1.
     999902    2    1    2    0    0 -0.77779706172E-02  0.17766969583E-02  0.10578453974E-01  0.10306802012E+01  0.10305950320E+01 0.  0.
     999903    2    3    3    0    0 -0.12009657715E+00  0.59113815089E-01 -0.97073819960E-02  0.14145889602E+00  0.44707438104E-01 0.  0.
         14    1    1    2    0    0  0.77779706172E-02 -0.17766969583E-02 -0.10578453974E-01  0.13249798771E-01  0.00000000000E+00 0.  1.
     999901    1    3    3    0    0  0.11231860653E+00 -0.57337118131E-01  0.20285835970E-01  0.88922130520E+00  0.88000000000E+00 0.  1.
        -11    1    4    4    0    0 -0.64917434555E-01  0.53203663182E-01  0.48782265463E-02  0.84077115200E-01  0.51100000000E-03 0.  1.
         11    1    4    4    0    0 -0.55179142594E-01  0.59101519078E-02 -0.14585608542E-01  0.57381780824E-01  0.51100000000E-03 0. -1.
</event>
<event>
 8    1  0.2190512E+004  0.1043930E+01  0.7957747E-01            NaN
         13   -1    0    0    0    0  0.00000000000E+00  0.00000000000E+00  0.74505805969E-08  0.10566000000E+00  0.10566000000E+00 0.  1.
     999900   -1    0    0    0    0 -0.00000000000E+00 -0.00000000000E+00 -0.74505805969E-08  0.93827000000E+00  0.93827000000E+00 0.  1.
     999902    2    1    2    0    0  0.27032459299E-02 -0.11488193186E-01  0.53918924224E-02  0.10309546917E+01  0.10308730367E+01 0.  0.
     999903    2    3    3    0    0 -0.92469323306E-01 -0.67277536280E-01 -0.68425659134E-01  0.14100003014E+00  0.46066202698E-01 0.  0.
         14    1    1    2    0    0 -0.27032459299E-02  0.11488193186E-01 -0.53918924224E-02  0.12975308286E-01  0.00000000000E+00 0. -1.
     999901    1    3    3    0    0  0.95172569236E-01  0.55789343094E-01  0.73817551557E-01  0.88995466157E+00  0.88000000000E+00 0. -1.
        -11    1    4    4    0    0 -0.68363826090E-01 -0.56608219399E-01 -0.72133054340E-01  0.11437456829E+00  0.51100000000E-03 0. -1.
         11    1    4    4    0    0 -0.24105497216E-01 -0.10669316881E-01  0.37073952060E-02  0.26625461854E-01  0.51100000000E-03 0.  1.
</event>
<event>
 8    1  0.2190512E+004  0.1043930E+01  0.7957747E-01            NaN
         13   -1    0    0    0    0  0.00000000000E+00  0.00000000000E+00  0.74505805969E-08  0.10566000000E+00  0.10566000000E+00 0.  1.
     999900   -1    0    0    0    0 -0.00000000000E+00 -0.00000000000E+00 -0.74505805969E-08  0.93827000000E+00  0.93827000000E+00 0. -1.
     999902    2    1    2    0    0 -0.86742737480E-02  0.89156774385E-02  0.73586704470E-03  0.10314691080E+01  0.10313938370E+01 0.  0.
     999903    2    3    3    0    0 -0.43640205715E-01 -0.48100453230E-01  0.11659262118E+00  0.14135886593E+00  0.46587213992E-01 0.  0.
         14    1    1    2    0    0  0.86742737480E-02 -0.89156774385E-02 -0.73586704470E-03  0.12460892005E-01  0.00000000000E+00 0. -1.
     999901    1    3    3    0    0  0.34965931967E-01  0.57016130668E-01 -0.11585675413E+00  0.89011024207E+00  0.88000000000E+00 0. -1.
        -11    1    4    4    0    0 -0.18238564718E-02 -0.95475067281E-02  0.61182134645E-01  0.61951562191E-01  0.51100000000E-03 0.  1.
         11    1    4    4    0    0 -0.41816349243E-01 -0.38552946502E-01  0.55410486533E-01  0.79407303737E-01  0.51100000000E-03 0. -1.
</event>
<event>
 8    1  0.2190512E+004  0.1043930E+01  0.7957747E-01            NaN
         13   -1    0    0    0    0  0.00000000000E+00  0.00000000000E+00  0.74505805969E-08  0.10566000000E+00  0.10566000000E+00 0. -1.
     999900   -1    0    0    0    0 -0.00000000000E+00 -0.00000000000E+00 -0.74505805969E-08  0.93827000000E+00  0.93827000000E+00 0.  1.
     999902    2    1    2    0    0  0.13672414518E-01 -0.30257099122E-03 -0.24931198854E-02  0.10300288448E+01  0.10299350363E+01 0.  0.
     999903    2    3    3    0    0 -0.11762347927E+00  0.30169415671E-01 -0.49313774263E-01  0.13853609256E+00  0.44887905853E-01 0.  0.
         14    1    1    2    0    0 -0.13672414518E-01  0.30257099122E-03  0.24931198854E-02  0.13901155157E-01  0.00000000000E+00 0.  1.
     999901    1    3    3    0    0  0.13129589379E+00 -0.30471986662E-01  0.46820654378E-01  0.89149275228E+00  0.88000000000E+00 0. -1.
        -11    1    4    4    0    0 -0.37562287972E-01  0.18021620296E-01  0.35712429312E-02  0.41817689712E-01  0.51100000000E-03 0. -1.
         11    1    4    4    0    0 -0.80061191299E-01  0.12147795374E-01 -0.52885017194E-01  0.96718402847E-01  0.51100000000E-03 0.  1.
</event>
<event>
 8    1  0.2190512E+004  0.1043930E+01  0.7957747E-01            NaN
         13   -1    0    0    0    0  0.00000000000E+00  0.00000000000E+00  0.74505805969E-08  0.10566000000E+00  0.10566000000E+00 0.  1.
     999900   -1    0    0    0    0 -0.00000000000E+00 -0.00000000000E+00 -0.74505805969E-08  0.93827000000E+00  0.93827000000E+00 0.  1.
     999902    2    1    2    0    0  0.11252485784E-01  0.53013884218E-02  0.49854535440E-02  0.10305293320E+01  0.10304421994E+01 0.  0.
     999903    2    3    3    0    0 -0.58214449185E-01  0.24939169949E-01  0.11701753166E+00  0.14049422931E+00  0.45107000141E-01 0.  0.
         14    1    1    2    0    0 -0.11252485784E-01 -0.53013884218E-02 -0.49854535440E-02  0.13400667989E-01  0.00000000000E+00 0. -1.
     999901    1    3    3    0    0  0.69466934969E-01 -0.19637781527E-01 -0.11203207811E+00  0.89003510270E+00  0.88000000000E+00 0.  1.
        -11    1    4    4    0    0 -0.28723365099E-01 -0.97355637246E-02  0.32230069668E-01  0.44258913401E-01  0.51100000000E-03 0. -1.
         11    1    4    4    0    0 -0.29491084086E-01  0.34674733673E-01  0.84787461990E-01  0.96235315907E-01  0.51100000000E-03 0.  1.
</event>
<event>
 8    1  0.2190512E+004  0.1043930E+01  0.7957747E-01            NaN
         13   -1    0    0    0    0  0.00000000000E+00  0.00000000000E+00  0.74505805969E-08  0.10566000000E+00  0.10566000000E+00 0.  1.
     999900   -1    0    0    0    0 -0.00000000000E+00 -0.00000000000E+00 -0.74505805969E-08  0.93827000000E+00  0.93827000000E+00 0. -1.
     999902    2    1    2    0    0 -0.10542283019E-01  0.74666206351E-02  0.18381092171E-02  0.10308812912E+01  0.10307987038E+01 0.  0.
     999903    2    3    3    0    0 -0.60140999730E-01 -0.11709989255E+00 -0.20340263063E-01  0.14044952568E+00  0.44531093390E-01 0.  0.
         14    1    1    2    0    0  0.10542283019E-01 -0.74666206351E-02 -0.18381092171E-02  0.13048708766E-01  0.00000000000E+00 0.  1.
     999901    1    3    3    0    0  0.49598716711E-01  0.12456651319E+00  0.22178372280E-01  0.89043176555E+00  0.88000000000E+00 0. -1.
        -11    1    4    4    0    0 -0.41030149508E-01 -0.64687333875E-01  0.94820532472E-02  0.77188695981E-01  0.51100000000E-03 0. -1.
         11    1    4    4    0    0 -0.19110850222E-01 -0.52412558678E-01 -0.29822316310E-01  0.63260829701E-01  0.51100000000E-03 0.  1.
</event>
<event>
 8    1  0.2190512E+004  0.1043930E+01  0.7957747E-01            NaN
         13   -1    0    0    0    0  0.00000000000E+00  0.00000000000E+00  0.74505805969E-08  0.10566000000E+00  0.10566000000E+00 0. -1.
     999900   -1    0    0    0    0 -0.00000000000E+00 -0.00000000000E+00 -0.74505805969E-08  0.93827000000E+00  0.93827000000E+00 0.  1.
     999902    2    1    2    0    0 -0.30634972049E-02 -0.12089038497E-01 -0.51868051169E-02  0.10304232308E+01  0.10303347038E+01 0.  0.
     999903    2    3    3    0    0  0.20499949552E-01 -0.13276923578E+00 -0.45080020342E-02  0.14187418499E+00  0.45387711790E-01 0.  0.
         14    1    1    2    0    0  0.30634972049E-02  0.12089038497E-01  0.51868051169E-02  0.13506769200E-01  0.00000000000E+00 0. -1.
     999901    1    3    3    0    0 -0.23563446757E-01  0.12068019729E+00 -0.67880308262E-03  0.88854904581E+00  0.88000000000E+00 0.  1.
        -11    1    4    4    0    0 -0.12262971002E-01 -0.25391067914E-01  0.68879975742E-02  0.29030887330E-01  0.51100000000E-03 0. -1.
         11    1    4    4    0    0  0.32762920553E-01 -0.10737816787E+00 -0.11395999608E-01  0.11284329766E+00  0.51100000000E-03 0.  1.
</event>
<event>
 8    1  0.2190512E+004  0.1043930E+01  0.7957747E-01            NaN
         13   -1    0    0    0    0  0.00000000000E+00  0.00000000000E+00  0.74505805969E-08  0.10566000000E+00  0.10566000000E+00 0.  1.
     999900   -1    0    0    0    0 -0.00000000000E+00 -0.00000000000E+00 -0.74505805969E-08  0.93827000000E+00  0.93827000000E+00 0.  1.
     999902    2    1    2    0    0 -0.37186905444E-02  0.11196058789E-01  0.67342005535E-02  0.10303458236E+01  0.10302562722E+01 0.  0.
     999903    2    3    3    0    0 -0.11571765178E+00 -0.36844879872E-01 -0.52727773953E-01  0.13995971323E+00  0.45391442746E-01 0.  0.
         14    1    1    2    0    0  0.37186905444E-02 -0.11196058789E-01 -0.67342005535E-02  0.13584176415E-01  0.00000000000E+00 0.  1.
     999901    1    3    3    0    0  0.11199896124E+00  0.48040938661E-01  0.59461974507E-01  0.89038611036E+00  0.88000000000E+00 0.  1.
        -11    1    4    4    0    0 -0.39988390853E-01 -0.26101779786E-01 -0.12708884543E-02  0.47772906437E-01  0.51100000000E-03 0. -1.
         11    1    4    4    0    0 -0.75729260927E-01 -0.10743100086E-01 -0.51456885499E-01  0.92186806790E-01  0.51100000000E-03 0.  1.
</event>
<event>
 8    1  0.2190512E+004  0.1043930E+01  0.7957747E-01            NaN
         13   -1    0    0    0    0  0.00000000000E+00  0.00000000000E+00  0.74505805969E-08  0.10566000000E+00  0.10566000000E+00 0. -1.
     999900   -1    0    0    0    0 -0.00000000000E+00 -0.00000000000E+00 -0.74505805969E-08  0.93827000000E+00  0.93827000000E+00 0. -1.
     999902    2    1    2    0    0 -0.11265542045E-01 -0.49116787098E-02  0.86767955105E-02  0.10288859379E+01  0.10287759471E+01 0.  0.
     999903    2    3    3    0    0 -0.12325527082E+00 -0.32664304897E-01  0.39571605517E-01  0.14081702336E+00  0.44773915476E-01 0.  0.
         14    1    1    2    0    0  0.11265542045E-01  0.49116787098E-02 -0.86767955105E-02  0.15044062139E-01  0.00000000000E+00 0.  1.
     999901    1    3    3    0    0  0.11198972877E+00  0.27752626187E-01 -0.30894810006E-01  0.88806891450E+00  0.88000000000E+00 0.  1.
        -11    1    4    4    0    0 -0.60263285956E-01  0.36963894624E-02  0.30108137060E-01  0.67469163086E-01  0.51100000000E-03 0.  1.
         11    1    4    4    0    0 -0.62991984862E-01 -0.36360694359E-01  0.94634684564E-02  0.73347860278E-01  0.51100000000E-03 0. -1.
</event>
<event>
 8    1  0.2190512E+004  0.1043930E+01  0.7957747E-01            NaN
         13   -1    0    0    0    0  0.00000000000E+00  0.00000000000E+00  0.74505805969E-08  0.10566000000E+00  0.10566000000E+00 0. -1.
     999900   -1    0    0    0    0 -0.00000000000E+00 -0.00000000000E+00 -0.74505805969E-08  0.93827000000E+00  0.93827000000E+00 0.  1.
     999902    2    1    2    0    0 -0.12509339547E-01 -0.14646720467E-02  0.38216223232E-02  0.10307681750E+01  0.10306841402E+01 0.  0.
     999903    2    3    3    0    0 -0.10282242721E+00 -0.86392133328E-01  0.99473517003E-02  0.14205750665E+00  0.45225359597E-01 0.  0.
         14    1    1    2    0    0  0.12509339547E-01  0.14646720467E-02 -0.38216223232E-02  0.13161824998E-01  0.00000000000E+00 0.  1.
     999901    1    3    3    0    0  0.90313087666E-01  0.84927461281E-01 -0.61257293770E-02  0.88871066835E+00  0.88000000000E+00 0.  1.
        -11    1    4    4    0    0 -0.45017357408E-01 -0.49012634640E-01 -0.16072319955E-01  0.68464453639E-01  0.51100000000E-03 0. -1.
         11    1    4    4    0    0 -0.57805069805E-01 -0.37379498688E-01  0.26019671655E-01  0.73593053011E-01  0.51100000000E-03 0.  1.
</event>
<event>
 8    1  0.2190512E+004  0.1043930E+01  0.7957747E-01            NaN
         13   -1    0    0    0    0  0.00000000000E+00  0.00000000000E+00  0.74505805969E-08  0.10566000000E+00  0.10566000000E+00 0.  1.
     999900   -1    0    0    0    0 -0.00000000000E+00 -0.00000000000E+00 -0.74505805969E-08  0.93827000000E+00  0.93827000000E+00 0. -1.
     999902    2    1    2    0    0 -0.12765564499E-01  0.32384372698E-02  0.40762903222E-02  0.10301436569E+01  0.10300514019E+01 0.  0.
     999903    2    3    3    0    0 -0.58208714379E-01 -0.94094224923E-01 -0.73399561708E-01  0.14023285540E+00  0.45119624125E-01 0.  0.
         14    1    1    2    0    0  0.12765564499E-01 -0.32384372698E-02 -0.40762903222E-02  0.13786343088E-01  0.00000000000E+00 0. -1.
     999901    1    3    3    0    0  0.45443149880E-01  0.97332662193E-01  0.77475852031E-01  0.88991080151E+00  0.88000000000E+00 0. -1.
        -11    1    4    4    0    0 -0.36021599890E-01 -0.22152758055E-01 -0.14722362704E-01  0.44780681468E-01  0.51100000000E-03 0. -1.
         11    1    4    4    0    0 -0.22187114489E-01 -0.71941466868E-01 -0.58677199004E-01  0.95452173932E-01  0.51100000000E-03 0.  1.
</event>
<event>
 8    1  0.2190512E+004  0.1043930E+01  0.7957747E-01            NaN
         13   -1    0    0    0    0  0.00000000000E+00  0.00000000000E+00  0.74505805969E-08  0.10566000000E+00  0.10566000000E+00 0. -1.
     999900   -1    0    0    0    0 -0.00000000000E+00 -0.00000000000E+00 -0.74505805969E-08  0.93827000000E+00  0.93827000000E+00 0.  1.
     999902    2    1    2    0    0  0.11555059331E-01  0.44838740499E-02  0.69252526140E-02  0.10297319844E+01  0.10296340982E+01 0.  0.
     999903    2    3    3    0    0  0.13289789898E+00 -0.88166329418E-03 -0.15128653378E-01  0.14111550444E+00  0.44967550051E-01 0.  0.
         14    1    1    2    0    0 -0.11555059331E-01 -0.44838740499E-02 -0.69252526140E-02  0.14198015580E-01  0.00000000000E+00 0.  1.
     999901    1    3    3    0    0 -0.12134283965E+00  0.53655373441E-02  0.22053905992E-01  0.88861647998E+00  0.88000000000E+00 0. -1.
        -11    1    4    4    0    0  0.76710014352E-01  0.60509396853E-02 -0.29979791129E-01  0.82583831166E-01  0.51100000000E-03 0.  1.
         11    1    4    4    0    0  0.56187884625E-01 -0.69326029795E-02  0.14851137751E-01  0.58531673273E-01  0.51100000000E-03 0. -1.
</event>
<event>
 8    1  0.2190512E+004  0.1043930E+01  0.7957747E-01            NaN
         13   -1    0    0    0    0  0.00000000000E+00  0.00000000000E+00  0.74505805969E-08  0.10566000000E+00  0.10566000000E+00 0. -1.
     999900   -1    0    0    0    0 -0.00000000000E+00 -0.00000000000E+00 -0.74505805969E-08  0.93827000000E+00  0.93827000000E+00 0. -1.
     999902    2    1    2    0    0 -0.64180748915E-03  0.41940783470E-02 -0.13529495668E-01  0.10297508088E+01  0.10296531837E+01 0.  0.
     999903    2    3    3    0    0  0.11586512010E-02  0.12582570493E+00  0.40022369029E-01  0.13977030539E+00  0.45831187553E-01 0.  0.
         14    1    1    2    0    0  0.64180748915E-03 -0.41940783470E-02  0.13529495668E-01  0.14179191199E-01  0.00000000000E+00 0. -1.
     999901    1    3    3    0    0 -0.18004586901E-02 -0.12163162658E+00 -0.53551864697E-01  0.88998050341E+00  0.88000000000E+00 0. -1.
        -11    1    4    4    0    0 -0.19925440788E-01  0.73963730820E-01  0.13356899686E-01  0.77758115703E-01  0.51100000000E-03 0. -1.
         11    1    4    4    0    0  0.21084091989E-01  0.51861974111E-01  0.26665469343E-01  0.62012189689E-01  0.51100000000E-03 0.  1.
</event>
<event>
 8    1  0.2190512E+004  0.1043930E+01  0.7957747E-01            NaN
         13   -1    0    0    0    0  0.00000000000E+00  0.00000000000E+00  0.74505805969E-08  0.10566000000E+00  0.10566000000E+00 0.  1.
     999900   -1    0    0    0    0 -0.00000000000E+00 -0.00000000000E+00 -0.74505805969E-08  0.93827000000E+00  0.93827000000E+00 0. -1.
     999902    2    1    2    0    0 -0.71176393667E-02  0.11564883320E-01  0.22648827676E-02  0.10301627559E+01  0.10300707581E+01 0.  0.
     999903    2    3    3    0    0  0.95288243114E-01  0.51520544659E-01  0.76724767276E-01  0.14020337815E+00  0.45122960145E-01 0.  0.
         14    1    1    2    0    0  0.71176393667E-02 -0.11564883320E-01 -0.22648827676E-02  0.13767244107E-01  0.00000000000E+00 0. -1.
     999901    1    3    3    0    0 -0.10240588248E+00 -0.39955661339E-01 -0.74459884508E-01  0.88995937775E+00  0.88000000000E+00 0. -1.
        -11    1    4    4    0    0  0.34231551282E-01  0.18125642019E-03  0.39196566737E-01  0.52042904628E-01  0.51100000000E-03 0.  1.
         11    1    4    4    0    0  0.61056691831E-01  0.51339288239E-01  0.37528200538E-01  0.88160473518E-01  0.51100000000E-03 0. -1.
</event>
<event>
 8    1  0.2190512E+004  0.1043930E+01  0.7957747E-01            NaN
         13   -1    0    0    0    0  0.00000000000E+00  0.00000000000E+00  0.74505805969E-08  0.10566000000E+00  0.10566000000E+00 0. -1.
     999900   -1    0    0    0    0 -0.00000000000E+00 -0.00000000000E+00 -0.74505805969E-08  0.93827000000E+00  0.93827000000E+00 0. -1.
     999902    2    1    2    0    0 -0.77413712805E-02 -0.16314396814E-02  0.12279827340E-01  0.10293223108E+01  0.10292186526E+01 0.  0.
     999903    2    3    3    0    0  0.12321782406E+00  0.18382122307E-01  0.41577420503E-01  0.13892397157E+00  0.45284140643E-01 0.  0.
         14    1    1    2    0    0  0.77413712805E-02  0.16314396814E-02 -0.12279827340E-01  0.14607689216E-01  0.00000000000E+00 0.  1.
     999901    1    3    3    0    0 -0.13095919534E+00 -0.20013561989E-01 -0.29297593164E-01  0.89039833921E+00  0.88000000000E+00 0. -1.
        -11    1    4    4    0    0  0.72709806316E-01  0.19852887213E-01  0.31472620858E-02  0.75438845729E-01  0.51100000000E-03 0. -1.
         11    1    4    4    0    0  0.50508017747E-01 -0.14707649060E-02  0.38430158418E-01  0.63485125842E-01  0.51100000000E-03 0.  1.
</event>
<event>
 8    1  0.2190512E+004  0.1043930E+01  0.7957747E-01            NaN
         13   -1    0    0    0    0  0.00000000000E+00  0.00000000000E+00  0.74505805969E-08  0.10566000000E+00  0.10566000000E+00 0. -1.
     999900   -1    0    0    0    0 -0.00000000000E+00 -0.00000000000E+00 -0.74505805969E-08  0.93827000000E+00  0.93827000000E+00 0. -1.
     999902    2    1    2    0    0  0.45925825611E-02 -0.12619290233E-01  0.88152046731E-03  0.10304720886E+01  0.10303842051E+01 0.  0.
     999903    2    3    3    0    0  0.10558425319E+00 -0.80574537090E-01  0.20499846440E-01  0.14187650466E+00  0.45479757259E-01 0.  0.
         14    1    1    2    0    0 -0.45925825611E-02  0.12619290233E-01 -0.88152046731E-03  0.13457911387E-01  0.00000000000E+00 0.  1.
     999901    1    3    3    0    0 -0.10099167063E+00  0.67955246857E-01 -0.19618325973E-01  0.88859558396E+00  0.88000000000E+00 0.  1.
        -11    1    4    4    0    0  0.70856861185E-01 -0.28624390125E-01  0.10502750171E-02  0.76429148142E-01  0.51100000000E-03 0. -1.
         11    1    4    4    0    0  0.34727392006E-01 -0.51950146966E-01  0.19449571423E-01  0.65447356515E-01  0.51100000000E-03 0.  1.
</event>
<event>
 8    1  0.2190512E+004  0.1043930E+01  0.7957747E-01            NaN
         13   -1    0    0    0    0  0.00000000000E+00  0.00000000000E+00  0.74505805969E-08  0.10566000000E+00  0.10566000000E+00 0.  1.
     999900   -1    0    0    0    0 -0.00000000000E+00 -0.00000000000E+00 -0.74505805969E-08  0.93827000000E+00  0.93827000000E+00 0. -1.
     999902    2    1    2    0    0  0.73682696031E-02 -0.78103936863E-02 -0.78265895612E-02  0.10306428201E+01  0.10305571665E+01 0.  0.
     999903    2    3    3    0    0  0.18433126850E-02  0.70349290798E-01 -0.11379301739E+00  0.14082916246E+00  0.43949763080E-01 0.  0.
         14    1    1    2    0    0 -0.73682696031E-02  0.78103936863E-02  0.78265895612E-02  0.13287179936E-01  0.00000000000E+00 0.  1.
     999901    1    3    3    0    0  0.55249569181E-02 -0.78159684484E-01  0.10596642783E+00  0.88981365760E+00  0.88000000000E+00 0.  1.
        -11    1    4    4    0    0  0.12925157191E-01  0.18914263912E-01 -0.11145446536E-01  0.25481192422E-01  0.51100000000E-03 0.  1.
         11    1    4    4    0    0 -0.11081844506E-01  0.51435026886E-01 -0.10264757086E+00  0.11534797004E+00  0.51100000000E-03 0. -1.
</event>
<event>
 8    1  0.2190512E+004  0.1043930E+01  0.7957747E-01            NaN
         13   -1    0    0    0    0  0.00000000000E+00  0.00000000000E+00  0.74505805969E-08  0.10566000000E+00  0.10566000000E+00 0.  1.
     999900   -1    0    0    0    0 -0.00000000000E+00 -0.00000000000E+00 -0.74505805969E-08  0.93827000000E+00  0.93827000000E+00 0.  1.
     999902    2    1    2    0    0  0.22432970510E-02  0.59830010904E-02 -0.12056989872E-01  0.10302844993E+01  0.10301941321E+01 0.  0.
     999903    2    3    3    0    0  0.29051331844E-01  0.72372982053E-01 -0.10963993021E+00  0.14200034967E+00  0.45402165090E-01 0.  0.
         14    1    1    2    0    0 -0.22432970510E-02 -0.59830010904E-02  0.12056989872E-01  0.13645500668E-01  0.00000000000E+00 0.  1.
     999901    1    3    3    0    0 -0.26808034793E-01 -0.66389980963E-01  0.97582940342E-01  0.88828414967E+00  0.88000000000E+00 0. -1.
        -11    1    4    4    0    0  0.12684399773E-02  0.25846631670E-01 -0.70642123510E-01  0.75234487063E-01  0.51100000000E-03 0.  1.
         11    1    4    4    0    0  0.27782891866E-01  0.46526350383E-01 -0.38997806704E-01  0.66765862603E-01  0.51100000000E-03 0. -1.
</event>
<event>
 8    1  0.2190512E+004  0.1043930E+01  0.7957747E-01            NaN
         13   -1    0    0    0    0  0.00000000000E+00  0.00000000000E+00  0.74505805969E-08  0.10566000000E+00  0.10566000000E+00 0. -1.
     999900   -1    0    0    0    0 -0.00000000000E+00 -0.00000000000E+00 -0.74505805969E-08  0.93827000000E+00  0.93827000000E+00 0. -1.
     999902    2    1    2    0    0  0.56321589207E-03  0.10968391113E-01 -0.90506454230E-02  0.10296984506E+01  0.10296000982E+01 0.  0.
     999903    2    3    3    0    0 -0.11595031762E+00 -0.33528447521E-01 -0.55418141200E-01  0.13969546364E+00  0.43301492306E-01 0.  0.
         14    1    1    2    0    0 -0.56321589207E-03 -0.10968391113E-01  0.90506454230E-02  0.14231549400E-01  0.00000000000E+00 0. -1.
     999901    1    3    3    0    0  0.11651353352E+00  0.44496838634E-01  0.46367495778E-01  0.89000298696E+00  0.88000000000E+00 0.  1.
        -11    1    4    4    0    0 -0.51981749816E-01 -0.43329072098E-02 -0.34887663165E-02  0.52281057853E-01  0.51100000000E-03 0.  1.
         11    1    4    4    0    0 -0.63968567808E-01 -0.29195540311E-01 -0.51929374884E-01  0.87414405783E-01  0.51100000000E-03 0. -1.
</event>
<event>
 8    1  0.2190512E+004  0.1043930E+01  0.7957747E-01            NaN
         13   -1    0    0    0    0  0.00000000000E+00  0.00000000000E+00  0.74505805969E-08  0.10566000000E+00  0.10566000000E+00 0. -1.
     999900   -1    0    0    0    0 -0.00000000000E+00 -0.00000000000E+00 -0.74505805969E-08  0.93827000000E+00  0.93827000000E+00 0. -1.
     999902    2    1    2    0    0  0.39029817516E-02  0.60902939019E-02 -0.10070929805E-01  0.10315304608E+01  0.10314559336E+01 0.  0.
     999903    2    3    3    0    0 -0.56643432914E-01  0.81084875908E-01  0.89722375491E-01  0.14066079608E+00  0.44182794121E-01 0.  0.
         14    1    1    2    0    0 -0.39029817516E-02 -0.60902939019E-02  0.10070929805E-01  0.12399539245E-01  0.00000000000E+00 0. -1.
     999901    1    3    3    0    0  0.60546414666E-01 -0.74994582006E-01 -0.99793305296E-01  0.89086966468E+00  0.88000000000E+00 0.  1.
        -11    1    4    4    0    0 -0.37795934418E-01  0.79232766049E-01  0.63658844614E-01  0.10843926177E+00  0.51100000000E-03 0. -1.
         11    1    4    4    0    0 -0.18847498496E-01  0.18521098583E-02  0.26063530877E-01  0.32221534310E-01  0.51100000000E-03 0.  1.
</event>
<event>
 8    1  0.2190512E+004  0.1043930E+01  0.7957747E-01            NaN
         13   -1    0    0    0    0  0.00000000000E+00  0.00000000000E+00  0.74505805969E-08  0.10566000000E+00  0.10566000000E+00 0.  1.
     999900   -1    0    0    0    0 -0.00000000000E+00 -0.00000000000E+00 -0.74505805969E-08  0.93827000000E+00  0.93827000000E+00 0. -1.
     999902    2    1    2    0    0  0.78394838924E-02 -0.79287280701E-02 -0.85234296226E-02  0.10298953611E+01  0.10297997299E+01 0.  0.
     999903    2    3    3    0    0  0.57492089298E-01  0.10643548229E+00 -0.58366987688E-01  0.13971058583E+00  0.38451141985E-01 0.  0.
         14    1    1    2    0    0 -0.78394838924E-02  0.79287280701E-02  0.85234296226E-02  0.14034638900E-01  0.00000000000E+00 0.  1.
     999901    1    3    3    0    0 -0.49652605406E-01 -0.11436421036E+00  0.49843558065E-01  0.89018477527E+00  0.88000000000E+00 0.  1.
        -11    1    4    4    0    0  0.14470589115E-01  0.64438084490E-01 -0.22884408058E-01  0.69897224088E-01  0.51100000000E-03 0.  1.
         11    1    4    4    0    0  0.43021500184E-01  0.41997397801E-01 -0.35482579630E-01  0.69813361746E-01  0.51100000000E-03 0. -1.
</event>
<event>
 8    1  0.2190512E+004  0.1043930E+01  0.7957747E-01            NaN
         13   -1    0    0    0    0  0.00000000000E+00  0.00000000000E+00  0.74505805969E-08  0.10566000000E+00  0.10566000000E+00 0. -1.
     999900   -1    0    0    0    0 -0.00000000000E+00 -0.00000000000E+00 -0.74505805969E-08  0.93827000000E+00  0.93827000000E+00 0.  1.
     999902    2    1    2    0    0 -0.75317927085E-02 -0.13862894207E-02  0.11866913090E-01  0.10298064974E+01  0.10297096429E+01 0.  0.
     999903    2    3    3    0    0 -0.63071422556E-01 -0.10893378469E+00 -0.41567503505E-01  0.13991529556E+00  0.44764481372E-01 0.  0.
         14    1    1    2    0    0  0.75317927085E-02  0.13862894207E-02 -0.11866913090E-01  0.14123502612E-01  0.00000000000E+00 0.  1.
     999901    1    3    3    0    0  0.55539629847E-01  0.10754749527E+00  0.53434416595E-01  0.88989120183E+00  0.88000000000E+00 0. -1.
        -11    1    4    4    0    0 -0.32575899738E-01 -0.19838601299E-01 -0.33735979940E-02  0.38293623878E-01  0.51100000000E-03 0. -1.
         11    1    4    4    0    0 -0.30495522818E-01 -0.89095183391E-01 -0.38193905511E-01  0.10162167168E+00  0.51100000000E-03 0.  1.
</event>
<event>
 8    1  0.2190512E+004  0.1043930E+01  0.7957747E-01            NaN
         13   -1    0    0    0    0  0.00000000000E+00  0.00000000000E+00  0.74505805969E-08  0.10566000000E+00  0.10566000000E+00 0. -1.
     999900   -1    0    0    0    0 -0.00000000000E+00 -0.00000000000E+00 -0.74505805969E-08  0.93827000000E+00  0.93827000000E+00 0.  1.
     999902    2    1    2    0    0 -0.14451729074E-01 -0.29310025169E-02 -0.56109345272E-03  0.10291733718E+01  0.10290675737E+01 0.  0.
     999903    2    3    3    0    0 -0.97069548409E-01  0.73106758814E-01 -0.54850739219E-01  0.14037935134E+00  0.43939313585E-01 0.  0.
         14    1    1    2    0    0  0.14451729074E-01  0.29310025169E-02  0.56109345272E-03  0.14756628166E-01  0.00000000000E+00 0.  1.
     999901    1    3    3    0    0  0.82617819335E-01 -0.76037761331E-01  0.54289645766E-01  0.88879402049E+00  0.88000000000E+00 0.  1.
        -11    1    4    4    0    0 -0.32972105563E-01  0.89112580153E-02 -0.32047991428E-01  0.46839141113E-01  0.51100000000E-03 0. -1.
         11    1    4    4    0    0 -0.64097442846E-01  0.64195500799E-01 -0.22802747791E-01  0.93540210231E-01  0.51100000000E-03 0.  1.
</event>
<event>
 8    1  0.2190512E+004  0.1043930E+01  0.7957747E-01            NaN
         13   -1    0    0    0    0  0.00000000000E+00  0.00000000000E+00  0.74505805969E-08  0.10566000000E+00  0.10566000000E+00 0. -1.
     999900   -1    0    0    0    0 -0.00000000000E+00 -0.00000000000E+00 -0.74505805969E-08  0.93827000000E+00  0.93827000000E+00 0.  1.
     999902    2    1    2    0    0  0.15361980655E-01  0.70523926997E-04 -0.24973421239E-03  0.10285658277E+01  0.10284510704E+01 0.  0.
     999903    2    3    3    0    0 -0.90771085691E-01  0.47310250781E-01  0.77679012028E-01  0.13751660961E+00  0.48981008390E-01 0.  0.
         14    1    1    2    0    0 -0.15361980655E-01 -0.70523926997E-04  0.24973421239E-03  0.15364172300E-01  0.00000000000E+00 0. -1.
     999901    1    3    3    0    0  0.10613306635E+00 -0.47239726854E-01 -0.77928746241E-01  0.89104921809E+00  0.88000000000E+00 0.  1.
        -11    1    4    4    0    0 -0.85033161366E-01  0.51766493028E-01  0.82063312276E-01  0.12901572259E+00  0.51100000000E-03 0. -1.
         11    1    4    4    0    0 -0.57379243248E-02 -0.44562422469E-02 -0.43843002476E-02  0.85008870232E-02  0.51100000000E-03 0.  1.
</event>
<event>
 8    1  0.2190512E+004  0.1043930E+01  0.7957747E-01            NaN
         13   -1    0    0    0    0  0.00000000000E+00  0.00000000000E+00  0.74505805969E-08  0.10566000000E+00  0.10566000000E+00 0.  1.
     999900   -1    0    0    0    0 -0.00000000000E+00 -0.00000000000E+00 -0.74505805969E-08  0.93827000000E+00  0.93827000000E+00 0.  1.
     999902    2    1    2    0    0 -0.51341598347E-02 -0.11627519686E-01  0.70282665376E-02  0.10294056982E+01  0.10293032285E+01 0.  0.
     999903    2    3    3    0    0 -0.67246410846E-01 -0.91159129446E-01  0.71755037382E-01  0.14127689928E+00  0.44478199449E-01 0.  0.
         14    1    1    2    0    0  0.51341598347E-02  0.11627519686E-01 -0.70282665376E-02  0.14524301766E-01  0.00000000000E+00 0.  1.
     999901    1    3    3    0    0  0.62112251011E-01  0.79531609759E-01 -0.64726770844E-01  0.88812879896E+00  0.88000000000E+00 0.  1.
        -11    1    4    4    0    0 -0.29449961892E-01 -0.14664487141E-01  0.35979382684E-01  0.48755764150E-01  0.51100000000E-03 0. -1.
         11    1    4    4    0    0 -0.37796448954E-01 -0.76494642304E-01  0.35775654698E-01  0.92521135125E-01  0.51100000000E-03 0.  1.
</event>
<event>
 8    1  0.2190512E+004  0.1043930E+01  0.7957747E-01            NaN
         13   -1    0    0    0    0  0.00000000000E+00  0.00000000000E+00  0.74505805969E-08  0.10566000000E+00  0.10566000000E+00 0. -1.
     999900   -1    0    0    0    0 -0.00000000000E+00 -0.00000000000E+00 -0.74505805969E-08  0.93827000000E+00  0.93827000000E+00 0. -1.
     999902    2    1    2    0    0 -0.24067412536E-02  0.92643158973E-02 -0.11340211175E-01  0.10290901772E+01  0.10289831740E+01 0.  0.
     999903    2    3    3    0    0 -0.35377410447E-01 -0.11133034996E+00  0.56920793753E-01  0.13763647491E+00  0.45363140007E-01 0.  0.
         14    1    1    2    0    0  0.24067412536E-02 -0.92643158973E-02  0.11340211175E-01  0.14839822843E-01  0.00000000000E+00 0. -1.
     999901    1    3    3    0    0  0.32970669194E-01  0.12059466586E+00 -0.68261004928E-01  0.89145370225E+00  0.88000000000E+00 0. -1.
        -11    1    4    4    0    0 -0.45713456729E-01 -0.10008899327E+00  0.49986855779E-01  0.12085724460E+00  0.51100000000E-03 0. -1.
         11    1    4    4    0    0  0.10336046282E-01 -0.11241356688E-01  0.69339379736E-02  0.16779230308E-01  0.51100000000E-03 0.  1.
</event>
<event>
 8    1  0.2190512E+004  0.1043930E+01  0.7957747E-01            NaN
         13   -1    0    0    0    0  0.00000000000E+00  0.00000000000E+00  0.74505805969E-08  0.10566000000E+00  0.10566000000E+00 0. -1.
     999900   -1    0    0    0    0 -0.00000000000E+00 -0.00000000000E+00 -0.74505805969E-08  0.93827000000E+00  0.93827000000E+00 0.  1.
     999902    2    1    2    0    0 -0.12928247139E-01  0.41878269756E-02 -0.53912815906E-02  0.10293100347E+01  0.10292062010E+01 0.  0.
     999903    2    3    3    0    0 -0.22773765051E-02 -0.31687442616E-01  0.12704761476E+00  0.13861337628E+00  0.45423465337E-01 0.  0.
         14    1    1    2    0    0  0.12928247139E-01 -0.41878269756E-02  0.53912815906E-02  0.14619965323E-01  0.00000000000E+00 0.  1.
     999901    1    3    3    0    0 -0.10650870634E-01  0.35875269592E-01 -0.13243889635E+00  0.89069665840E+00  0.88000000000E+00 0.  1.
        -11    1    4    4    0    0  0.16527008344E-01 -0.15208962097E-01  0.96768492407E-01  0.99342119852E-01  0.51100000000E-03 0.  1.
         11    1    4    4    0    0 -0.18804384849E-01 -0.16478480519E-01  0.30279122356E-01  0.39271256427E-01  0.51100000000E-03 0. -1.
</event>
<event>
 8    1  0.2190512E+004  0.1043930E+01  0.7957747E-01            NaN
         13   -1    0    0    0    0  0.00000000000E+00  0.00000000000E+00  0.74505805969E-08  0.10566000000E+00  0.10566000000E+00 0. -1.
     999900   -1    0    0    0    0 -0.00000000000E+00 -0.00000000000E+00 -0.74505805969E-08  0.93827000000E+00  0.93827000000E+00 0.  1.
     999902    2    1    2    0    0  0.10547575450E-01  0.84675204463E-02  0.69269805158E-02  0.10287335100E+01  0.10286212623E+01 0.  0.
     999903    2    3    3    0    0  0.11217574654E-01  0.10641154643E+00  0.78723040347E-01  0.14039339754E+00  0.45428380979E-01 0.  0.
         14    1    1    2    0    0 -0.10547575450E-01 -0.84675204463E-02 -0.69269805158E-02  0.15196490037E-01  0.00000000000E+00 0. -1.
     999901    1    3    3    0    0 -0.66999920381E-03 -0.97944025981E-01 -0.71796059831E-01  0.88834011242E+00  0.88000000000E+00 0.  1.
        -11    1    4    4    0    0  0.10219653629E-01  0.11024851689E+00  0.70532296261E-01  0.13127925478E+00  0.51100000000E-03 0. -1.
         11    1    4    4    0    0  0.99792102463E-03 -0.38369704660E-02  0.81907440864E-02  0.91141427692E-02  0.51100000000E-03 0.  1.
</event>
<event>
 8    1  0.2190512E+004  0.1043930E+01  0.7957747E-01            NaN
         13   -1    0    0    0    0  0.00000000000E+00  0.00000000000E+00  0.74505805969E-08  0.10566000000E+00  0.10566000000E+00 0.  1.
     999900   -1    0    0    0    0 -0.00000000000E+00 -0.00000000000E+00 -0.74505805969E-08  0.93827000000E+00  0.93827000000E+00 0.  1.
     999902    2    1    2    0    0  0.89603752593E-02 -0.11642474776E-02 -0.11170826469E-01  0.10295622876E+01  0.10294620308E+01 0.  0.
     999903    2    3    3    0    0  0.29065143627E-01  0.36225110167E-01  0.12204540302E+00  0.13852428075E+00  0.46226126574E-01 0.  0.
         14    1    1    2    0    0 -0.89603752593E-02  0.11642474776E-02  0.11170826469E-01  0.14367712448E-01  0.00000000000E+00 0.  1.
     999901    1    3    3    0    0 -0.20104768368E-01 -0.37389357645E-01 -0.13321622948E+00  0.89103800681E+00  0.88000000000E+00 0.  1.
        -11    1    4    4    0    0  0.33580262472E-01  0.34140825842E-01  0.62347571107E-01  0.78617496531E-01  0.51100000000E-03 0.  1.
         11    1    4    4    0    0 -0.45151188444E-02  0.20842843250E-02  0.59697831908E-01  0.59906784214E-01  0.51100000000E-03 0. -1.
</event>
<event>
 7    1  0.2190512E+004  0.1043930E+01  0.7957747E-01            NaN
         13   -1    0    0    0    0  0.00000000000E+00  0.00000000000E+00  0.74505805969E-08  0.10566000000E+00  0.10566000000E+00 0. -1.
     999900   -1    0    0    0    0 -0.00000000000E+00 -0.00000000000E+00 -0.74505805969E-08  0.93827000000E+00  0.93827000000E+00 0. -1.
     999903    2    1    2    0    0  0.89601925126E-01  0.79419237368E-02  0.66081195910E-01  0.11966051798E+00  0.43131612193E-01 0.  0.
         14    1    1    2    0    0 -0.91102917671E-02 -0.21309497049E-01  0.27028272690E-01  0.35603645953E-01  0.00000000000E+00 0. -1.
     999901    1    1    2    0    0 -0.80491633359E-01  0.13367573312E-01 -0.93109468600E-01  0.88866583607E+00  0.88000000000E+00 0. -1.
        -11    1    3    3    0    0  0.62736680600E-01  0.11357952831E-01  0.21110480615E-01  0.67162546840E-01  0.51100000000E-03 0. -1.
         11    1    3    3    0    0  0.26865244527E-01 -0.34160290945E-02  0.44970715295E-01  0.52497971136E-01  0.51100000000E-03 0.  1.
</event>
<event>
 8    1  0.2190512E+004  0.1043930E+01  0.7957747E-01            NaN
         13   -1    0    0    0    0  0.00000000000E+00  0.00000000000E+00  0.74505805969E-08  0.10566000000E+00  0.10566000000E+00 0.  1.
     999900   -1    0    0    0    0 -0.00000000000E+00 -0.00000000000E+00 -0.74505805969E-08  0.93827000000E+00  0.93827000000E+00 0.  1.
     999902    2    1    2    0    0  0.85347669347E-02 -0.10664623058E-01  0.28151389478E-03  0.10302678010E+01  0.10301772110E+01 0.  0.
     999903    2    3    3    0    0 -0.83970180785E-01 -0.10284696702E+00 -0.11388076142E-01  0.14055384178E+00  0.44690091452E-01 0.  0.
         14    1    1    2    0    0 -0.85347669347E-02  0.10664623058E-01 -0.28151389478E-03  0.13662199006E-01  0.00000000000E+00 0.  1.
     999901    1    3    3    0    0  0.92504947719E-01  0.92182343964E-01  0.11669590037E-01  0.88971395922E+00  0.88000000000E+00 0.  1.
        -11    1    4    4    0    0 -0.19497198788E-01 -0.20892301921E-01  0.15980562405E-01  0.32745511691E-01  0.51100000000E-03 0. -1.
         11    1    4    4    0    0 -0.64472981997E-01 -0.81954665101E-01 -0.27368638548E-01  0.10780833009E+00  0.51100000000E-03 0.  1.
</event>
<event>
 8    1  0.2190512E+004  0.1043930E+01  0.7957747E-01            NaN
         13   -1    0    0    0    0  0.00000000000E+00  0.00000000000E+00  0.74505805969E-08  0.10566000000E+00  0.10566000000E+00 0.  1.
     999900   -1    0    0    0    0 -0.00000000000E+00 -0.00000000000E+00 -0.74505805969E-08  0.93827000000E+00  0.93827000000E+00 0. -1.
     999902    2    1    2    0    0  0.54205124011E-02  0.29074696688E-02 -0.12911043759E-01  0.10296285880E+01  0.10295292608E+01 0.  0.
     999903    2    3    3    0    0 -0.13074531415E+00 -0.91283931941E-02  0.84451395339E-02  0.13881879860E+00  0.44963026238E-01 0.  0.
         14    1    1    2    0    0 -0.54205124011E-02 -0.29074696688E-02  0.12911043759E-01  0.14301412011E-01  0.00000000000E+00 0.  1.
     999901    1    3    3    0    0  0.13616582655E+00  0.12035862863E-01 -0.21356183292E-01  0.89080978939E+00  0.88000000000E+00 0. -1.
        -11    1    4    4    0    0 -0.10845745544E+00  0.37635859682E-02  0.20402777991E-01  0.11042517236E+00  0.51100000000E-03 0. -1.
         11    1    4    4    0    0 -0.22287858709E-01 -0.12891979162E-01 -0.11957638457E-01  0.28393626240E-01  0.51100000000E-03 0.  1.
</event>
<event>
 8    1  0.2190512E+004  0.1043930E+01  0.7957747E-01            NaN
         13   -1    0    0    0    0  0.00000000000E+00  0.00000000000E+00  0.74505805969E-08  0.10566000000E+00  0.10566000000E+00 0. -1.
     999900   -1    0    0    0    0 -0.00000000000E+00 -0.00000000000E+00 -0.74505805969E-08  0.93827000000E+00  0.93827000000E+00 0. -1.
     999902    2    1    2    0    0 -0.59559074349E-02  0.90959398531E-02  0.85367925501E-02  0.10301066219E+01  0.10300138672E+01 0.  0.
     999903    2    3    3    0    0  0.12706254841E+00  0.32241854760E-01  0.17672426600E-01  0.13976224876E+00  0.45130290365E-01 0.  0.
         14    1    1    2    0    0  0.59559074349E-02 -0.90959398531E-02 -0.85367925501E-02  0.13823378105E-01  0.00000000000E+00 0.  1.
     999901    1    3    3    0    0 -0.13301845584E+00 -0.23145914907E-01 -0.91356340497E-02  0.89034437314E+00  0.88000000000E+00 0.  1.
        -11    1    4    4    0    0  0.91862195096E-02 -0.40113731707E-02  0.12898550088E-01  0.16343544871E-01  0.51100000000E-03 0.  1.
         11    1    4    4    0    0  0.11787632890E+00  0.36253227930E-01  0.47738765119E-02  0.12341870388E+00  0.51100000000E-03 0. -1.
</event>
<event>
 8    1  0.2190512E+004  0.1043930E+01  0.7957747E-01            NaN
         13   -1    0    0    0    0  0.00000000000E+00  0.00000000000E+00  0.74505805969E-08  0.10566000000E+00  0.10566000000E+00 0. -1.
     999900   -1    0    0    0    0 -0.00000000000E+00 -0.00000000000E+00 -0.74505805969E-08  0.93827000000E+00  0.93827000000E+00 0.  1.
     999902    2    1    2    0    0  0.23096818785E-02  0.41584567545E-02  0.13350680637E-01  0.10297572068E+01  0.10296596704E+01 0.  0.
     999903    2    3    3    0    0  0.98920662135E-01  0.83292767977E-01 -0.26843400333E-01  0.14003169586E+00  0.46533053937E-01 0.  0.
         14    1    1    2    0    0 -0.23096818785E-02 -0.41584567545E-02 -0.13350680637E-01  0.14172793177E-01  0.00000000000E+00 0.  1.
     999901    1    3    3    0    0 -0.96610980257E-01 -0.79134311223E-01  0.40194080970E-01  0.88972551097E+00  0.88000000000E+00 0. -1.
        -11    1    4    4    0    0  0.27198669080E-01  0.44807248143E-01  0.49371331102E-02  0.52650674167E-01  0.51100000000E-03 0.  1.
         11    1    4    4    0    0  0.71721993055E-01  0.38485519834E-01 -0.31780533443E-01  0.87381021691E-01  0.51100000000E-03 0. -1.
</event>
<event>
 8    1  0.2190512E+004  0.1043930E+01  0.7957747E-01            NaN
         13   -1    0    0    0    0  0.00000000000E+00  0.00000000000E+00  0.74505805969E-08  0.10566000000E+00  0.10566000000E+00 0.  1.
     999900   -1    0    0    0    0 -0.00000000000E+00 -0.00000000000E+00 -0.74505805969E-08  0.93827000000E+00  0.93827000000E+00 0. -1.
     999902    2    1    2    0    0 -0.69746134466E-02  0.10507600936E-01 -0.50911212001E-02  0.10303294697E+01  0.10302397011E+01 0.  0.
     999903    2    3    3    0    0 -0.12106030828E+00  0.58405535890E-01  0.12575957274E-02  0.14165063896E+00  0.44682402680E-01 0.  0.
         14    1    1    2    0    0  0.69746134466E-02 -0.10507600936E-01  0.50911212001E-02  0.13600530329E-01  0.00000000000E+00 0. -1.
     999901    1    3    3    0    0  0.11408569483E+00 -0.47897934953E-01 -0.63487169275E-02  0.88867883071E+00  0.88000000000E+00 0. -1.
        -11    1    4    4    0    0 -0.64528412634E-01  0.49524124582E-01  0.15193736097E-01  0.82750623504E-01  0.51100000000E-03 0.  1.
         11    1    4    4    0    0 -0.56531895644E-01  0.88814113073E-02 -0.13936140369E-01  0.58900015461E-01  0.51100000000E-03 0. -1.
</event>
<event>
 7    1  0.2190512E+004  0.1043930E+01  0.7957747E-01            NaN
         13   -1    0    0    0    0  0.00000000000E+00  0.00000000000E+00  0.74505805969E-08  0.10566000000E+00  0.10566000000E+00 0.  1.
     999900   -1    0    0    0    0 -0.00000000000E+00 -0.00000000000E+00 -0.74505805969E-08  0.93827000000E+00  0.93827000000E+00 0.  1.
     999903    2    1    2    0    0 -0.35226923881E-01 -0.60046050783E-01 -0.31789736897E-01  0.89135896097E-01  0.45696347998E-01 0.  0.
         14    1    1    2    0    0 -0.71043337768E-02 -0.61426626758E-01 -0.16918992115E-01  0.64108925489E-01  0.00000000000E+00 0.  1.
     999901    1    1    2    0    0  0.42331257658E-01  0.12147267754E+00  0.48708729012E-01  0.89068517841E+00  0.88000000000E+00 0. -1.
        -11    1    3    3    0    0  0.75821515610E-02 -0.38968675481E-02 -0.13870328613E-01  0.16288699635E-01  0.51100000000E-03 0.  1.
         11    1    3    3    0    0 -0.42809075442E-01 -0.56149183235E-01 -0.17919408284E-01  0.72847196462E-01  0.51100000000E-03 0. -1.
</event>
<event>
 8    1  0.2190512E+004  0.1043930E+01  0.7957747E-01            NaN
         13   -1    0    0    0    0  0.00000000000E+00  0.00000000000E+00  0.74505805969E-08  0.10566000000E+00  0.10566000000E+00 0.  1.
     999900   -1    0    0    0    0 -0.00000000000E+00 -0.00000000000E+00 -0.74505805969E-08  0.93827000000E+00  0.93827000000E+00 0.  1.
     999902    2    1    2    0    0 -0.34792224032E-02  0.12902499367E-01 -0.14974737143E-02  0.10304829964E+01  0.10303952562E+01 0.  0.
     999903    2    3    3    0    0  0.83873295452E-01  0.93198512611E-02  0.10331628329E+00  0.13996111491E+00  0.42347018521E-01 0.  0.
         14    1    1    2    0    0  0.34792224032E-02 -0.12902499367E-01  0.14974737143E-02  0.13447003606E-01  0.00000000000E+00 0. -1.
     999901    1    3    3    0    0 -0.87352517855E-01  0.35826481058E-02 -0.10481375700E+00  0.89052188148E+00  0.88000000000E+00 0.  1.
        -11    1    4    4    0    0  0.37322568885E-01  0.21012705018E-01  0.68010855875E-01  0.80375652770E-01  0.51100000000E-03 0.  1.
         11    1    4    4    0    0  0.46550726567E-01 -0.11692853757E-01  0.35305427411E-01  0.59585462141E-01  0.51100000000E-03 0. -1.
</event>
<event>
 8    1  0.2190512E+004  0.1043930E+01  0.7957747E-01            NaN
         13   -1    0    0    0    0  0.00000000000E+00  0.00000000000E+00  0.74505805969E-08  0.10566000000E+00  0.10566000000E+00 0.  1.
     999900   -1    0    0    0    0 -0.00000000000E+00 -0.00000000000E+00 -0.74505805969E-08  0.93827000000E+00  0.93827000000E+00 0.  1.
     999902    2    1    2    0    0 -0.14223181323E-01  0.15911923391E-02  0.30203409182E-02  0.10293028595E+01  0.10291989231E+01 0.  0.
     999903    2    3    3    0    0  0.36216611816E-01 -0.10506316636E+00 -0.69225850947E-01  0.13849489074E+00  0.45152014617E-01 0.  0.
         14    1    1    2    0    0  0.14223181323E-01 -0.15911923391E-02 -0.30203409182E-02  0.14627140502E-01  0.00000000000E+00 0.  1.
     999901    1    3    3    0    0 -0.50439793139E-01  0.10665435870E+00  0.72246191865E-01  0.89080796876E+00  0.88000000000E+00 0.  1.
        -11    1    4    4    0    0  0.36529022365E-01 -0.10047202762E+00 -0.48743020328E-01  0.11749528059E+00  0.51100000000E-03 0. -1.
         11    1    4    4    0    0 -0.31241054917E-03 -0.45911387439E-02 -0.20482830620E-01  0.20999610151E-01  0.51100000000E-03 0.  1.
</event>
<event>
 8    1  0.2190512E+004  0.1043930E+01  0.7957747E-01            NaN
         13   -1    0    0    0    0  0.00000000000E+00  0.00000000000E+00  0.74505805969E-08  0.10566000000E+00  0.10566000000E+00 0. -1.
     999900   -1    0    0    0    0 -0.00000000000E+00 -0.00000000000E+00 -0.74505805969E-08  0.93827000000E+00  0.93827000000E+00 0.  1.
     999902    2    1    2    0    0  0.57955645530E-02 -0.81753828357E-02  0.99908319990E-02  0.10297793047E+01  0.10296820744E+01 0.  0.
     999903    2    3    3    0    0  0.10673866565E+00  0.76245032484E-01  0.17082775454E-01  0.13996662114E+00  0.45742606982E-01 0.  0.
         14    1    1    2    0    0 -0.57955645530E-02  0.81753828357E-02 -0.99908319990E-02  0.14150695284E-01  0.00000000000E+00 0.  1.
     999901    1    3    3    0    0 -0.10094310110E+00 -0.84420415320E-01 -0.70919434547E-02  0.88981268357E+00  0.88000000000E+00 0.  1.
        -11    1    4    4    0    0  0.62157337125E-01  0.64720460863E-01  0.25199677712E-01  0.93207067815E-01  0.51100000000E-03 0. -1.
         11    1    4    4    0    0  0.44581328527E-01  0.11524571621E-01 -0.81169022584E-02  0.46759553330E-01  0.51100000000E-03 0.  1.
</event>
<event>
 8    1  0.2190512E+004  0.1043930E+01  0.7957747E-01            NaN
         13   -1    0    0    0    0  0.00000000000E+00  0.00000000000E+00  0.74505805969E-08  0.10566000000E+00  0.10566000000E+00 0. -1.
     999900   -1    0    0    0    0 -0.00000000000E+00 -0.00000000000E+00 -0.74505805969E-08  0.93827000000E+00  0.93827000000E+00 0. -1.
     999902    2    1    2    0    0  0.11000879233E-01 -0.60937620911E-02 -0.53835819316E-02  0.10302502253E+01  0.10301594006E+01 0.  0.
     999903    2    3    3    0    0  0.66126096472E-01 -0.54896483897E-01 -0.10366106354E+00  0.14172394063E+00  0.44201523449E-01 0.  0.
         14    1    1    2    0    0 -0.11000879233E-01  0.60937620911E-02  0.53835819316E-02  0.13679774660E-01  0.00000000000E+00 0. -1.
     999901    1    3    3    0    0 -0.55125217238E-01  0.48802721806E-01  0.98277481605E-01  0.88852628471E+00  0.88000000000E+00 0.  1.
        -11    1    4    4    0    0  0.21289719165E-01 -0.25842464191E-01 -0.72529102192E-01  0.79886274687E-01  0.51100000000E-03 0.  1.
         11    1    4    4    0    0  0.44836377307E-01 -0.29054019706E-01 -0.31131961344E-01  0.61837665942E-01  0.51100000000E-03 0. -1.
</event>
<event>
 8    1  0.2190512E+004  0.1043930E+01  0.7957747E-01            NaN
         13   -1    0    0    0    0  0.00000000000E+00  0.00000000000E+00  0.74505805969E-08  0.10566000000E+00  0.10566000000E+00 0.  1.
     999900   -1    0    0    0    0 -0.00000000000E+00 -0.00000000000E+00 -0.74505805969E-08  0.93827000000E+00  0.93827000000E+00 0. -1.
     999902    2    1    2    0    0 -0.12237555503E-01 -0.63803671099E-02  0.43597117692E-02  0.10294567856E+01  0.10293550405E+01 0.  0.
     999903    2    3    3    0    0  0.68756077145E-01  0.85167364059E-01  0.71798956602E-01  0.13845229212E+00  0.45089566183E-01 0.  0.
         14    1    1    2    0    0  0.12237555503E-01  0.63803671099E-02 -0.43597117692E-02  0.14473214427E-01  0.00000000000E+00 0. -1.
     999901    1    3    3    0    0 -0.80993632648E-01 -0.91547731169E-01 -0.67439244833E-01  0.89100449345E+00  0.88000000000E+00 0.  1.
        -11    1    4    4    0    0  0.52400229331E-01  0.58068848270E-01  0.72695882399E-01  0.10678355497E+00  0.51100000000E-03 0. -1.
         11    1    4    4    0    0  0.16355847815E-01  0.27098515789E-01 -0.89692579668E-03  0.31668737149E-01  0.51100000000E-03 0.  1.
</event>
<event>
 8    1  0.2190512E+004  0.1043930E+01  0.7957747E-01            NaN
         13   -1    0    0    0    0  0.00000000000E+00  0.00000000000E+00  0.74505805969E-08  0.10566000000E+00  0.10566000000E+00 0.  1.
     999900   -1    0    0    0    0 -0.00000000000E+00 -0.00000000000E+00 -0.74505805969E-08  0.93827000000E+00  0.93827000000E+00 0.  1.
     999902    2    1    2    0    0 -0.98231177242E-02 -0.49846759094E-02 -0.88172835473E-02  0.10298202472E+01  0.10297235825E+01 0.  0.
     999903    2    3    3    0    0 -0.13345228315E+00  0.78114451581E-04 -0.19397396441E-03  0.14112223105E+00  0.45890396487E-01 0.  0.
         14    1    1    2    0    0  0.98231177242E-02  0.49846759094E-02  0.88172835473E-02  0.14109752829E-01  0.00000000000E+00 0.  1.
     999901    1    3    3    0    0  0.12362916543E+00 -0.50627903610E-02 -0.86233095829E-02  0.88869801612E+00  0.88000000000E+00 0. -1.
        -11    1    4    4    0    0 -0.88229008940E-01  0.20870853003E-01  0.64957230693E-02  0.90897778096E-01  0.51100000000E-03 0.  1.
         11    1    4    4    0    0 -0.45223274213E-01 -0.20792738552E-01 -0.66896970337E-02  0.50224452953E-01  0.51100000000E-03 0. -1.
</event>
<event>
 8    1  0.2190512E+004  0.1043930E+01  0.7957747E-01            NaN
         13   -1    0    0    0    0  0.00000000000E+00  0.00000000000E+00  0.74505805969E-08  0.10566000000E+00  0.10566000000E+00 0. -1.
     999900   -1    0    0    0    0 -0.00000000000E+00 -0.00000000000E+00 -0.74505805969E-08  0.93827000000E+00  0.93827000000E+00 0.  1.
     999902    2    1    2    0    0  0.10582212603E-01  0.69516016248E-02  0.62750696921E-02  0.10297990238E+01  0.10297020661E+01 0.  0.
     999903    2    3    3    0    0  0.55094305993E-01  0.18800849801E-01 -0.11945933117E+00  0.13966933061E+00  0.42989947698E-01 0.  0.
         14    1    1    2    0    0 -0.10582212603E-01 -0.69516016248E-02 -0.62750696921E-02  0.14130976200E-01  0.00000000000E+00 0.  1.
     999901    1    3    3    0    0 -0.44512093390E-01 -0.11849248177E-01  0.12573440086E+00  0.89012969319E+00  0.88000000000E+00 0. -1.
        -11    1    4    4    0    0  0.27714605744E-01  0.90088185218E-02 -0.18306433829E-01  0.34418669690E-01  0.51100000000E-03 0. -1.
         11    1    4    4    0    0  0.27379700249E-01  0.97920312796E-02 -0.10115289734E+00  0.10525066092E+00  0.51100000000E-03 0.  1.
</event>
<event>
 8    1  0.2190512E+004  0.1043930E+01  0.7957747E-01            NaN
         13   -1    0    0    0    0  0.00000000000E+00  0.00000000000E+00  0.74505805969E-08  0.10566000000E+00  0.10566000000E+00 0. -1.
     999900   -1    0    0    0    0 -0.00000000000E+00 -0.00000000000E+00 -0.74505805969E-08  0.93827000000E+00  0.93827000000E+00 0.  1.
     999902    2    1    2    0    0 -0.11237589348E-01  0.65892040313E-02  0.67619926586E-02  0.10292526171E+01  0.10291479603E+01 0.  0.
     999903    2    3    3    0    0  0.84696523532E-01  0.10058456493E+00 -0.14307367486E-02  0.13902477958E+00  0.45111933320E-01 0.  0.
         14    1    1    2    0    0  0.11237589348E-01 -0.65892040313E-02 -0.67619926586E-02  0.14677382901E-01  0.00000000000E+00 0.  1.
     999901    1    3    3    0    0 -0.95934112880E-01 -0.93995360899E-01  0.81927294072E-02  0.89022783752E+00  0.88000000000E+00 0.  1.
        -11    1    4    4    0    0  0.29813476670E-01  0.19452220829E-01  0.16837122274E-01  0.39382509999E-01  0.51100000000E-03 0. -1.
         11    1    4    4    0    0  0.54883046862E-01  0.81132344101E-01 -0.18267859023E-01  0.99642269577E-01  0.51100000000E-03 0.  1.
</event>
<event>
 8    1  0.2190512E+004  0.1043930E+01  0.7957747E-01            NaN
         13   -1    0    0    0    0  0.00000000000E+00  0.00000000000E+00  0.74505805969E-08  0.10566000000E+00  0.10566000000E+00 0. -1.
     999900   -1    0    0    0    0 -0.00000000000E+00 -0.00000000000E+00 -0.74505805969E-08  0.93827000000E+00  0.93827000000E+00 0. -1.
     999902    2    1    2    0    0  0.91037157257E-02 -0.93210562857E-02  0.37114288678E-02  0.10303825119E+01  0.10302934467E+01 0.  0.
     999903    2    3    3    0    0  0.72220705980E-02 -0.13331824123E+00  0.14867709196E-01  0.14161746696E+00  0.44816809600E-01 0.  0.
         14    1    1    2    0    0 -0.91037157257E-02  0.93210562857E-02 -0.37114288678E-02  0.13547488126E-01  0.00000000000E+00 0.  1.
     999901    1    3    3    0    0  0.18816451277E-02  0.12399718495E+00 -0.11156280328E-01  0.88876504491E+00  0.88000000000E+00 0.  1.
        -11    1    4    4    0    0 -0.93491313828E-02 -0.68168743058E-01  0.25842606170E-01  0.73501599998E-01  0.51100000000E-03 0. -1.
         11    1    4    4    0    0  0.16571201981E-01 -0.65149498177E-01 -0.10974896974E-01  0.68115866965E-01  0.51100000000E-03 0.  1.
</event>
<event>
 8    1  0.2190512E+004  0.1043930E+01  0.7957747E-01            NaN
         13   -1    0    0    0    0  0.00000000000E+00  0.00000000000E+00  0.74505805969E-08  0.10566000000E+00  0.10566000000E+00 0. -1.
     999900   -1    0    0    0    0 -0.00000000000E+00 -0.00000000000E+00 -0.74505805969E-08  0.93827000000E+00  0.93827000000E+00 0. -1.
     999902    2    1    2    0    0 -0.13836821502E-01 -0.25683882036E-02 -0.19510657361E-02  0.10297222238E+01  0.10296242020E+01 0.  0.
     999903    2    3    3    0    0 -0.26315987841E-01  0.67362908160E-01  0.11284055794E+00  0.13942832138E+00  0.38431402191E-01 0.  0.
         14    1    1    2    0    0  0.13836821502E-01  0.25683882036E-02  0.19510657361E-02  0.14207776207E-01  0.00000000000E+00 0. -1.
     999901    1    3    3    0    0  0.12479166339E-01 -0.69931296363E-01 -0.11479162368E+00  0.89029390241E+00  0.88000000000E+00 0. -1.
        -11    1    4    4    0    0 -0.32031974734E-01  0.31652344187E-01  0.53474633241E-01  0.69912200789E-01  0.51100000000E-03 0.  1.
         11    1    4    4    0    0  0.57159868929E-02  0.35710563972E-01  0.59365924703E-01  0.69516120593E-01  0.51100000000E-03 0. -1.
</event>
<event>
 8    1  0.2190512E+004  0.1043930E+01  0.7957747E-01            NaN
         13   -1    0    0    0    0  0.00000000000E+00  0.00000000000E+00  0.74505805969E-08  0.10566000000E+00  0.10566000000E+00 0.  1.
     999900   -1    0    0    0    0 -0.00000000000E+00 -0.00000000000E+00 -0.74505805969E-08  0.93827000000E+00  0.93827000000E+00 0.  1.
     999902    2    1    2    0    0  0.66896633836E-02  0.48284548084E-02 -0.88740575595E-02  0.10318132979E+01  0.10317421515E+01 0.  0.
     999903    2    3    3    0    0 -0.34306710275E-01 -0.12847977774E+00  0.89749369530E-02  0.14065092543E+00  0.44923598157E-01 0.  0.
         14    1    1    2    0    0 -0.66896633836E-02 -0.48284548084E-02  0.88740575595E-02  0.12116702092E-01  0.00000000000E+00 0.  1.
     999901    1    3    3    0    0  0.40996373658E-01  0.13330823255E+00 -0.17848994512E-01  0.89116237248E+00  0.88000000000E+00 0.  1.
        -11    1    4    4    0    0 -0.87437720903E-02 -0.71474375380E-01 -0.15313069947E-01  0.73619230630E-01  0.51100000000E-03 0.  1.
         11    1    4    4    0    0 -0.25562938185E-01 -0.57005402364E-01  0.24288006900E-01  0.67031694798E-01  0.51100000000E-03 0. -1.
</event>
<event>
 8    1  0.2190512E+004  0.1043930E+01  0.7957747E-01            NaN
         13   -1    0    0    0    0  0.00000000000E+00  0.00000000000E+00  0.74505805969E-08  0.10566000000E+00  0.10566000000E+00 0.  1.
     999900   -1    0    0    0    0 -0.00000000000E+00 -0.00000000000E+00 -0.74505805969E-08  0.93827000000E+00  0.93827000000E+00 0.  1.
     999902    2    1    2    0    0  0.30001419121E-03 -0.38454446855E-02 -0.13614765304E-01  0.10297794068E+01  0.10296821779E+01 0.  0.
     999903    2    3    3    0    0 -0.75117689980E-01 -0.67376862413E-01 -0.87719417038E-01  0.14117624986E+00  0.45318080952E-01 0.  0.
         14    1    1    2    0    0 -0.30001419121E-03  0.38454446855E-02  0.13614765304E-01  0.14150593190E-01  0.00000000000E+00 0.  1.
     999901    1    3    3    0    0  0.75417704171E-01  0.63531417727E-01  0.74104651734E-01  0.88860315695E+00  0.88000000000E+00 0. -1.
        -11    1    4    4    0    0 -0.40478182114E-01 -0.12971781513E-01 -0.52952211781E-01  0.67903963039E-01  0.51100000000E-03 0. -1.
         11    1    4    4    0    0 -0.34639507866E-01 -0.54405080900E-01 -0.34767205257E-01  0.73272286817E-01  0.51100000000E-03 0.  1.
</event>
<event>
 8    1  0.2190512E+004  0.1043930E+01  0.7957747E-01            NaN
         13   -1    0    0    0    0  0.00000000000E+00  0.00000000000E+00  0.74505805969E-08  0.10566000000E+00  0.10566000000E+00 0. -1.
     999900   -1    0    0    0    0 -0.00000000000E+00 -0.00000000000E+00 -0.74505805969E-08  0.93827000000E+00  0.93827000000E+00 0.  1.
     999902    2    1    2    0    0 -0.13458638039E-02 -0.40342589208E-03 -0.13863737848E-01  0.10299952474E+01  0.10299009819E+01 0.  0.
     999903    2    3    3    0    0  0.17166859832E-01 -0.46155101466E-01  0.12080365945E+00  0.13838364778E+00  0.46168337302E-01 0.  0.
         14    1    1    2    0    0  0.13458638039E-02  0.40342589208E-03  0.13863737848E-01  0.13934752562E-01  0.00000000000E+00 0. -1.
     999901    1    3    3    0    0 -0.18512723636E-01  0.45751675574E-01 -0.13466739729E+00  0.89161159966E+00  0.88000000000E+00 0.  1.
        -11    1    4    4    0    0  0.14446367544E-01 -0.49022492252E-01  0.66195206149E-01  0.83629951094E-01  0.51100000000E-03 0.  1.
         11    1    4    4    0    0  0.27204922882E-02  0.28673907867E-02  0.54608453296E-01  0.54753696684E-01  0.51100000000E-03 0. -1.
</event>
<event>
 7    1  0.2190512E+004  0.1043930E+01  0.7957747E-01            NaN
         13   -1    0    0    0    0  0.00000000000E+00  0.00000000000E+00  0.74505805969E-08  0.10566000000E+00  0.10566000000E+00 0.  1.
     999900   -1    0    0    0    0 -0.00000000000E+00 -0.00000000000E+00 -0.74505805969E-08  0.93827000000E+00  0.93827000000E+00 0.  1.
     999903    2    1    2    0    0  0.89493596312E-01 -0.57604079954E-01  0.52138231853E-01  0.12682095559E+00  0.45142283367E-01 0.  0.
         14    1    1    2    0    0  0.13744513106E-01  0.25407664730E-01  0.93482683216E-03  0.28902162008E-01  0.00000000000E+00 0.  1.
     999901    1    1    2    0    0 -0.10323810942E+00  0.32196415224E-01 -0.53073058686E-01  0.88820688240E+00  0.88000000000E+00 0.  1.
        -11    1    3    3    0    0  0.37489333012E-01 -0.21289557406E-01 -0.23792616026E-02  0.43181215256E-01  0.51100000000E-03 0.  1.
         11    1    3    3    0    0  0.52004263299E-01 -0.36314522548E-01  0.54517493456E-01  0.83639740333E-01  0.51100000000E-03 0. -1.
</event>
<event>
 8    1  0.2190512E+004  0.1043930E+01  0.7957747E-01            NaN
         13   -1    0    0    0    0  0.00000000000E+00  0.00000000000E+00  0.74505805969E-08  0.10566000000E+00  0.10566000000E+00 0. -1.
     999900   -1    0    0    0    0 -0.00000000000E+00 -0.00000000000E+00 -0.74505805969E-08  0.93827000000E+00  0.93827000000E+00 0. -1.
     999902    2    1    2    0    0 -0.86122300226E-02 -0.11483567488E-01  0.96599262023E-02  0.10266280636E+01  0.10264822570E+01 0.  0.
     999903    2    3    3    0    0  0.58952264618E-01  0.10858738830E+00 -0.31377097832E-01  0.13496331008E+00  0.44316841035E-01 0.  0.
         14    1    1    2    0    0  0.86122300226E-02  0.11483567488E-01 -0.96599262023E-02  0.17301936378E-01  0.00000000000E+00 0.  1.
     999901    1    3    3    0    0 -0.67564494641E-01 -0.12007095579E+00  0.41037024034E-01  0.89166475354E+00  0.88000000000E+00 0.  1.
        -11    1    4    4    0    0  0.10246506238E-01  0.33363155982E-01 -0.28893260601E-01  0.45311948714E-01  0.51100000000E-03 0.  1.
         11    1    4    4    0    0  0.48705758380E-01  0.75224232317E-01 -0.24838372314E-02  0.89651361370E-01  0.51100000000E-03 0. -1.
</event>
<event>
 8    1  0.2190512E+004  0.1043930E+01  0.7957747E-01            NaN
         13   -1    0    0    0    0  0.00000000000E+00  0.00000000000E+00  0.74505805969E-08  0.10566000000E+00  0.10566000000E+00 0.  1.
     999900   -1    0    0    0    0 -0.00000000000E+00 -0.00000000000E+00 -0.74505805969E-08  0.93827000000E+00  0.93827000000E+00 0. -1.
     999902    2    1    2    0    0  0.83951717041E-02  0.71555087692E-02 -0.86959540572E-02  0.10298836542E+01  0.10297878623E+01 0.  0.
     999903    2    3    3    0    0  0.11513031997E+00  0.37216256522E-01  0.55655803329E-01  0.14059338149E+00  0.45043203137E-01 0.  0.
         14    1    1    2    0    0 -0.83951717041E-02 -0.71555087692E-02  0.86959540572E-02  0.14046345811E-01  0.00000000000E+00 0.  1.
     999901    1    3    3    0    0 -0.10673514827E+00 -0.30060747753E-01 -0.64351757387E-01  0.88929027270E+00  0.88000000000E+00 0. -1.
        -11    1    4    4    0    0  0.10393694487E+00  0.19759216528E-01  0.35307558085E-01  0.11153564419E+00  0.51100000000E-03 0. -1.
         11    1    4    4    0    0  0.11193375106E-01  0.17457039994E-01  0.20348245244E-01  0.29057737303E-01  0.51100000000E-03 0.  1.
</event>
<event>
 8    1  0.2463897E+004  0.1043930E+01  0.7957747E-01            NaN
         13   -1    0    0    0    0  0.00000000000E+00  0.00000000000E+00  0.74505805969E-08  0.10566000000E+00  0.10566000000E+00 0.  1.
     999900   -1    0    0    0    0 -0.00000000000E+00 -0.00000000000E+00 -0.74505805969E-08  0.93827000000E+00  0.93827000000E+00 0.  1.
     999902    2    1    2    0    0 -0.66171602721E-02 -0.18483304545E-02 -0.11917925149E-01  0.10301735442E+01  0.10300816915E+01 0.  0.
     999903    2    3    3    0    0 -0.11149585706E+00 -0.32779440361E-01 -0.67719979722E-01  0.14165221984E+00  0.44424518908E-01 0.  0.
         14    1    1    2    0    0  0.66171602721E-02  0.18483304545E-02  0.11917925149E-01  0.13756455771E-01  0.00000000000E+00 0.  1.
     999901    1    3    3    0    0  0.10487869679E+00  0.30931109907E-01  0.55802054573E-01  0.88852132439E+00  0.88000000000E+00 0.  1.
        -11    1    4    4    0    0 -0.19760964045E-01 -0.24283560431E-01 -0.25158795610E-01  0.40167314134E-01  0.51100000000E-03 0.  1.
         11    1    4    4    0    0 -0.91734893014E-01 -0.84958799304E-02 -0.42561184112E-01  0.10148490571E+00  0.51100000000E-03 0. -1.
</event>
<event>
 8    1  0.2190512E+004  0.1043930E+01  0.7957747E-01            NaN
         13   -1    0    0    0    0  0.00000000000E+00  0.00000000000E+00  0.74505805969E-08  0.10566000000E+00  0.10566000000E+00 0. -1.
     999900   -1    0    0    0    0 -0.00000000000E+00 -0.00000000000E+00 -0.74505805969E-08  0.93827000000E+00  0.93827000000E+00 0.  1.
     999902    2    1    2    0    0 -0.99782968224E-03  0.13932248175E-01 -0.41331579785E-02  0.10293633876E+01  0.10292603157E+01 0.  0.
     999903    2    3    3    0    0 -0.81290039099E-01  0.27660585069E-01 -0.10109307488E+00  0.14029841152E+00  0.45723692585E-01 0.  0.
         14    1    1    2    0    0  0.99782968224E-03 -0.13932248175E-01  0.41331579785E-02  0.14566612446E-01  0.00000000000E+00 0. -1.
     999901    1    3    3    0    0  0.80292209417E-01 -0.13728336895E-01  0.96959916898E-01  0.88906497603E+00  0.88000000000E+00 0. -1.
        -11    1    4    4    0    0 -0.85767266608E-02 -0.11669662721E-01 -0.17656808683E-01  0.22842182079E-01  0.51100000000E-03 0. -1.
         11    1    4    4    0    0 -0.72713312438E-01  0.39330247791E-01 -0.83436266194E-01  0.11745622944E+00  0.51100000000E-03 0.  1.
</event>
<event>
 8    1  0.2190512E+004  0.1043930E+01  0.7957747E-01            NaN
         13   -1    0    0    0    0  0.00000000000E+00  0.00000000000E+00  0.74505805969E-08  0.10566000000E+00  0.10566000000E+00 0. -1.
     999900   -1    0    0    0    0 -0.00000000000E+00 -0.00000000000E+00 -0.74505805969E-08  0.93827000000E+00  0.93827000000E+00 0. -1.
     999902    2    1    2    0    0 -0.13065676991E-01 -0.14215926709E-02  0.57215233924E-03  0.10307747653E+01  0.10306908152E+01 0.  0.
     999903    2    3    3    0    0 -0.70136795275E-01 -0.43284823184E-01 -0.10621001498E+00  0.14149861369E+00  0.44142320122E-01 0.  0.
         14    1    1    2    0    0  0.13065676991E-01  0.14215926709E-02 -0.57215233924E-03  0.13155234671E-01  0.00000000000E+00 0.  1.
     999901    1    3    3    0    0  0.57071118284E-01  0.41863230513E-01  0.10678216732E+00  0.88927615164E+00  0.88000000000E+00 0.  1.
        -11    1    4    4    0    0 -0.16604971599E-01  0.83100519861E-02 -0.15360996301E-01  0.24104011578E-01  0.51100000000E-03 0.  1.
         11    1    4    4    0    0 -0.53531823676E-01 -0.51594875170E-01 -0.90849018679E-01  0.11739460212E+00  0.51100000000E-03 0. -1.
</event>
<event>
 8    1  0.2190512E+004  0.1043930E+01  0.7957747E-01            NaN
         13   -1    0    0    0    0  0.00000000000E+00  0.00000000000E+00  0.74505805969E-08  0.10566000000E+00  0.10566000000E+00 0.  1.
     999900   -1    0    0    0    0 -0.00000000000E+00 -0.00000000000E+00 -0.74505805969E-08  0.93827000000E+00  0.93827000000E+00 0. -1.
     999902    2    1    2    0    0  0.24492101335E-02  0.13810812094E-01 -0.30661981238E-03  0.10299003465E+01  0.10298047837E+01 0.  0.
     999903    2    3    3    0    0  0.65807201447E-03 -0.70506074486E-01  0.11084591077E+00  0.13890796126E+00  0.45133869426E-01 0.  0.
         14    1    1    2    0    0 -0.24492101335E-02 -0.13810812094E-01  0.30661981238E-03  0.14029653477E-01  0.00000000000E+00 0.  1.
     999901    1    3    3    0    0  0.17911381190E-02  0.84316886579E-01 -0.11115253058E+00  0.89099238526E+00  0.88000000000E+00 0. -1.
        -11    1    4    4    0    0  0.11917077447E-01 -0.29629779453E-01  0.80958854795E-01  0.87031820940E-01  0.51100000000E-03 0. -1.
         11    1    4    4    0    0 -0.11259005433E-01 -0.40876295032E-01  0.29887055976E-01  0.51876140323E-01  0.51100000000E-03 0.  1.
</event>
<event>
 8    1  0.2190512E+004  0.1043930E+01  0.7957747E-01            NaN
         13   -1    0    0    0    0  0.00000000000E+00  0.00000000000E+00  0.74505805969E-08  0.10566000000E+00  0.10566000000E+00 0. -1.
     999900   -1    0    0    0    0 -0.00000000000E+00 -0.00000000000E+00 -0.74505805969E-08  0.93827000000E+00  0.93827000000E+00 0. -1.
     999902    2    1    2    0    0 -0.13512313843E-01  0.12062526998E-02 -0.10917332840E-02  0.10303200936E+01  0.10302302003E+01 0.  0.
     999903    2    3    3    0    0  0.12251950307E+00 -0.46606349525E-01  0.88064593871E-02  0.13853050273E+00  0.43931378441E-01 0.  0.
         14    1    1    2    0    0  0.13512313843E-01 -0.12062526998E-02  0.10917332840E-02  0.13609906411E-01  0.00000000000E+00 0. -1.
     999901    1    3    3    0    0 -0.13603181691E+00  0.47812602225E-01 -0.98981926711E-02  0.89178959086E+00  0.88000000000E+00 0.  1.
        -11    1    4    4    0    0  0.55968616970E-01 -0.34470552651E-01 -0.13868807147E-01  0.67181173094E-01  0.51100000000E-03 0.  1.
         11    1    4    4    0    0  0.66550886098E-01 -0.12135796874E-01  0.22675266534E-01  0.71349329637E-01  0.51100000000E-03 0. -1.
</event>
<event>
 8    1  0.2190512E+004  0.1043930E+01  0.7957747E-01            NaN
         13   -1    0    0    0    0  0.00000000000E+00  0.00000000000E+00  0.74505805969E-08  0.10566000000E+00  0.10566000000E+00 0. -1.
     999900   -1    0    0    0    0 -0.00000000000E+00 -0.00000000000E+00 -0.74505805969E-08  0.93827000000E+00  0.93827000000E+00 0.  1.
     999902    2    1    2    0    0 -0.10686281036E-01 -0.15111984886E-01 -0.13023701940E-02  0.10253756243E+01  0.10252077380E+01 0.  0.
     999903    2    3    3    0    0 -0.34133616308E-01 -0.11871092166E+00 -0.42450807729E-01  0.13803368843E+00  0.44652451012E-01 0.  0.
         14    1    1    2    0    0  0.10686281036E-01  0.15111984886E-01  0.13023701940E-02  0.18554375702E-01  0.00000000000E+00 0. -1.
     999901    1    3    3    0    0  0.23447335272E-01  0.10359893678E+00  0.41148437535E-01  0.88734193586E+00  0.88000000000E+00 0. -1.
        -11    1    4    4    0    0 -0.34197612524E-01 -0.41969210485E-01 -0.11898110975E-01  0.55432098074E-01  0.51100000000E-03 0.  1.
         11    1    4    4    0    0  0.63996215825E-04 -0.76741711177E-01 -0.30552696754E-01  0.82601590359E-01  0.51100000000E-03 0. -1.
</event>
<event>
 8    1  0.2190512E+004  0.1043930E+01  0.7957747E-01            NaN
         13   -1    0    0    0    0  0.00000000000E+00  0.00000000000E+00  0.74505805969E-08  0.10566000000E+00  0.10566000000E+00 0. -1.
     999900   -1    0    0    0    0 -0.00000000000E+00 -0.00000000000E+00 -0.74505805969E-08  0.93827000000E+00  0.93827000000E+00 0. -1.
     999902    2    1    2    0    0  0.11147101622E-01 -0.90637873549E-02 -0.63864624397E-02  0.10282074996E+01  0.10280872848E+01 0.  0.
     999903    2    3    3    0    0 -0.10587708574E+00  0.61378341957E-01  0.42009614001E-01  0.13635609146E+00  0.43022294960E-01 0.  0.
         14    1    1    2    0    0 -0.11147101622E-01  0.90637873549E-02  0.63864624397E-02  0.15722500383E-01  0.00000000000E+00 0.  1.
     999901    1    3    3    0    0  0.11702418737E+00 -0.70442129312E-01 -0.48396076441E-01  0.89185140815E+00  0.88000000000E+00 0.  1.
        -11    1    4    4    0    0 -0.39166476320E-01  0.15099422436E-02  0.55585282122E-02  0.39591048860E-01  0.51100000000E-03 0. -1.
         11    1    4    4    0    0 -0.66710609424E-01  0.59868399713E-01  0.36451085789E-01  0.96765042604E-01  0.51100000000E-03 0.  1.
</event>
<event>
 8    1  0.2190512E+004  0.1043930E+01  0.7957747E-01            NaN
         13   -1    0    0    0    0  0.00000000000E+00  0.00000000000E+00  0.74505805969E-08  0.10566000000E+00  0.10566000000E+00 0. -1.
     999900   -1    0    0    0    0 -0.00000000000E+00 -0.00000000000E+00 -0.74505805969E-08  0.93827000000E+00  0.93827000000E+00 0.  1.
     999902    2    1    2    0    0  0.11904095980E-01 -0.21260602018E-02 -0.59645865924E-02  0.10304465314E+01  0.10303583115E+01 0.  0.
     999903    2    3    3    0    0  0.30643794002E-01  0.12027518751E+00  0.47216565755E-01  0.14018731255E+00  0.44921216348E-01 0.  0.
         14    1    1    2    0    0 -0.11904095980E-01  0.21260602018E-02  0.59645865924E-02  0.13483468630E-01  0.00000000000E+00 0.  1.
     999901    1    3    3    0    0 -0.18739698022E-01 -0.12240124771E+00 -0.53181152347E-01  0.89025921882E+00  0.88000000000E+00 0.  1.
        -11    1    4    4    0    0  0.22174624481E-01  0.53960949851E-01  0.28933767089E-05  0.58341744995E-01  0.51100000000E-03 0. -1.
         11    1    4    4    0    0  0.84691695200E-02  0.66314237658E-01  0.47213672378E-01  0.81845567558E-01  0.51100000000E-03 0.  1.
</event>
<event>
 8    1  0.2190512E+004  0.1043930E+01  0.7957747E-01            NaN
         13   -1    0    0    0    0  0.00000000000E+00  0.00000000000E+00  0.74505805969E-08  0.10566000000E+00  0.10566000000E+00 0. -1.
     999900   -1    0    0    0    0 -0.00000000000E+00 -0.00000000000E+00 -0.74505805969E-08  0.93827000000E+00  0.93827000000E+00 0.  1.
     999902    2    1    2    0    0 -0.11413383987E-01 -0.10180368903E-01 -0.48455003097E-02  0.10278868046E+01  0.10277615964E+01 0.  0.
     999903    2    3    3    0    0 -0.39358422466E-01  0.11357312790E+00 -0.49370947153E-01  0.13767426338E+00  0.45483750656E-01 0.  0.
         14    1    1    2    0    0  0.11413383987E-01  0.10180368903E-01  0.48455003097E-02  0.16043195390E-01  0.00000000000E+00 0. -1.
     999901    1    3    3    0    0  0.27945038478E-01 -0.12375349681E+00  0.44525446843E-01  0.89021254123E+00  0.88000000000E+00 0. -1.
        -11    1    4    4    0    0 -0.31729996494E-01  0.71252158270E-01 -0.53327296008E-01  0.94486635860E-01  0.51100000000E-03 0.  1.
         11    1    4    4    0    0 -0.76284259716E-02  0.42320969634E-01  0.39563488554E-02  0.43187627520E-01  0.51100000000E-03 0. -1.
</event>
<event>
 8    1  0.2190512E+004  0.1043930E+01  0.7957747E-01            NaN
         13   -1    0    0    0    0  0.00000000000E+00  0.00000000000E+00  0.74505805969E-08  0.10566000000E+00  0.10566000000E+00 0. -1.
     999900   -1    0    0    0    0 -0.00000000000E+00 -0.00000000000E+00 -0.74505805969E-08  0.93827000000E+00  0.93827000000E+00 0.  1.
     999902    2    1    2    0    0  0.84261917339E-02 -0.95581299250E-02 -0.64616801677E-02  0.10296432276E+01  0.10295441051E+01 0.  0.
     999903    2    3    3    0    0  0.11871278733E+00 -0.60852910142E-01  0.99654826336E-02  0.14112528219E+00  0.44958112520E-01 0.  0.
         14    1    1    2    0    0 -0.84261917339E-02  0.95581299250E-02  0.64616801677E-02  0.14286772392E-01  0.00000000000E+00 0. -1.
     999901    1    3    3    0    0 -0.11028659560E+00  0.51294780217E-01 -0.16427162801E-01  0.88851794541E+00  0.88000000000E+00 0.  1.
        -11    1    4    4    0    0  0.17890627222E-01 -0.43142205503E-02  0.17347228461E-01  0.25295740702E-01  0.51100000000E-03 0.  1.
         11    1    4    4    0    0  0.10082216011E+00 -0.56538689592E-01 -0.73817458274E-02  0.11582954149E+00  0.51100000000E-03 0. -1.
</event>
<event>
 8    1  0.2190512E+004  0.1043930E+01  0.7957747E-01            NaN
         13   -1    0    0    0    0  0.00000000000E+00  0.00000000000E+00  0.74505805969E-08  0.10566000000E+00  0.10566000000E+00 0. -1.
     999900   -1    0    0    0    0 -0.00000000000E+00 -0.00000000000E+00 -0.74505805969E-08  0.93827000000E+00  0.93827000000E+00 0. -1.
     999902    2    1    2    0    0 -0.13232627132E-01 -0.27813503031E-02 -0.33916952199E-02  0.10299893427E+01  0.10298949966E+01 0.  0.
     999903    2    3    3    0    0  0.52685018778E-01  0.30335420127E-01 -0.11710332837E+00  0.13961178678E+00  0.45632363218E-01 0.  0.
         14    1    1    2    0    0  0.13232627132E-01  0.27813503031E-02  0.33916952199E-02  0.13940657330E-01  0.00000000000E+00 0. -1.
     999901    1    3    3    0    0 -0.65917645910E-01 -0.33116770430E-01  0.11371163315E+00  0.89037755589E+00  0.88000000000E+00 0.  1.
        -11    1    4    4    0    0  0.15561030832E-01  0.31652647818E-01 -0.78365572680E-01  0.85938698483E-01  0.51100000000E-03 0. -1.
         11    1    4    4    0    0  0.37123987946E-01 -0.13172276916E-02 -0.38737755693E-01  0.53673088293E-01  0.51100000000E-03 0.  1.
</event>
<event>
 8    1  0.2190512E+004  0.1043930E+01  0.7957747E-01            NaN
         13   -1    0    0    0    0  0.00000000000E+00  0.00000000000E+00  0.74505805969E-08  0.10566000000E+00  0.10566000000E+00 0.  1.
     999900   -1    0    0    0    0 -0.00000000000E+00 -0.00000000000E+00 -0.74505805969E-08  0.93827000000E+00  0.93827000000E+00 0.  1.
     999902    2    1    2    0    0  0.12437044198E-01 -0.26370452743E-02 -0.41732536500E-02  0.10305490388E+01  0.10304621639E+01 0.  0.
     999903    2    3    3    0    0  0.97371173566E-01  0.83216564071E-01 -0.41326947275E-01  0.14152426665E+00  0.43761392842E-01 0.  0.
         14    1    1    2    0    0 -0.12437044198E-01  0.26370452743E-02  0.41732536500E-02  0.13380961183E-01  0.00000000000E+00 0. -1.
     999901    1    3    3    0    0 -0.84934129369E-01 -0.85853609346E-01  0.37153693625E-01  0.88902477216E+00  0.88000000000E+00 0.  1.
        -11    1    4    4    0    0  0.32276703050E-01  0.36989772744E-02 -0.12257041127E-01  0.34726994844E-01  0.51100000000E-03 0. -1.
         11    1    4    4    0    0  0.65094470516E-01  0.79517586797E-01 -0.29069906148E-01  0.10679727181E+00  0.51100000000E-03 0.  1.
</event>
<event>
 8    1  0.2190512E+004  0.1043930E+01  0.7957747E-01            NaN
         13   -1    0    0    0    0  0.00000000000E+00  0.00000000000E+00  0.74505805969E-08  0.10566000000E+00  0.10566000000E+00 0. -1.
     999900   -1    0    0    0    0 -0.00000000000E+00 -0.00000000000E+00 -0.74505805969E-08  0.93827000000E+00  0.93827000000E+00 0.  1.
     999902    2    1    2    0    0 -0.13409739594E-01  0.54467313047E-02  0.26324601845E-02  0.10292188531E+01  0.10291137107E+01 0.  0.
     999903    2    3    3    0    0  0.50183181915E-01 -0.22060538452E-01 -0.11834808943E+00  0.13824354310E+00  0.45825624206E-01 0.  0.
         14    1    1    2    0    0  0.13409739594E-01 -0.54467313047E-02 -0.26324601845E-02  0.14711146947E-01  0.00000000000E+00 0.  1.
     999901    1    3    3    0    0 -0.63592921509E-01  0.27507269756E-01  0.12098054961E+00  0.89097530995E+00  0.88000000000E+00 0. -1.
        -11    1    4    4    0    0  0.26215180649E-01 -0.41979947165E-02 -0.14661304801E-01  0.30332718895E-01  0.51100000000E-03 0. -1.
         11    1    4    4    0    0  0.23968001266E-01 -0.17862543735E-01 -0.10368678463E+00  0.10791082421E+00  0.51100000000E-03 0.  1.
</event>
<event>
 8    1  0.2190512E+004  0.1043930E+01  0.7957747E-01            NaN
         13   -1    0    0    0    0  0.00000000000E+00  0.00000000000E+00  0.74505805969E-08  0.10566000000E+00  0.10566000000E+00 0.  1.
     999900   -1    0    0    0    0 -0.00000000000E+00 -0.00000000000E+00 -0.74505805969E-08  0.93827000000E+00  0.93827000000E+00 0. -1.
     999902    2    1    2    0    0 -0.11314051932E-01 -0.68032642440E-02 -0.36331986567E-02  0.10302372169E+01  0.10301462182E+01 0.  0.
     999903    2    3    3    0    0 -0.42289877388E-01 -0.12643631942E+00 -0.14666511145E-01  0.14153405860E+00  0.45190780005E-01 0.  0.
         14    1    1    2    0    0  0.11314051932E-01  0.68032642440E-02  0.36331986567E-02  0.13692783062E-01  0.00000000000E+00 0.  1.
     999901    1    3    3    0    0  0.30975825456E-01  0.11963305517E+00  0.11033312488E-01  0.88870315834E+00  0.88000000000E+00 0. -1.
        -11    1    4    4    0    0 -0.18539633479E-01 -0.31989465125E-01  0.14733819694E-01  0.39804402424E-01  0.51100000000E-03 0.  1.
         11    1    4    4    0    0 -0.23750243908E-01 -0.94446854294E-01 -0.29400330839E-01  0.10172965618E+00  0.51100000000E-03 0. -1.
</event>
<event>
 8    1  0.2190512E+004  0.1043930E+01  0.7957747E-01            NaN
         13   -1    0    0    0    0  0.00000000000E+00  0.00000000000E+00  0.74505805969E-08  0.10566000000E+00  0.10566000000E+00 0.  1.
     999900   -1    0    0    0    0 -0.00000000000E+00 -0.00000000000E+00 -0.74505805969E-08  0.93827000000E+00  0.93827000000E+00 0. -1.
     999902    2    1    2    0    0  0.13803375121E-01  0.16342279309E-01 -0.11201847532E-01  0.10197828543E+01  0.10194969275E+01 0.  0.
     999903    2    3    3    0    0 -0.80501212326E-01  0.91077072291E-01 -0.21805985823E-01  0.13153114884E+00  0.45271004111E-01 0.  0.
         14    1    1    2    0    0 -0.13803375121E-01 -0.16342279309E-01  0.11201847532E-01  0.24147145709E-01  0.00000000000E+00 0. -1.
     999901    1    3    3    0    0  0.94304587447E-01 -0.74734792982E-01  0.10604138292E-01  0.88825170546E+00  0.88000000000E+00 0.  1.
        -11    1    4    4    0    0 -0.33689022341E-01  0.37580007348E-01 -0.31931527753E-01  0.59725126741E-01  0.51100000000E-03 0. -1.
         11    1    4    4    0    0 -0.46812189985E-01  0.53497064943E-01  0.10125541930E-01  0.71806022095E-01  0.51100000000E-03 0.  1.
</event>
<event>
 8    1  0.2190512E+004  0.1043930E+01  0.7957747E-01            NaN
         13   -1    0    0    0    0  0.00000000000E+00  0.00000000000E+00  0.74505805969E-08  0.10566000000E+00  0.10566000000E+00 0.  1.
     999900   -1    0    0    0    0 -0.00000000000E+00 -0.00000000000E+00 -0.74505805969E-08  0.93827000000E+00  0.93827000000E+00 0.  1.
     999902    2    1    2    0    0 -0.35112258760E-03  0.12555021972E-01  0.56751686332E-02  0.10301474239E+01  0.10300552197E+01 0.  0.
     999903    2    3    3    0    0 -0.10035763941E-01 -0.11378546499E+00  0.61515161198E-01  0.13931982239E+00  0.50774494097E-01 0.  0.
         14    1    1    2    0    0  0.35112258760E-03 -0.12555021972E-01 -0.56751686332E-02  0.13782576059E-01  0.00000000000E+00 0. -1.
     999901    1    3    3    0    0  0.96846413530E-02  0.12634048696E+00 -0.55839992565E-01  0.89082760156E+00  0.88000000000E+00 0.  1.
        -11    1    4    4    0    0  0.11709011209E-01 -0.65963563373E-02 -0.74037454306E-03  0.13469303467E-01  0.51100000000E-03 0. -1.
         11    1    4    4    0    0 -0.21744775150E-01 -0.10718910866E+00  0.62255535741E-01  0.12585051892E+00  0.51100000000E-03 0.  1.
</event>
<event>
 8    1  0.2190512E+004  0.1043930E+01  0.7957747E-01            NaN
         13   -1    0    0    0    0  0.00000000000E+00  0.00000000000E+00  0.74505805969E-08  0.10566000000E+00  0.10566000000E+00 0. -1.
     999900   -1    0    0    0    0 -0.00000000000E+00 -0.00000000000E+00 -0.74505805969E-08  0.93827000000E+00  0.93827000000E+00 0.  1.
     999902    2    1    2    0    0 -0.41463636595E-02 -0.83237656686E-03  0.15266206450E-01  0.10280888434E+01  0.10279667931E+01 0.  0.
     999903    2    3    3    0    0 -0.95348976249E-01 -0.41576669607E-01  0.81637652215E-01  0.13995417865E+00  0.45852144278E-01 0.  0.
         14    1    1    2    0    0  0.41463636595E-02  0.83237656686E-03 -0.15266206450E-01  0.15841156577E-01  0.00000000000E+00 0.  1.
     999901    1    3    3    0    0  0.91202612590E-01  0.40744293040E-01 -0.66371445766E-01  0.88813466477E+00  0.88000000000E+00 0.  1.
        -11    1    4    4    0    0 -0.84150371253E-01 -0.27885983160E-01  0.45340790189E-01  0.99573899265E-01  0.51100000000E-03 0. -1.
         11    1    4    4    0    0 -0.11198604996E-01 -0.13690686447E-01  0.36296862026E-01  0.40380279385E-01  0.51100000000E-03 0.  1.
</event>
<event>
 8    1  0.2190512E+004  0.1043930E+01  0.7957747E-01            NaN
         13   -1    0    0    0    0  0.00000000000E+00  0.00000000000E+00  0.74505805969E-08  0.10566000000E+00  0.10566000000E+00 0. -1.
     999900   -1    0    0    0    0 -0.00000000000E+00 -0.00000000000E+00 -0.74505805969E-08  0.93827000000E+00  0.93827000000E+00 0.  1.
     999902    2    1    2    0    0  0.81148485764E-02 -0.11147730566E-01  0.52068666216E-02  0.10291911356E+01  0.10290855938E+01 0.  0.
     999903    2    3    3    0    0  0.33363597674E-01 -0.12855845337E+00  0.11110417493E-01  0.14101456020E+00  0.46057130041E-01 0.  0.
         14    1    1    2    0    0 -0.81148485764E-02  0.11147730566E-01 -0.52068666216E-02  0.14738864414E-01  0.00000000000E+00 0.  1.
     999901    1    3    3    0    0 -0.25248749098E-01  0.11741072280E+00 -0.59035508719E-02  0.88817657539E+00  0.88000000000E+00 0.  1.
        -11    1    4    4    0    0  0.13850634919E-01 -0.89647244061E-01  0.27043434470E-01  0.94657682859E-01  0.51100000000E-03 0.  1.
         11    1    4    4    0    0  0.19512962755E-01 -0.38911209309E-01 -0.15933016976E-01  0.46356877336E-01  0.51100000000E-03 0. -1.
</event>
<event>
 8    1  0.2190512E+004  0.1043930E+01  0.7957747E-01            NaN
         13   -1    0    0    0    0  0.00000000000E+00  0.00000000000E+00  0.74505805969E-08  0.10566000000E+00  0.10566000000E+00 0.  1.
     999900   -1    0    0    0    0 -0.00000000000E+00 -0.00000000000E+00 -0.74505805969E-08  0.93827000000E+00  0.93827000000E+00 0.  1.
     999902    2    1    2    0    0  0.12949620100E-02  0.47000718375E-02  0.12433198817E-01  0.10305751494E+01  0.10304886154E+01 0.  0.
     999903    2    3    3    0    0  0.97758961658E-01 -0.84855057200E-01 -0.25364837300E-01  0.13998314634E+00  0.46847742440E-01 0.  0.
         14    1    1    2    0    0 -0.12949620100E-02 -0.47000718375E-02 -0.12433198817E-01  0.13354850606E-01  0.00000000000E+00 0. -1.
     999901    1    3    3    0    0 -0.96463999648E-01  0.89555129037E-01  0.37798036117E-01  0.89059200305E+00  0.88000000000E+00 0. -1.
        -11    1    4    4    0    0  0.76457770780E-01 -0.75869144243E-01 -0.37263379678E-01  0.11397692024E+00  0.51100000000E-03 0. -1.
         11    1    4    4    0    0  0.21301190879E-01 -0.89859129564E-02  0.11898542377E-01  0.26006226105E-01  0.51100000000E-03 0.  1.
</event>
<event>
 8    1  0.2190512E+004  0.1043930E+01  0.7957747E-01            NaN
         13   -1    0    0    0    0  0.00000000000E+00  0.00000000000E+00  0.74505805969E-08  0.10566000000E+00  0.10566000000E+00 0.  1.
     999900   -1    0    0    0    0 -0.00000000000E+00 -0.00000000000E+00 -0.74505805969E-08  0.93827000000E+00  0.93827000000E+00 0.  1.
     999902    2    1    2    0    0 -0.14677452492E-02  0.88143409575E-04 -0.14925555682E-01  0.10289321916E+01  0.10288228811E+01 0.  0.
     999903    2    3    3    0    0 -0.10748845316E+00  0.61168038921E-01  0.45691030555E-01  0.13840116197E+00  0.42094118517E-01 0.  0.
         14    1    1    2    0    0  0.14677452492E-02 -0.88143409575E-04  0.14925555682E-01  0.14997808433E-01  0.00000000000E+00 0.  1.
     999901    1    3    3    0    0  0.10602070791E+00 -0.61079895511E-01 -0.60616586237E-01  0.89053102959E+00  0.88000000000E+00 0.  1.
        -11    1    4    4    0    0 -0.68551381373E-01  0.18443916687E-01  0.36641906642E-01  0.79889676393E-01  0.51100000000E-03 0.  1.
         11    1    4    4    0    0 -0.38937071790E-01  0.42724122234E-01  0.90491239137E-02  0.58511485580E-01  0.51100000000E-03 0. -1.
</event>
<event>
 8    1  0.2190512E+004  0.1043930E+01  0.7957747E-01            NaN
         13   -1    0    0    0    0  0.00000000000E+00  0.00000000000E+00  0.74505805969E-08  0.10566000000E+00  0.10566000000E+00 0.  1.
     999900   -1    0    0    0    0 -0.00000000000E+00 -0.00000000000E+00 -0.74505805969E-08  0.93827000000E+00  0.93827000000E+00 0. -1.
     999902    2    1    2    0    0 -0.48413133708E-02 -0.15616123238E-02  0.12547838854E-01  0.10303902360E+01  0.10303012731E+01 0.  0.
     999903    2    3    3    0    0  0.11405895554E+00 -0.58117947016E-01 -0.31484487396E-01  0.13950599064E+00  0.45645452928E-01 0.  0.
         14    1    1    2    0    0  0.48413133708E-02  0.15616123238E-02 -0.12547838854E-01  0.13539763961E-01  0.00000000000E+00 0. -1.
     999901    1    3    3    0    0 -0.11890026892E+00  0.56556334692E-01  0.44032326251E-01  0.89088424540E+00  0.88000000000E+00 0.  1.
        -11    1    4    4    0    0  0.10185019253E+00 -0.50285592859E-01 -0.10612097644E-01  0.11408321658E+00  0.51100000000E-03 0.  1.
         11    1    4    4    0    0  0.12208763011E-01 -0.78323541569E-02 -0.20872389752E-01  0.25422774059E-01  0.51100000000E-03 0. -1.
</event>
<event>
 8    1  0.2190512E+004  0.1043930E+01  0.7957747E-01            NaN
         13   -1    0    0    0    0  0.00000000000E+00  0.00000000000E+00  0.74505805969E-08  0.10566000000E+00  0.10566000000E+00 0. -1.
     999900   -1    0    0    0    0 -0.00000000000E+00 -0.00000000000E+00 -0.74505805969E-08  0.93827000000E+00  0.93827000000E+00 0.  1.
     999902    2    1    2    0    0  0.14452713578E-01  0.18024452371E-02 -0.73759177199E-03  0.10293466609E+01  0.10292433505E+01 0.  0.
     999903    2    3    3    0    0  0.12414884835E+00  0.18576031249E-01  0.46014619804E-01  0.14114602787E+00  0.45242131524E-01 0.  0.
         14    1    1    2    0    0 -0.14452713578E-01 -0.18024452371E-02  0.73759177199E-03  0.14583339131E-01  0.00000000000E+00 0.  1.
     999901    1    3    3    0    0 -0.10969613477E+00 -0.16773586012E-01 -0.46752211576E-01  0.88820063300E+00  0.88000000000E+00 0. -1.
        -11    1    4    4    0    0  0.65489715963E-01  0.14126034615E-01  0.47779484260E-01  0.82289659059E-01  0.51100000000E-03 0.  1.
         11    1    4    4    0    0  0.58659132385E-01  0.44499966345E-02 -0.17648644553E-02  0.58856368812E-01  0.51100000000E-03 0. -1.
</event>
<event>
 8    1  0.2190512E+004  0.1043930E+01  0.7957747E-01            NaN
         13   -1    0    0    0    0  0.00000000000E+00  0.00000000000E+00  0.74505805969E-08  0.10566000000E+00  0.10566000000E+00 0.  1.
     999900   -1    0    0    0    0 -0.00000000000E+00 -0.00000000000E+00 -0.74505805969E-08  0.93827000000E+00  0.93827000000E+00 0. -1.
     999902    2    1    2    0    0 -0.11662083739E-01  0.13702390698E-02 -0.71085487122E-02  0.10302036306E+01  0.10301121819E+01 0.  0.
     999903    2    3    3    0    0  0.11812543947E-01 -0.67980662672E-01 -0.11405566600E+00  0.14071035259E+00  0.45053320508E-01 0.  0.
         14    1    1    2    0    0  0.11662083739E-01 -0.13702390698E-02  0.71085487122E-02  0.13726369405E-01  0.00000000000E+00 0.  1.
     999901    1    3    3    0    0 -0.23474627686E-01  0.69350901742E-01  0.10694711728E+00  0.88949327800E+00  0.88000000000E+00 0.  1.
        -11    1    4    4    0    0 -0.15099798202E-01 -0.17730660129E-01 -0.48715686005E-01  0.53998698116E-01  0.51100000000E-03 0.  1.
         11    1    4    4    0    0  0.26912342149E-01 -0.50250002543E-01 -0.65339979992E-01  0.86711654476E-01  0.51100000000E-03 0. -1.
</event>
<event>
 8    1  0.2190512E+004  0.1043930E+01  0.7957747E-01            NaN
         13   -1    0    0    0    0  0.00000000000E+00  0.00000000000E+00  0.74505805969E-08  0.10566000000E+00  0.10566000000E+00 0.  1.
     999900   -1    0    0    0    0 -0.00000000000E+00 -0.00000000000E+00 -0.74505805969E-08  0.93827000000E+00  0.93827000000E+00 0.  1.
     999902    2    1    2    0    0 -0.49604674611E-02 -0.22692407411E-02 -0.11892790014E-01  0.10308458819E+01  0.10307628428E+01 0.  0.
     999903    2    3    3    0    0 -0.11861255951E+00  0.11518905424E-01  0.58939181744E-01  0.14060766707E+00  0.45771873876E-01 0.  0.
         14    1    1    2    0    0  0.49604674611E-02  0.22692407411E-02  0.11892790014E-01  0.13084118055E-01  0.00000000000E+00 0.  1.
     999901    1    3    3    0    0  0.11365209205E+00 -0.13788146165E-01 -0.70831971757E-01  0.89023821488E+00  0.88000000000E+00 0.  1.
        -11    1    4    4    0    0 -0.63932651673E-01  0.50853276003E-03  0.68750775709E-02  0.64305290359E-01  0.51100000000E-03 0. -1.
         11    1    4    4    0    0 -0.54679907838E-01  0.11010372664E-01  0.52064104173E-01  0.76302376711E-01  0.51100000000E-03 0.  1.
</event>
<event>
 8    1  0.2190512E+004  0.1043930E+01  0.7957747E-01            NaN
         13   -1    0    0    0    0  0.00000000000E+00  0.00000000000E+00  0.74505805969E-08  0.10566000000E+00  0.10566000000E+00 0.  1.
     999900   -1    0    0    0    0 -0.00000000000E+00 -0.00000000000E+00 -0.74505805969E-08  0.93827000000E+00  0.93827000000E+00 0. -1.
     999902    2    1    2    0    0 -0.12414732096E-01 -0.38039473346E-02  0.86118953659E-02  0.10283492320E+01  0.10282311913E+01 0.  0.
     999903    2    3    3    0    0 -0.10595599586E+00  0.12670496529E-01 -0.76058328328E-01  0.13919771396E+00  0.46945923378E-01 0.  0.
         14    1    1    2    0    0  0.12414732096E-01  0.38039473346E-02 -0.86118953659E-02  0.15580767957E-01  0.00000000000E+00 0. -1.
     999901    1    3    3    0    0  0.93541263768E-01 -0.16474443864E-01  0.84670223694E-01  0.88915151808E+00  0.88000000000E+00 0.  1.
        -11    1    4    4    0    0 -0.37486277668E-01  0.21649650639E-01 -0.48050414068E-01  0.64676361982E-01  0.51100000000E-03 0.  1.
         11    1    4    4    0    0 -0.68469718197E-01 -0.89791541095E-02 -0.28007914260E-01  0.74521351978E-01  0.51100000000E-03 0. -1.
</event>
<event>
 8    1  0.2190512E+004  0.1043930E+01  0.7957747E-01            NaN
         13   -1    0    0    0    0  0.00000000000E+00  0.00000000000E+00  0.74505805969E-08  0.10566000000E+00  0.10566000000E+00 0. -1.
     999900   -1    0    0    0    0 -0.00000000000E+00 -0.00000000000E+00 -0.74505805969E-08  0.93827000000E+00  0.93827000000E+00 0.  1.
     999902    2    1    2    0    0 -0.82459878517E-02  0.58135526629E-02  0.83363216328E-02  0.10308422970E+01  0.10307592121E+01 0.  0.
     999903    2    3    3    0    0 -0.12694697191E+00  0.44211069385E-01  0.97012020052E-02  0.14204189437E+00  0.44851244138E-01 0.  0.
         14    1    1    2    0    0  0.82459878517E-02 -0.58135526629E-02 -0.83363216328E-02  0.13087702953E-01  0.00000000000E+00 0. -1.
     999901    1    3    3    0    0  0.11870098406E+00 -0.38397516722E-01 -0.13648803725E-02  0.88880040268E+00  0.88000000000E+00 0. -1.
        -11    1    4    4    0    0 -0.11676949027E+00  0.37854773331E-01  0.22159303524E-01  0.12473729826E+00  0.51100000000E-03 0. -1.
         11    1    4    4    0    0 -0.10177481639E-01  0.63562960541E-02 -0.12458101519E-01  0.17304596109E-01  0.51100000000E-03 0.  1.
</event>
<event>
 8    1  0.2190512E+004  0.1043930E+01  0.7957747E-01            NaN
         13   -1    0    0    0    0  0.00000000000E+00  0.00000000000E+00  0.74505805969E-08  0.10566000000E+00  0.10566000000E+00 0.  1.
     999900   -1    0    0    0    0 -0.00000000000E+00 -0.00000000000E+00 -0.74505805969E-08  0.93827000000E+00  0.93827000000E+00 0. -1.
     999902    2    1    2    0    0 -0.65863498329E-03 -0.62510371114E-02  0.11339709585E-01  0.10309647280E+01  0.10308832000E+01 0.  0.
     999903    2    3    3    0    0 -0.72919324125E-01 -0.62312434727E-01  0.95044821613E-01  0.14227409943E+00  0.44814438530E-01 0.  0.
         14    1    1    2    0    0  0.65863498329E-03  0.62510371114E-02 -0.11339709585E-01  0.12965272017E-01  0.00000000000E+00 0. -1.
     999901    1    3    3    0    0  0.72260689142E-01  0.56061397616E-01 -0.83705112028E-01  0.88869062855E+00  0.88000000000E+00 0. -1.
        -11    1    4    4    0    0 -0.32328184326E-01 -0.15893673690E-01  0.63500931376E-01  0.73009244427E-01  0.51100000000E-03 0. -1.
         11    1    4    4    0    0 -0.40591139799E-01 -0.46418761037E-01  0.31543890237E-01  0.69264855003E-01  0.51100000000E-03 0.  1.
</event>
<event>
 8    1  0.2190512E+004  0.1043930E+01  0.7957747E-01            NaN
         13   -1    0    0    0    0  0.00000000000E+00  0.00000000000E+00  0.74505805969E-08  0.10566000000E+00  0.10566000000E+00 0.  1.
     999900   -1    0    0    0    0 -0.00000000000E+00 -0.00000000000E+00 -0.74505805969E-08  0.93827000000E+00  0.93827000000E+00 0. -1.
     999902    2    1    2    0    0  0.61068251687E-02  0.86742292863E-02 -0.33119379617E-02  0.10328167421E+01  0.10327569503E+01 0.  0.
     999903    2    3    3    0    0 -0.10880218627E+00  0.53065893610E-01  0.58959273552E-01  0.14205728832E+00  0.45278829763E-01 0.  0.
         14    1    1    2    0    0 -0.61068251687E-02 -0.86742292863E-02  0.33119379617E-02  0.11113257867E-01  0.00000000000E+00 0. -1.
     999901    1    3    3    0    0  0.11490901144E+00 -0.44391664324E-01 -0.62271211513E-01  0.89075945381E+00  0.88000000000E+00 0.  1.
        -11    1    4    4    0    0 -0.77090091239E-01  0.31772144187E-01  0.61744587079E-01  0.10375454914E+00  0.51100000000E-03 0.  1.
         11    1    4    4    0    0 -0.31712095036E-01  0.21293749423E-01 -0.27853135277E-02  0.38302739178E-01  0.51100000000E-03 0. -1.
</event>
<event>
 8    1  0.2190512E+004  0.1043930E+01  0.7957747E-01            NaN
         13   -1    0    0    0    0  0.00000000000E+00  0.00000000000E+00  0.74505805969E-08  0.10566000000E+00  0.10566000000E+00 0.  1.
     999900   -1    0    0    0    0 -0.00000000000E+00 -0.00000000000E+00 -0.74505805969E-08  0.93827000000E+00  0.93827000000E+00 0.  1.
     999902    2    1    2    0    0  0.83187632814E-02  0.10259747911E-01  0.36649997224E-02  0.10302224666E+01  0.10301312704E+01 0.  0.
     999903    2    3    3    0    0 -0.83553768480E-01 -0.99212284261E-01  0.18390595950E-01  0.13857145238E+00  0.45161087458E-01 0.  0.
         14    1    1    2    0    0 -0.83187632814E-02 -0.10259747911E-01 -0.36649997224E-02  0.13707533429E-01  0.00000000000E+00 0.  1.
     999901    1    3    3    0    0  0.91872531762E-01  0.10947203217E+00 -0.14725596228E-01  0.89165101419E+00  0.88000000000E+00 0.  1.
        -11    1    4    4    0    0 -0.74653271782E-01 -0.70357218969E-01  0.28928215936E-01  0.10658495225E+00  0.51100000000E-03 0. -1.
         11    1    4    4    0    0 -0.89004966984E-02 -0.28855065292E-01 -0.10537619986E-01  0.31986500128E-01  0.51100000000E-03 0.  1.
</event>
<event>
 8    1  0.2190512E+004  0.1043930E+01  0.7957747E-01            NaN
         13   -1    0    0    0    0  0.00000000000E+00  0.00000000000E+00  0.74505805969E-08  0.10566000000E+00  0.10566000000E+00 0.  1.
     999900   -1    0    0    0    0 -0.00000000000E+00 -0.00000000000E+00 -0.74505805969E-08  0.93827000000E+00  0.93827000000E+00 0.  1.
     999902    2    1    2    0    0  0.31369397348E-02 -0.12266712865E-01 -0.68044424852E-02  0.10295559584E+01  0.10294556126E+01 0.  0.
     999903    2    3    3    0    0  0.12728163101E+00 -0.36794056022E-01  0.10969037772E-01  0.14032629650E+00  0.44908056627E-01 0.  0.
         14    1    1    2    0    0 -0.31369397348E-02  0.12266712865E-01  0.68044424852E-02  0.14374041636E-01  0.00000000000E+00 0.  1.
     999901    1    3    3    0    0 -0.12414469127E+00  0.24527343157E-01 -0.17773480258E-01  0.88922966186E+00  0.88000000000E+00 0. -1.
        -11    1    4    4    0    0  0.11130174133E+00 -0.17061955017E-01 -0.14845420670E-03  0.11260315755E+00  0.51100000000E-03 0.  1.
         11    1    4    4    0    0  0.15979889680E-01 -0.19732101005E-01  0.11117491979E-01  0.27723138949E-01  0.51100000000E-03 0. -1.
</event>
<event>
 8    1  0.2190512E+004  0.1043930E+01  0.7957747E-01            NaN
         13   -1    0    0    0    0  0.00000000000E+00  0.00000000000E+00  0.74505805969E-08  0.10566000000E+00  0.10566000000E+00 0.  1.
     999900   -1    0    0    0    0 -0.00000000000E+00 -0.00000000000E+00 -0.74505805969E-08  0.93827000000E+00  0.93827000000E+00 0. -1.
     999902    2    1    2    0    0  0.10946124064E-02  0.52621895935E-02  0.12878287020E-01  0.10299751051E+01  0.10298805649E+01 0.  0.
     999903    2    3    3    0    0  0.59223601827E-02 -0.12567327798E+00  0.41392793180E-01  0.13981754550E+00  0.44796602033E-01 0.  0.
         14    1    1    2    0    0 -0.10946124064E-02 -0.52621895935E-02 -0.12878287020E-01  0.13954894919E-01  0.00000000000E+00 0.  1.
     999901    1    3    3    0    0 -0.48277477763E-02  0.13093546757E+00 -0.28514506160E-01  0.89015755958E+00  0.88000000000E+00 0.  1.
        -11    1    4    4    0    0 -0.76441615913E-02 -0.80988203504E-01  0.45017765450E-01  0.92975172172E-01  0.51100000000E-03 0. -1.
         11    1    4    4    0    0  0.13566521774E-01 -0.44685074477E-01 -0.36249722698E-02  0.46842373328E-01  0.51100000000E-03 0.  1.
</event>
<event>
 8    1  0.2190512E+004  0.1043930E+01  0.7957747E-01            NaN
         13   -1    0    0    0    0  0.00000000000E+00  0.00000000000E+00  0.74505805969E-08  0.10566000000E+00  0.10566000000E+00 0. -1.
     999900   -1    0    0    0    0 -0.00000000000E+00 -0.00000000000E+00 -0.74505805969E-08  0.93827000000E+00  0.93827000000E+00 0. -1.
     999902    2    1    2    0    0 -0.83264985721E-02  0.10853515293E-01  0.73563364792E-03  0.10302307106E+01  0.10301396248E+01 0.  0.
     999903    2    3    3    0    0 -0.62593445246E-01  0.34547682129E-01 -0.11366433586E+00  0.14085246259E+00  0.42524736831E-01 0.  0.
         14    1    1    2    0    0  0.83264985721E-02 -0.10853515293E-01 -0.73563364792E-03  0.13699289381E-01  0.00000000000E+00 0.  1.
     999901    1    3    3    0    0  0.54266946674E-01 -0.23694166835E-01  0.11439996951E+00  0.88937824803E+00  0.88000000000E+00 0.  1.
        -11    1    4    4    0    0 -0.15443946143E-01  0.11198996937E-01 -0.69763728280E-01  0.72326840864E-01  0.51100000000E-03 0.  1.
         11    1    4    4    0    0 -0.47149499103E-01  0.23348685192E-01 -0.43900607581E-01  0.68525621725E-01  0.51100000000E-03 0. -1.
</event>
<event>
 8    1  0.2190512E+004  0.1043930E+01  0.7957747E-01            NaN
         13   -1    0    0    0    0  0.00000000000E+00  0.00000000000E+00  0.74505805969E-08  0.10566000000E+00  0.10566000000E+00 0.  1.
     999900   -1    0    0    0    0 -0.00000000000E+00 -0.00000000000E+00 -0.74505805969E-08  0.93827000000E+00  0.93827000000E+00 0. -1.
     999902    2    1    2    0    0 -0.76030898213E-02  0.48817428476E-03  0.52523588395E-03  0.10362931707E+01  0.10362650310E+01 0.  0.
     999903    2    3    3    0    0  0.10510797923E+00  0.51672195157E-01  0.72430452880E-01  0.14472491795E+00  0.44513237612E-01 0.  0.
         14    1    1    2    0    0  0.76030898213E-02 -0.48817428476E-03 -0.52523588395E-03  0.76368292961E-02  0.00000000000E+00 0.  1.
     999901    1    3    3    0    0 -0.11271106905E+00 -0.51184020872E-01 -0.71905216996E-01  0.89156825275E+00  0.88000000000E+00 0. -1.
        -11    1    4    4    0    0  0.16888475461E-01  0.27083837890E-01  0.84977469626E-02  0.33033735827E-01  0.51100000000E-03 0. -1.
         11    1    4    4    0    0  0.88219503768E-01  0.24588357267E-01  0.63932705918E-01  0.11169118213E+00  0.51100000000E-03 0.  1.
</event>
<event>
 8    1  0.2190512E+004  0.1043930E+01  0.7957747E-01            NaN
         13   -1    0    0    0    0  0.00000000000E+00  0.00000000000E+00  0.74505805969E-08  0.10566000000E+00  0.10566000000E+00 0.  1.
     999900   -1    0    0    0    0 -0.00000000000E+00 -0.00000000000E+00 -0.74505805969E-08  0.93827000000E+00  0.93827000000E+00 0.  1.
     999902    2    1    2    0    0  0.41967016839E-02  0.20330186458E-02  0.11591720813E-01  0.10314354627E+01  0.10313597822E+01 0.  0.
     999903    2    3    3    0    0  0.55454336860E-01  0.45250033021E-01 -0.11192075882E+00  0.14028430378E+00  0.45063074311E-01 0.  0.
         14    1    1    2    0    0 -0.41967016839E-02 -0.20330186458E-02 -0.11591720813E-01  0.12494537256E-01  0.00000000000E+00 0. -1.
     999901    1    3    3    0    0 -0.51257635177E-01 -0.43217014375E-01  0.12351247964E+00  0.89115115896E+00  0.88000000000E+00 0. -1.
        -11    1    4    4    0    0  0.56776028609E-01  0.21389193911E-01 -0.80671345463E-01  0.10094128066E+00  0.51100000000E-03 0. -1.
         11    1    4    4    0    0 -0.13216917488E-02  0.23860839110E-01 -0.31249413361E-01  0.39343023124E-01  0.51100000000E-03 0.  1.
</event>
<event>
 8    1  0.2190512E+004  0.1043930E+01  0.7957747E-01            NaN
         13   -1    0    0    0    0  0.00000000000E+00  0.00000000000E+00  0.74505805969E-08  0.10566000000E+00  0.10566000000E+00 0.  1.
     999900   -1    0    0    0    0 -0.00000000000E+00 -0.00000000000E+00 -0.74505805969E-08  0.93827000000E+00  0.93827000000E+00 0. -1.
     999902    2    1    2    0    0 -0.22870986646E-03  0.14346444409E-01 -0.19530259365E-01  0.10196956482E+01  0.10194076276E+01 0.  0.
     999903    2    3    3    0    0 -0.44222610730E-01  0.98454904469E-01  0.59528604814E-01  0.13106749180E+00  0.44564841558E-01 0.  0.
         14    1    1    2    0    0  0.22870986646E-03 -0.14346444409E-01  0.19530259365E-01  0.24234351781E-01  0.00000000000E+00 0.  1.
     999901    1    3    3    0    0  0.43993900864E-01 -0.84108460061E-01 -0.79058864179E-01  0.88862815641E+00  0.88000000000E+00 0. -1.
        -11    1    4    4    0    0 -0.50775813464E-01  0.84831267600E-01  0.60500485271E-01  0.11590986599E+00  0.51100000000E-03 0. -1.
         11    1    4    4    0    0  0.65532027341E-02  0.13623636869E-01 -0.97188045679E-03  0.15157625812E-01  0.51100000000E-03 0.  1.
</event>
<event>
 8    1  0.2190512E+004  0.1043930E+01  0.7957747E-01            NaN
         13   -1    0    0    0    0  0.00000000000E+00  0.00000000000E+00  0.74505805969E-08  0.10566000000E+00  0.10566000000E+00 0.  1.
     999900   -1    0    0    0    0 -0.00000000000E+00 -0.00000000000E+00 -0.74505805969E-08  0.93827000000E+00  0.93827000000E+00 0. -1.
     999902    2    1    2    0    0 -0.59441405913E-02 -0.74408756093E-02  0.96769835284E-02  0.10303526863E+01  0.10302632259E+01 0.  0.
     999903    2    3    3    0    0 -0.39501844587E-01  0.25408498673E-01 -0.12302623700E+00  0.13916508224E+00  0.45005306267E-01 0.  0.
         14    1    1    2    0    0  0.59441405913E-02  0.74408756093E-02 -0.96769835284E-02  0.13577313704E-01  0.00000000000E+00 0. -1.
     999901    1    3    3    0    0  0.33557703995E-01 -0.32849374282E-01  0.13270322053E+00  0.89118760406E+00  0.88000000000E+00 0.  1.
        -11    1    4    4    0    0 -0.37758354553E-01  0.69937526963E-02 -0.45885278352E-01  0.59835823766E-01  0.51100000000E-03 0. -1.
         11    1    4    4    0    0 -0.17434900339E-02  0.18414745976E-01 -0.77140958652E-01  0.79329258471E-01  0.51100000000E-03 0.  1.
</event>
<event>
 8    1  0.2190512E+004  0.1043930E+01  0.7957747E-01            NaN
         13   -1    0    0    0    0  0.00000000000E+00  0.00000000000E+00  0.74505805969E-08  0.10566000000E+00  0.10566000000E+00 0.  1.
     999900   -1    0    0    0    0 -0.00000000000E+00 -0.00000000000E+00 -0.74505805969E-08  0.93827000000E+00  0.93827000000E+00 0.  1.
     999902    2    1    2    0    0  0.13512269290E-01  0.23230017095E-02  0.23355537906E-03  0.10302175128E+01  0.10301262502E+01 0.  0.
     999903    2    3    3    0    0  0.94604521457E-01 -0.22403324769E-01 -0.93075196199E-01  0.14123277290E+00  0.42799293822E-01 0.  0.
         14    1    1    2    0    0 -0.13512269290E-01 -0.23230017095E-02 -0.23355537906E-03  0.13712487245E-01  0.00000000000E+00 0. -1.
     999901    1    3    3    0    0 -0.81092252166E-01  0.24726326479E-01  0.93308751578E-01  0.88898473986E+00  0.88000000000E+00 0. -1.
        -11    1    4    4    0    0  0.77333942345E-01 -0.21601968686E-01 -0.49444132696E-01  0.94298287730E-01  0.51100000000E-03 0. -1.
         11    1    4    4    0    0  0.17270579112E-01 -0.80135608353E-03 -0.43631063503E-01  0.46934485166E-01  0.51100000000E-03 0.  1.
</event>
<event>
 8    1  0.2190512E+004  0.1043930E+01  0.7957747E-01            NaN
         13   -1    0    0    0    0  0.00000000000E+00  0.00000000000E+00  0.74505805969E-08  0.10566000000E+00  0.10566000000E+00 0.  1.
     999900   -1    0    0    0    0 -0.00000000000E+00 -0.00000000000E+00 -0.74505805969E-08  0.93827000000E+00  0.93827000000E+00 0.  1.
     999902    2    1    2    0    0  0.10343008645E-01 -0.21216199144E-02  0.12865591452E-01  0.10272866066E+01  0.10271517754E+01 0.  0.
     999903    2    3    3    0    0  0.10431513368E+00  0.75914780119E-01  0.23966427437E-01  0.13878018091E+00  0.45175745854E-01 0.  0.
         14    1    1    2    0    0 -0.10343008645E-01  0.21216199144E-02 -0.12865591452E-01  0.16643393353E-01  0.00000000000E+00 0. -1.
     999901    1    3    3    0    0 -0.93972125039E-01 -0.78036400034E-01 -0.11100835985E-01  0.88850642574E+00  0.88000000000E+00 0. -1.
        -11    1    4    4    0    0  0.61510742197E-01  0.40038672114E-01 -0.89655410841E-02  0.73941251803E-01  0.51100000000E-03 0. -1.
         11    1    4    4    0    0  0.42804391487E-01  0.35876108006E-01  0.32931968521E-01  0.64838929108E-01  0.51100000000E-03 0.  1.
</event>
<event>
 8    1  0.2190512E+004  0.1043930E+01  0.7957747E-01            NaN
         13   -1    0    0    0    0  0.00000000000E+00  0.00000000000E+00  0.74505805969E-08  0.10566000000E+00  0.10566000000E+00 0. -1.
     999900   -1    0    0    0    0 -0.00000000000E+00 -0.00000000000E+00 -0.74505805969E-08  0.93827000000E+00  0.93827000000E+00 0. -1.
     999902    2    1    2    0    0 -0.94881015468E-02 -0.92004781533E-02  0.14713621820E-02  0.10306319635E+01  0.10305461689E+01 0.  0.
     999903    2    3    3    0    0 -0.94950740533E-01 -0.96123656409E-01  0.20560796657E-02  0.14222898987E+00  0.44378571939E-01 0.  0.
         14    1    1    2    0    0  0.94881015468E-02  0.92004781533E-02 -0.14713621820E-02  0.13298036542E-01  0.00000000000E+00 0.  1.
     999901    1    3    3    0    0  0.85462638987E-01  0.86923178255E-01 -0.58471748367E-03  0.88840297359E+00  0.88000000000E+00 0.  1.
        -11    1    4    4    0    0 -0.45935586998E-01 -0.64150438968E-01  0.19278637224E-01  0.81223666175E-01  0.51100000000E-03 0. -1.
         11    1    4    4    0    0 -0.49015153535E-01 -0.31973217441E-01 -0.17222557558E-01  0.61005323698E-01  0.51100000000E-03 0.  1.
</event>
<event>
 8    1  0.2190512E+004  0.1043930E+01  0.7957747E-01            NaN
         13   -1    0    0    0    0  0.00000000000E+00  0.00000000000E+00  0.74505805969E-08  0.10566000000E+00  0.10566000000E+00 0.  1.
     999900   -1    0    0    0    0 -0.00000000000E+00 -0.00000000000E+00 -0.74505805969E-08  0.93827000000E+00  0.93827000000E+00 0.  1.
     999902    2    1    2    0    0  0.11637567424E-01  0.37155570749E-02 -0.69169758979E-02  0.10298913784E+01  0.10297956926E+01 0.  0.
     999903    2    3    3    0    0 -0.11830678099E+00  0.14798531574E-01  0.53548327920E-01  0.13822752979E+00  0.44988171839E-01 0.  0.
         14    1    1    2    0    0 -0.11637567424E-01 -0.37155570749E-02  0.69169758979E-02  0.14038621567E-01  0.00000000000E+00 0.  1.
     999901    1    3    3    0    0  0.12994434841E+00 -0.11082974499E-01 -0.60465303818E-01  0.89166384864E+00  0.88000000000E+00 0.  1.
        -11    1    4    4    0    0 -0.50175874384E-01  0.12432981437E-01  0.46778017464E-01  0.69718300585E-01  0.51100000000E-03 0.  1.
         11    1    4    4    0    0 -0.68130906602E-01  0.23655501371E-02  0.67703104557E-02  0.68509229207E-01  0.51100000000E-03 0. -1.
</event>
<event>
 8    1  0.2190512E+004  0.1043930E+01  0.7957747E-01            NaN
         13   -1    0    0    0    0  0.00000000000E+00  0.00000000000E+00  0.74505805969E-08  0.10566000000E+00  0.10566000000E+00 0.  1.
     999900   -1    0    0    0    0 -0.00000000000E+00 -0.00000000000E+00 -0.74505805969E-08  0.93827000000E+00  0.93827000000E+00 0.  1.
     999902    2    1    2    0    0  0.60508098552E-02 -0.77878709488E-02  0.14705197554E-01  0.10262238974E+01  0.10260711386E+01 0.  0.
     999903    2    3    3    0    0 -0.95160385202E-01  0.29436726187E-01 -0.78939235581E-01  0.13470908738E+00  0.44644322702E-01 0.  0.
         14    1    1    2    0    0 -0.60508098552E-02  0.77878709488E-02 -0.14705197554E-01  0.17706102590E-01  0.00000000000E+00 0. -1.
     999901    1    3    3    0    0  0.10121119506E+00 -0.37224597136E-01  0.93644433135E-01  0.89151481003E+00  0.88000000000E+00 0.  1.
        -11    1    4    4    0    0 -0.56900804597E-01  0.24843687436E-01 -0.21834864778E-01  0.65817420263E-01  0.51100000000E-03 0. -1.
         11    1    4    4    0    0 -0.38259580605E-01  0.45930387509E-02 -0.57104370803E-01  0.68891667122E-01  0.51100000000E-03 0.  1.
</event>
<event>
 8    1  0.2190512E+004  0.1043930E+01  0.7957747E-01            NaN
         13   -1    0    0    0    0  0.00000000000E+00  0.00000000000E+00  0.74505805969E-08  0.10566000000E+00  0.10566000000E+00 0. -1.
     999900   -1    0    0    0    0 -0.00000000000E+00 -0.00000000000E+00 -0.74505805969E-08  0.93827000000E+00  0.93827000000E+00 0.  1.
     999902    2    1    2    0    0 -0.13177665102E-01  0.44909729322E-02  0.25358974258E-02  0.10297790117E+01  0.10296817772E+01 0.  0.
     999903    2    3    3    0    0 -0.61446765513E-01 -0.10209191821E+00  0.57858870633E-01  0.14031262662E+00  0.46276554794E-01 0.  0.
         14    1    1    2    0    0  0.13177665102E-01 -0.44909729322E-02 -0.25358974258E-02  0.14150988346E-01  0.00000000000E+00 0.  1.
     999901    1    3    3    0    0  0.48269100412E-01  0.10658289114E+00 -0.55322973207E-01  0.88946638503E+00  0.88000000000E+00 0.  1.
        -11    1    4    4    0    0 -0.64472211325E-02 -0.42344235786E-01  0.43416048763E-02  0.43054751405E-01  0.51100000000E-03 0. -1.
         11    1    4    4    0    0 -0.54999544381E-01 -0.59747682420E-01  0.53517265757E-01  0.97257875217E-01  0.51100000000E-03 0.  1.
</event>
<event>
 8    1  0.2190512E+004  0.1043930E+01  0.7957747E-01            NaN
         13   -1    0    0    0    0  0.00000000000E+00  0.00000000000E+00  0.74505805969E-08  0.10566000000E+00  0.10566000000E+00 0. -1.
     999900   -1    0    0    0    0 -0.00000000000E+00 -0.00000000000E+00 -0.74505805969E-08  0.93827000000E+00  0.93827000000E+00 0.  1.
     999902    2    1    2    0    0  0.10285697172E-01 -0.52602993342E-02  0.73621306098E-02  0.10302308291E+01  0.10301397449E+01 0.  0.
     999903    2    3    3    0    0  0.15676405796E-03 -0.12531855182E+00  0.42351578432E-01  0.14133216183E+00  0.49763036143E-01 0.  0.
         14    1    1    2    0    0 -0.10285697172E-01  0.52602993342E-02 -0.73621306098E-02  0.13699170870E-01  0.00000000000E+00 0. -1.
     999901    1    3    3    0    0  0.10128933114E-01  0.12005825248E+00 -0.34989447822E-01  0.88889866730E+00  0.88000000000E+00 0. -1.
        -11    1    4    4    0    0  0.10606307532E-01 -0.10415756327E+00  0.15931733269E-01  0.10590265810E+00  0.51100000000E-03 0.  1.
         11    1    4    4    0    0 -0.10449543474E-01 -0.21160988548E-01  0.26419845163E-01  0.35429503731E-01  0.51100000000E-03 0. -1.
</event>
<event>
 8    1  0.2190512E+004  0.1043930E+01  0.7957747E-01            NaN
         13   -1    0    0    0    0  0.00000000000E+00  0.00000000000E+00  0.74505805969E-08  0.10566000000E+00  0.10566000000E+00 0. -1.
     999900   -1    0    0    0    0 -0.00000000000E+00 -0.00000000000E+00 -0.74505805969E-08  0.93827000000E+00  0.93827000000E+00 0. -1.
     999902    2    1    2    0    0 -0.53548034831E-02  0.18265915834E-02  0.13146964592E-01  0.10296173121E+01  0.10295178271E+01 0.  0.
     999903    2    3    3    0    0  0.15346865956E-01 -0.27448297429E-02  0.13278222647E+00  0.14126937750E+00  0.45638327827E-01 0.  0.
         14    1    1    2    0    0  0.53548034831E-02 -0.18265915834E-02 -0.13146964592E-01  0.14312687908E-01  0.00000000000E+00 0.  1.
     999901    1    3    3    0    0 -0.20701669439E-01  0.45714213263E-02 -0.11963526188E+00  0.88834793459E+00  0.88000000000E+00 0. -1.
        -11    1    4    4    0    0  0.18919667982E-01  0.13276218362E-01  0.11399747666E+00  0.11631808809E+00  0.51100000000E-03 0. -1.
         11    1    4    4    0    0 -0.35728020258E-02 -0.16021048105E-01  0.18784749809E-01  0.24951289407E-01  0.51100000000E-03 0.  1.
</event>
<event>
 8    1  0.2190512E+004  0.1043930E+01  0.7957747E-01            NaN
         13   -1    0    0    0    0  0.00000000000E+00  0.00000000000E+00  0.74505805969E-08  0.10566000000E+00  0.10566000000E+00 0.  1.
     999900   -1    0    0    0    0 -0.00000000000E+00 -0.00000000000E+00 -0.74505805969E-08  0.93827000000E+00  0.93827000000E+00 0. -1.
     999902    2    1    2    0    0 -0.64392032248E-02  0.12818153456E-01 -0.35445574720E-02  0.10291539287E+01  0.10290478495E+01 0.  0.
     999903    2    3    3    0    0 -0.13170927818E+00 -0.96353539655E-02 -0.20988244548E-02  0.13999767592E+00  0.46419502297E-01 0.  0.
         14    1    1    2    0    0  0.64392032248E-02 -0.12818153456E-01  0.35445574720E-02  0.14776071327E-01  0.00000000000E+00 0. -1.
     999901    1    3    3    0    0  0.12527007495E+00  0.22453507421E-01 -0.14457330172E-02  0.88915625276E+00  0.88000000000E+00 0.  1.
        -11    1    4    4    0    0 -0.55032810694E-01  0.18862556990E-01 -0.56342393712E-03  0.58180622862E-01  0.51100000000E-03 0.  1.
         11    1    4    4    0    0 -0.76676467483E-01 -0.28497910956E-01 -0.15354005177E-02  0.81817053053E-01  0.51100000000E-03 0. -1.
</event>
<event>
 8    1  0.2190512E+004  0.1043930E+01  0.7957747E-01            NaN
         13   -1    0    0    0    0  0.00000000000E+00  0.00000000000E+00  0.74505805969E-08  0.10566000000E+00  0.10566000000E+00 0.  1.
     999900   -1    0    0    0    0 -0.00000000000E+00 -0.00000000000E+00 -0.74505805969E-08  0.93827000000E+00  0.93827000000E+00 0.  1.
     999902    2    1    2    0    0  0.36352554762E-02 -0.76972189997E-02  0.11049025433E-01  0.10299821247E+01  0.10298876803E+01 0.  0.
     999903    2    3    3    0    0  0.33675892224E-02 -0.57717805525E-01  0.12125612764E+00  0.14169853478E+00  0.45085923939E-01 0.  0.
         14    1    1    2    0    0 -0.36352554762E-02  0.76972189997E-02 -0.11049025433E-01  0.13947875312E-01  0.00000000000E+00 0.  1.
     999901    1    3    3    0    0  0.26766625379E-03  0.50020586525E-01 -0.11020710221E+00  0.88828358991E+00  0.88000000000E+00 0.  1.
        -11    1    4    4    0    0 -0.32043123660E-02 -0.63199534075E-01  0.11433699071E+00  0.13068151090E+00  0.51100000000E-03 0. -1.
         11    1    4    4    0    0  0.65719015884E-02  0.54817285498E-02  0.69191369248E-02  0.11017023880E-01  0.51100000000E-03 0.  1.
</event>
<event>
 8    1  0.2190512E+004  0.1043930E+01  0.7957747E-01            NaN
         13   -1    0    0    0    0  0.00000000000E+00  0.00000000000E+00  0.74505805969E-08  0.10566000000E+00  0.10566000000E+00 0. -1.
     999900   -1    0    0    0    0 -0.00000000000E+00 -0.00000000000E+00 -0.74505805969E-08  0.93827000000E+00  0.93827000000E+00 0. -1.
     999902    2    1    2    0    0 -0.10053034255E-01 -0.55831648373E-02 -0.72829400727E-02  0.10303183710E+01  0.10302284549E+01 0.  0.
     999903    2    3    3    0    0  0.69185390847E-01 -0.74993948651E-01 -0.84786935955E-01  0.14065357218E+00  0.46732132600E-01 0.  0.
         14    1    1    2    0    0  0.10053034255E-01  0.55831648373E-02  0.72829400727E-02  0.13611628978E-01  0.00000000000E+00 0.  1.
     999901    1    3    3    0    0 -0.79238425102E-01  0.69410783813E-01  0.77503995882E-01  0.88966479884E+00  0.88000000000E+00 0.  1.
        -11    1    4    4    0    0  0.21113927092E-01  0.16582318303E-02 -0.10826954676E-01  0.23791421113E-01  0.51100000000E-03 0.  1.
         11    1    4    4    0    0  0.48071463755E-01 -0.76652180481E-01 -0.73959981278E-01  0.11686215107E+00  0.51100000000E-03 0. -1.
</event>
<event>
 8    1  0.2190512E+004  0.1043930E+01  0.7957747E-01            NaN
         13   -1    0    0    0    0  0.00000000000E+00  0.00000000000E+00  0.74505805969E-08  0.10566000000E+00  0.10566000000E+00 0.  1.
     999900   -1    0    0    0    0 -0.00000000000E+00 -0.00000000000E+00 -0.74505805969E-08  0.93827000000E+00  0.93827000000E+00 0. -1.
     999902    2    1    2    0    0  0.41911735005E-02 -0.14030151549E-01 -0.96187927180E-03  0.10292556585E+01  0.10291510454E+01 0.  0.
     999903    2    3    3    0    0  0.39617446379E-01  0.12255987375E+00  0.21475127285E-01  0.13773152806E+00  0.43798721671E-01 0.  0.
         14    1    1    2    0    0 -0.41911735005E-02  0.14030151549E-01  0.96187927180E-03  0.14674341536E-01  0.00000000000E+00 0.  1.
     999901    1    3    3    0    0 -0.35426272878E-01 -0.13659002530E+00 -0.22437006557E-01  0.89152413040E+00  0.88000000000E+00 0. -1.
        -11    1    4    4    0    0  0.29091977054E-01  0.12133155232E+00  0.16001352750E-01  0.12579345424E+00  0.51100000000E-03 0.  1.
         11    1    4    4    0    0  0.10525469325E-01  0.12283214257E-02  0.54737745351E-02  0.11938073827E-01  0.51100000000E-03 0. -1.
</event>
<event>
 8    1  0.2190512E+004  0.1043930E+01  0.7957747E-01            NaN
         13   -1    0    0    0    0  0.00000000000E+00  0.00000000000E+00  0.74505805969E-08  0.10566000000E+00  0.10566000000E+00 0.  1.
     999900   -1    0    0    0    0 -0.00000000000E+00 -0.00000000000E+00 -0.74505805969E-08  0.93827000000E+00  0.93827000000E+00 0.  1.
     999902    2    1    2    0    0 -0.11029436783E-01 -0.85667432621E-02 -0.47397681543E-04  0.10299643345E+01  0.10298696474E+01 0.  0.
     999903    2    3    3    0    0  0.66554152939E-01 -0.10935669587E+00  0.32852914571E-01  0.14021141461E+00  0.46814363025E-01 0.  0.
         14    1    1    2    0    0  0.11029436783E-01  0.85667432621E-02  0.47397681543E-04  0.13965665484E-01  0.00000000000E+00 0.  1.
     999901    1    3    3    0    0 -0.77583589721E-01  0.10078995261E+00 -0.32900312252E-01  0.88975291991E+00  0.88000000000E+00 0.  1.
        -11    1    4    4    0    0  0.57378936748E-01 -0.51945464854E-01  0.11391512612E-01  0.78234911528E-01  0.51100000000E-03 0. -1.
         11    1    4    4    0    0  0.91752161912E-02 -0.57411231016E-01  0.21461401959E-01  0.61976503079E-01  0.51100000000E-03 0.  1.
</event>
<event>
 8    1  0.2190512E+004  0.1043930E+01  0.7957747E-01            NaN
         13   -1    0    0    0    0  0.00000000000E+00  0.00000000000E+00  0.74505805969E-08  0.10566000000E+00  0.10566000000E+00 0.  1.
     999900   -1    0    0    0    0 -0.00000000000E+00 -0.00000000000E+00 -0.74505805969E-08  0.93827000000E+00  0.93827000000E+00 0.  1.
     999902    2    1    2    0    0 -0.55534755395E-02  0.99068405303E-02 -0.83641250150E-02  0.10298252077E+01  0.10297286114E+01 0.  0.
     999903    2    3    3    0    0  0.52911171033E-01  0.17859371707E-01 -0.12100428248E+00  0.14068564452E+00  0.45076213453E-01 0.  0.
         14    1    1    2    0    0  0.55534755395E-02 -0.99068405303E-02  0.83641250150E-02  0.14104792346E-01  0.00000000000E+00 0. -1.
     999901    1    3    3    0    0 -0.58464646573E-01 -0.79525311767E-02  0.11264015746E+00  0.88913956313E+00  0.88000000000E+00 0. -1.
        -11    1    4    4    0    0  0.21970589522E-01 -0.14149640608E-01 -0.57141050404E-01  0.62835339544E-01  0.51100000000E-03 0.  1.
         11    1    4    4    0    0  0.30940581512E-01  0.32009012315E-01 -0.63863232073E-01  0.77850304980E-01  0.51100000000E-03 0. -1.
</event>
<event>
 8    1  0.2190512E+004  0.1043930E+01  0.7957747E-01            NaN
         13   -1    0    0    0    0  0.00000000000E+00  0.00000000000E+00  0.74505805969E-08  0.10566000000E+00  0.10566000000E+00 0.  1.
     999900   -1    0    0    0    0 -0.00000000000E+00 -0.00000000000E+00 -0.74505805969E-08  0.93827000000E+00  0.93827000000E+00 0. -1.
     999902    2    1    2    0    0  0.98851990374E-02  0.98090477015E-02  0.16713159360E-02  0.10299040286E+01  0.10298085163E+01 0.  0.
     999903    2    3    3    0    0 -0.66647239480E-01  0.11402458005E+00  0.15090889276E-01  0.14035460542E+00  0.45035773982E-01 0.  0.
         14    1    1    2    0    0 -0.98851990374E-02 -0.98090477015E-02 -0.16713159360E-02  0.14025971402E-01  0.00000000000E+00 0.  1.
     999901    1    3    3    0    0  0.76532438517E-01 -0.10421553235E+00 -0.13419573340E-01  0.88954942318E+00  0.88000000000E+00 0.  1.
        -11    1    4    4    0    0 -0.96319594466E-02  0.33266749159E-02  0.12062031398E-01  0.15798580038E-01  0.51100000000E-03 0.  1.
         11    1    4    4    0    0 -0.57015280033E-01  0.11069790513E+00  0.30288578778E-02  0.12455602538E+00  0.51100000000E-03 0. -1.
</event>
<event>
 8    1  0.2190512E+004  0.1043930E+01  0.7957747E-01            NaN
         13   -1    0    0    0    0  0.00000000000E+00  0.00000000000E+00  0.74505805969E-08  0.10566000000E+00  0.10566000000E+00 0. -1.
     999900   -1    0    0    0    0 -0.00000000000E+00 -0.00000000000E+00 -0.74505805969E-08  0.93827000000E+00  0.93827000000E+00 0.  1.
     999902    2    1    2    0    0 -0.70739370280E-03 -0.40298614169E-02  0.13348998034E-01  0.10299680540E+01  0.10298734176E+01 0.  0.
     999903    2    3    3    0    0 -0.83261930969E-01 -0.87762546583E-01 -0.51790893658E-01  0.13976042667E+00  0.47072990824E-01 0.  0.
         14    1    1    2    0    0  0.70739370280E-03  0.40298614169E-02 -0.13348998034E-01  0.13961946046E-01  0.00000000000E+00 0.  1.
     999901    1    3    3    0    0  0.82554537266E-01  0.83732685166E-01  0.65139891692E-01  0.89020762729E+00  0.88000000000E+00 0.  1.
        -11    1    4    4    0    0 -0.46250372716E-01 -0.75545701813E-01 -0.23645898894E-01  0.91682275792E-01  0.51100000000E-03 0.  1.
         11    1    4    4    0    0 -0.37011558253E-01 -0.12216844770E-01 -0.28144994764E-01  0.48078150876E-01  0.51100000000E-03 0. -1.
</event>
<event>
 8    1  0.2190512E+004  0.1043930E+01  0.7957747E-01            NaN
         13   -1    0    0    0    0  0.00000000000E+00  0.00000000000E+00  0.74505805969E-08  0.10566000000E+00  0.10566000000E+00 0. -1.
     999900   -1    0    0    0    0 -0.00000000000E+00 -0.00000000000E+00 -0.74505805969E-08  0.93827000000E+00  0.93827000000E+00 0.  1.
     999902    2    1    2    0    0 -0.85319967296E-02  0.69772069588E-02 -0.90309621624E-02  0.10296809768E+01  0.10295823810E+01 0.  0.
     999903    2    3    3    0    0  0.93160269608E-02 -0.12817579652E+00  0.21468711490E-01  0.13866183198E+00  0.47438116566E-01 0.  0.
         14    1    1    2    0    0  0.85319967296E-02 -0.69772069588E-02  0.90309621624E-02  0.14249023220E-01  0.00000000000E+00 0. -1.
     999901    1    3    3    0    0 -0.17848023690E-01  0.13515300348E+00 -0.30499673653E-01  0.89101914480E+00  0.88000000000E+00 0.  1.
        -11    1    4    4    0    0  0.91061599987E-02 -0.22936885922E-01 -0.13029359575E-01  0.27911435249E-01  0.51100000000E-03 0. -1.
         11    1    4    4    0    0  0.20986696209E-03 -0.10523891060E+00  0.34498071066E-01  0.11075039674E+00  0.51100000000E-03 0.  1.
</event>
<event>
 8    1  0.2190512E+004  0.1043930E+01  0.7957747E-01            NaN
         13   -1    0    0    0    0  0.00000000000E+00  0.00000000000E+00  0.74505805969E-08  0.10566000000E+00  0.10566000000E+00 0. -1.
     999900   -1    0    0    0    0 -0.00000000000E+00 -0.00000000000E+00 -0.74505805969E-08  0.93827000000E+00  0.93827000000E+00 0. -1.
     999902    2    1    2    0    0  0.49883581443E-02  0.72575178640E-03  0.12380328506E-01  0.10305627652E+01  0.10304760696E+01 0.  0.
     999903    2    3    3    0    0 -0.85037733440E-01 -0.82908573453E-01 -0.57353812604E-01  0.13929274552E+00  0.44808051432E-01 0.  0.
         14    1    1    2    0    0 -0.49883581443E-02 -0.72575178640E-03 -0.12380328506E-01  0.13367234813E-01  0.00000000000E+00 0.  1.
     999901    1    3    3    0    0  0.90026091585E-01  0.83634325239E-01  0.69734141110E-01  0.89127001967E+00  0.88000000000E+00 0.  1.
        -11    1    4    4    0    0 -0.31808824843E-01 -0.24322659389E-01  0.23948462580E-02  0.40117197151E-01  0.51100000000E-03 0.  1.
         11    1    4    4    0    0 -0.53228908598E-01 -0.58585914064E-01 -0.59748658862E-01  0.99175548368E-01  0.51100000000E-03 0. -1.
</event>
<event>
 8    1  0.2190512E+004  0.1043930E+01  0.7957747E-01            NaN
         13   -1    0    0    0    0  0.00000000000E+00  0.00000000000E+00  0.74505805969E-08  0.10566000000E+00  0.10566000000E+00 0.  1.
     999900   -1    0    0    0    0 -0.00000000000E+00 -0.00000000000E+00 -0.74505805969E-08  0.93827000000E+00  0.93827000000E+00 0. -1.
     999902    2    1    2    0    0  0.78504717317E-02  0.83419917671E-02 -0.67977739917E-02  0.10306097724E+01  0.10305236894E+01 0.  0.
     999903    2    3    3    0    0  0.13464047919E-01 -0.29208144085E-01  0.12719839479E+00  0.13965719327E+00  0.47857117854E-01 0.  0.
         14    1    1    2    0    0 -0.78504717317E-02 -0.83419917671E-02  0.67977739917E-02  0.13320227637E-01  0.00000000000E+00 0.  1.
     999901    1    3    3    0    0 -0.56135761874E-02  0.37550135852E-01 -0.13399616878E+00  0.89095257909E+00  0.88000000000E+00 0. -1.
        -11    1    4    4    0    0 -0.15390753669E-01  0.57746887688E-04  0.48289763421E-01  0.50685708099E-01  0.51100000000E-03 0. -1.
         11    1    4    4    0    0  0.28854801588E-01 -0.29265890972E-01  0.78908631366E-01  0.88971485174E-01  0.51100000000E-03 0.  1.
</event>
<event>
 8    1  0.2190512E+004  0.1043930E+01  0.7957747E-01            NaN
         13   -1    0    0    0    0  0.00000000000E+00  0.00000000000E+00  0.74505805969E-08  0.10566000000E+00  0.10566000000E+00 0. -1.
     999900   -1    0    0    0    0 -0.00000000000E+00 -0.00000000000E+00 -0.74505805969E-08  0.93827000000E+00  0.93827000000E+00 0.  1.
     999902    2    1    2    0    0  0.18141174443E-01  0.15773620660E-01  0.14534619108E-01  0.10158379287E+01  0.10154494241E+01 0.  0.
     999903    2    3    3    0    0 -0.10317507892E+00  0.55053735109E-01 -0.14242206543E-01  0.12618144080E+00  0.45198505442E-01 0.  0.
         14    1    1    2    0    0 -0.18141174443E-01 -0.15773620660E-01 -0.14534619108E-01  0.28092071328E-01  0.00000000000E+00 0.  1.
     999901    1    3    3    0    0  0.12131625337E+00 -0.39280114449E-01  0.28776825651E-01  0.88965648787E+00  0.88000000000E+00 0.  1.
        -11    1    4    4    0    0 -0.73403989663E-01  0.54170989525E-01  0.38819484656E-02  0.91312498867E-01  0.51100000000E-03 0.  1.
         11    1    4    4    0    0 -0.29771089261E-01  0.88274558419E-03 -0.18124155009E-01  0.34868941930E-01  0.51100000000E-03 0. -1.
</event>
<event>
 8    1  0.2190512E+004  0.1043930E+01  0.7957747E-01            NaN
         13   -1    0    0    0    0  0.00000000000E+00  0.00000000000E+00  0.74505805969E-08  0.10566000000E+00  0.10566000000E+00 0.  1.
     999900   -1    0    0    0    0 -0.00000000000E+00 -0.00000000000E+00 -0.74505805969E-08  0.93827000000E+00  0.93827000000E+00 0. -1.
     999902    2    1    2    0    0  0.41763107949E-02  0.72179662899E-02  0.10787545842E-01  0.10302950539E+01  0.10302048274E+01 0.  0.
     999903    2    3    3    0    0  0.85879037482E-01  0.10236662109E+00  0.95141370609E-02  0.14140235870E+00  0.45276639091E-01 0.  0.
         14    1    1    2    0    0 -0.41763107949E-02 -0.72179662899E-02 -0.10787545842E-01  0.13634946077E-01  0.00000000000E+00 0. -1.
     999901    1    3    3    0    0 -0.81702726687E-01 -0.95148654805E-01  0.12734087811E-02  0.88889269523E+00  0.88000000000E+00 0. -1.
        -11    1    4    4    0    0  0.72072912036E-01  0.55655991471E-01  0.15336153621E-01  0.92344749525E-01  0.51100000000E-03 0. -1.
         11    1    4    4    0    0  0.13806125446E-01  0.46710629624E-01 -0.58220165603E-02  0.49057609170E-01  0.51100000000E-03 0.  1.
</event>
<event>
 8    1  0.2190512E+004  0.1043930E+01  0.7957747E-01            NaN
         13   -1    0    0    0    0  0.00000000000E+00  0.00000000000E+00  0.74505805969E-08  0.10566000000E+00  0.10566000000E+00 0. -1.
     999900   -1    0    0    0    0 -0.00000000000E+00 -0.00000000000E+00 -0.74505805969E-08  0.93827000000E+00  0.93827000000E+00 0.  1.
     999902    2    1    2    0    0  0.49219252460E-02  0.13290169906E-01  0.22828065815E-02  0.10295750298E+01  0.10294749520E+01 0.  0.
     999903    2    3    3    0    0  0.53430666643E-01 -0.49317045588E-01 -0.10917005088E+00  0.13901649669E+00  0.46048661427E-01 0.  0.
         14    1    1    2    0    0 -0.49219252460E-02 -0.13290169906E-01 -0.22828065815E-02  0.14354970224E-01  0.00000000000E+00 0. -1.
     999901    1    3    3    0    0 -0.48508741397E-01  0.62607215494E-01  0.11145285746E+00  0.89055853309E+00  0.88000000000E+00 0. -1.
        -11    1    4    4    0    0 -0.73208047730E-03 -0.18811371245E-01 -0.84149036802E-02  0.20627053955E-01  0.51100000000E-03 0.  1.
         11    1    4    4    0    0  0.54162747120E-01 -0.30505674344E-01 -0.10075514720E+00  0.11838944273E+00  0.51100000000E-03 0. -1.
</event>
<event>
 8    1  0.2190512E+004  0.1043930E+01  0.7957747E-01            NaN
         13   -1    0    0    0    0  0.00000000000E+00  0.00000000000E+00  0.74505805969E-08  0.10566000000E+00  0.10566000000E+00 0. -1.
     999900   -1    0    0    0    0 -0.00000000000E+00 -0.00000000000E+00 -0.74505805969E-08  0.93827000000E+00  0.93827000000E+00 0.  1.
     999902    2    1    2    0    0  0.11341556570E-02 -0.91039983153E-02  0.10761256163E-01  0.10297887932E+01  0.10296916941E+01 0.  0.
     999903    2    3    3    0    0 -0.20345676810E-01  0.11464051395E+00 -0.58979111219E-01  0.13813986773E+00  0.45251447419E-01 0.  0.
         14    1    1    2    0    0 -0.11341556570E-02  0.91039983153E-02 -0.10761256163E-01  0.14141206759E-01  0.00000000000E+00 0.  1.
     999901    1    3    3    0    0  0.21479832467E-01 -0.12374451226E+00  0.69740367382E-01  0.89164892551E+00  0.88000000000E+00 0. -1.
        -11    1    4    4    0    0 -0.17692962562E-01  0.27918253247E-01 -0.34956816575E-01  0.48111432473E-01  0.51100000000E-03 0. -1.
         11    1    4    4    0    0 -0.26527142483E-02  0.86722260703E-01 -0.24022294644E-01  0.90028435259E-01  0.51100000000E-03 0.  1.
</event>
<event>
 8    1  0.2190512E+004  0.1043930E+01  0.7957747E-01            NaN
         13   -1    0    0    0    0  0.00000000000E+00  0.00000000000E+00  0.74505805969E-08  0.10566000000E+00  0.10566000000E+00 0. -1.
     999900   -1    0    0    0    0 -0.00000000000E+00 -0.00000000000E+00 -0.74505805969E-08  0.93827000000E+00  0.93827000000E+00 0.  1.
     999902    2    1    2    0    0 -0.10954717718E-01 -0.71322012028E-02 -0.29319365975E-03  0.10308548290E+01  0.10307719041E+01 0.  0.
     999903    2    3    3    0    0 -0.11993261896E+00 -0.62018749935E-01  0.52010894213E-02  0.14241861669E+00  0.45009472481E-01 0.  0.
         14    1    1    2    0    0  0.10954717718E-01  0.71322012028E-02  0.29319365975E-03  0.13075171005E-01  0.00000000000E+00 0.  1.
     999901    1    3    3    0    0  0.10897790125E+00  0.54886548733E-01 -0.54942830811E-02  0.88843621231E+00  0.88000000000E+00 0.  1.
        -11    1    4    4    0    0 -0.41796695511E-01 -0.46693138860E-01  0.89627083308E-03  0.62675971430E-01  0.51100000000E-03 0. -1.
         11    1    4    4    0    0 -0.78135923454E-01 -0.15325611075E-01  0.43048185883E-02  0.79742645259E-01  0.51100000000E-03 0.  1.
</event>
<event>
 8    1  0.2190512E+004  0.1043930E+01  0.7957747E-01            NaN
         13   -1    0    0    0    0  0.00000000000E+00  0.00000000000E+00  0.74505805969E-08  0.10566000000E+00  0.10566000000E+00 0. -1.
     999900   -1    0    0    0    0 -0.00000000000E+00 -0.00000000000E+00 -0.74505805969E-08  0.93827000000E+00  0.93827000000E+00 0. -1.
     999902    2    1    2    0    0 -0.28721134996E-02  0.12640955089E-01 -0.26769837152E-02  0.10306933455E+01  0.10306083462E+01 0.  0.
     999903    2    3    3    0    0  0.10675567596E+00 -0.76459964216E-01  0.11379693267E-01  0.13931530209E+00  0.45125995824E-01 0.  0.
         14    1    1    2    0    0  0.28721134996E-02 -0.12640955089E-01  0.26769837152E-02  0.13236654537E-01  0.00000000000E+00 0.  1.
     999901    1    3    3    0    0 -0.10962778946E+00  0.89100919305E-01 -0.14056676982E-01  0.89137804337E+00  0.88000000000E+00 0. -1.
        -11    1    4    4    0    0  0.10113271712E-01 -0.21246311491E-01  0.15075151127E-01  0.27950050433E-01  0.51100000000E-03 0.  1.
         11    1    4    4    0    0  0.96642404250E-01 -0.55213652724E-01 -0.36954578601E-02  0.11136525166E+00  0.51100000000E-03 0. -1.
</event>
