<event>
 7    1  0.1161093E+005  0.1043930E+01  0.7957747E-01            NaN
         13   -1    0    0    0    0  0.00000000000E+00  0.00000000000E+00  0.74505805969E-08  0.10566000000E+00  0.10566000000E+00 0.  1.
     999900   -1    0    0    0    0 -0.00000000000E+00 -0.00000000000E+00 -0.74505805969E-08  0.93827000000E+00  0.93827000000E+00 0. -1.
     999903    2    1    2    0    0  0.33397170520E-01 -0.95437067915E-01 -0.60071253044E-01  0.11929588628E+00  0.19983696129E-01 0.  0.
         14    1    1    2    0    0  0.21720002293E-01  0.19138826018E-01  0.26076620906E-01  0.38962075392E-01  0.00000000000E+00 0.  1.
     999901    1    1    2    0    0 -0.55117172813E-01  0.76298241897E-01  0.33994632138E-01  0.88567203832E+00  0.88000000000E+00 0. -1.
        -11    1    3    3    0    0  0.85026692466E-02 -0.43072327954E-01 -0.17072523992E-01  0.47108948366E-01  0.51100000000E-03 0.  1.
         11    1    3    3    0    0  0.24894501274E-01 -0.52364739961E-01 -0.42998729052E-01  0.72186937918E-01  0.51100000000E-03 0. -1.
</event>
<event>
 8    1  0.1161093E+005  0.1043930E+01  0.7957747E-01            NaN
         13   -1    0    0    0    0  0.00000000000E+00  0.00000000000E+00  0.74505805969E-08  0.10566000000E+00  0.10566000000E+00 0. -1.
     999900   -1    0    0    0    0 -0.00000000000E+00 -0.00000000000E+00 -0.74505805969E-08  0.93827000000E+00  0.93827000000E+00 0. -1.
     999902    2    1    2    0    0 -0.17051433556E-01 -0.16842494266E-01 -0.13470796072E-03  0.10199625399E+01  0.10196809028E+01 0.  0.
     999903    2    3    3    0    0  0.15367529482E-01 -0.11737462218E+00 -0.54666682921E-01  0.13196961522E+00  0.20360997677E-01 0.  0.
         14    1    1    2    0    0  0.17051433556E-01  0.16842494266E-01  0.13470796072E-03  0.23967460142E-01  0.00000000000E+00 0. -1.
     999901    1    3    3    0    0 -0.32418963038E-01  0.10053212791E+00  0.54531974961E-01  0.88799292463E+00  0.88000000000E+00 0.  1.
        -11    1    4    4    0    0  0.12755973195E-01 -0.28833546196E-01 -0.14220710591E-01  0.34591588127E-01  0.51100000000E-03 0. -1.
         11    1    4    4    0    0  0.26115562872E-02 -0.88541075984E-01 -0.40445972330E-01  0.97378027097E-01  0.51100000000E-03 0.  1.
</event>
<event>
 8    1  0.1161093E+005  0.1043930E+01  0.7957747E-01            NaN
         13   -1    0    0    0    0  0.00000000000E+00  0.00000000000E+00  0.74505805969E-08  0.10566000000E+00  0.10566000000E+00 0. -1.
     999900   -1    0    0    0    0 -0.00000000000E+00 -0.00000000000E+00 -0.74505805969E-08  0.93827000000E+00  0.93827000000E+00 0.  1.
     999902    2    1    2    0    0 -0.66107822714E-02  0.19008810128E-01  0.11010502547E-01  0.10209894579E+01  0.10207317006E+01 0.  0.
     999903    2    3    3    0    0  0.59303110303E-01 -0.11043924367E+00  0.22551501671E-01  0.12900591854E+00  0.20500520891E-01 0.  0.
         14    1    1    2    0    0  0.66107822714E-02 -0.19008810128E-01 -0.11010502547E-01  0.22940542083E-01  0.00000000000E+00 0. -1.
     999901    1    3    3    0    0 -0.65913892574E-01  0.12944805379E+00 -0.11540999124E-01  0.89198353938E+00  0.88000000000E+00 0.  1.
        -11    1    4    4    0    0  0.54768512555E-02 -0.81004564209E-02  0.76337056836E-02  0.12415630365E-01  0.51100000000E-03 0.  1.
         11    1    4    4    0    0  0.53826259047E-01 -0.10233878724E+00  0.14917795987E-01  0.11659028817E+00  0.51100000000E-03 0. -1.
</event>
<event>
 8    1  0.1161093E+005  0.1043930E+01  0.7957747E-01            NaN
         13   -1    0    0    0    0  0.00000000000E+00  0.00000000000E+00  0.74505805969E-08  0.10566000000E+00  0.10566000000E+00 0.  1.
     999900   -1    0    0    0    0 -0.00000000000E+00 -0.00000000000E+00 -0.74505805969E-08  0.93827000000E+00  0.93827000000E+00 0.  1.
     999902    2    1    2    0    0 -0.65512494873E-02  0.12633376071E-01 -0.19479641939E-01  0.10198057899E+01  0.10195204126E+01 0.  0.
     999903    2    3    3    0    0  0.96039231033E-01 -0.53312221637E-01 -0.66923822114E-01  0.13012911902E+00  0.19724674338E-01 0.  0.
         14    1    1    2    0    0  0.65512494873E-02 -0.12633376071E-01  0.19479641939E-01  0.24124210057E-01  0.00000000000E+00 0.  1.
     999901    1    3    3    0    0 -0.10259048052E+00  0.65945597708E-01  0.47444180175E-01  0.88967667092E+00  0.88000000000E+00 0.  1.
        -11    1    4    4    0    0  0.60967197566E-01 -0.42540423334E-01 -0.50849681206E-01  0.90070183725E-01  0.51100000000E-03 0. -1.
         11    1    4    4    0    0  0.35072033466E-01 -0.10771798303E-01 -0.16074140907E-01  0.40058935296E-01  0.51100000000E-03 0.  1.
</event>
<event>
 8    1  0.1161093E+005  0.1043930E+01  0.7957747E-01            NaN
         13   -1    0    0    0    0  0.00000000000E+00  0.00000000000E+00  0.74505805969E-08  0.10566000000E+00  0.10566000000E+00 0. -1.
     999900   -1    0    0    0    0 -0.00000000000E+00 -0.00000000000E+00 -0.74505805969E-08  0.93827000000E+00  0.93827000000E+00 0.  1.
     999902    2    1    2    0    0 -0.20283781393E-01 -0.12774579818E-01 -0.34492569430E-02  0.10197118446E+01  0.10194242135E+01 0.  0.
     999903    2    3    3    0    0 -0.99134460854E-01 -0.63124929973E-01  0.56669508142E-01  0.13271305468E+00  0.24267748508E-01 0.  0.
         14    1    1    2    0    0  0.20283781393E-01  0.12774579818E-01  0.34492569430E-02  0.24218155391E-01  0.00000000000E+00 0.  1.
     999901    1    3    3    0    0  0.78850679461E-01  0.50350350155E-01 -0.60118765085E-01  0.88699878992E+00  0.88000000000E+00 0.  1.
        -11    1    4    4    0    0 -0.80130627922E-01 -0.47290522365E-01  0.33722964518E-01  0.98968734930E-01  0.51100000000E-03 0. -1.
         11    1    4    4    0    0 -0.19003832932E-01 -0.15834407608E-01  0.22946543624E-01  0.33744319754E-01  0.51100000000E-03 0.  1.
</event>
<event>
 8    1  0.1161093E+005  0.1043930E+01  0.7957747E-01            NaN
         13   -1    0    0    0    0  0.00000000000E+00  0.00000000000E+00  0.74505805969E-08  0.10566000000E+00  0.10566000000E+00 0. -1.
     999900   -1    0    0    0    0 -0.00000000000E+00 -0.00000000000E+00 -0.74505805969E-08  0.93827000000E+00  0.93827000000E+00 0.  1.
     999902    2    1    2    0    0 -0.10911723063E-01  0.19137672412E-01  0.95133951803E-02  0.10199337317E+01  0.10196514091E+01 0.  0.
     999903    2    3    3    0    0  0.41414011774E-01 -0.21231112392E-01  0.12063965017E+00  0.13048633815E+00  0.17517954938E-01 0.  0.
         14    1    1    2    0    0  0.10911723063E-01 -0.19137672412E-01 -0.95133951803E-02  0.23996268323E-01  0.00000000000E+00 0.  1.
     999901    1    3    3    0    0 -0.52325734837E-01  0.40368784804E-01 -0.11112625499E+00  0.88944739353E+00  0.88000000000E+00 0.  1.
        -11    1    4    4    0    0  0.23025323299E-01 -0.27253327454E-02  0.48169291227E-01  0.53461525323E-01  0.51100000000E-03 0. -1.
         11    1    4    4    0    0  0.18388688476E-01 -0.18505779647E-01  0.72470358942E-01  0.77024812823E-01  0.51100000000E-03 0.  1.
</event>
<event>
 8    1  0.1161093E+005  0.1043930E+01  0.7957747E-01            NaN
         13   -1    0    0    0    0  0.00000000000E+00  0.00000000000E+00  0.74505805969E-08  0.10566000000E+00  0.10566000000E+00 0. -1.
     999900   -1    0    0    0    0 -0.00000000000E+00 -0.00000000000E+00 -0.74505805969E-08  0.93827000000E+00  0.93827000000E+00 0.  1.
     999902    2    1    2    0    0 -0.13572226184E-01 -0.44779058305E-02  0.17428453114E-01  0.10213909685E+01  0.10211422538E+01 0.  0.
     999903    2    3    3    0    0  0.42555514189E-01 -0.75379757323E-01 -0.94464004778E-01  0.12970867196E+00  0.20194350217E-01 0.  0.
         14    1    1    2    0    0  0.13572226184E-01  0.44779058305E-02 -0.17428453114E-01  0.22539031527E-01  0.00000000000E+00 0.  1.
     999901    1    3    3    0    0 -0.56127740373E-01  0.70901851492E-01  0.11189245789E+00  0.89168229651E+00  0.88000000000E+00 0. -1.
        -11    1    4    4    0    0  0.71142006594E-02 -0.30336419318E-01 -0.27479087131E-01  0.41548424021E-01  0.51100000000E-03 0. -1.
         11    1    4    4    0    0  0.35441313530E-01 -0.45043338005E-01 -0.66984917647E-01  0.88160247938E-01  0.51100000000E-03 0.  1.
</event>
<event>
 8    1  0.1161093E+005  0.1043930E+01  0.7957747E-01            NaN
         13   -1    0    0    0    0  0.00000000000E+00  0.00000000000E+00  0.74505805969E-08  0.10566000000E+00  0.10566000000E+00 0.  1.
     999900   -1    0    0    0    0 -0.00000000000E+00 -0.00000000000E+00 -0.74505805969E-08  0.93827000000E+00  0.93827000000E+00 0.  1.
     999902    2    1    2    0    0 -0.29895242290E-02 -0.23715943580E-01  0.69254898572E-02  0.10190433440E+01  0.10187394129E+01 0.  0.
     999903    2    3    3    0    0 -0.30963182498E-01  0.39783751997E-01  0.11732445704E+00  0.12943518937E+00  0.21141769903E-01 0.  0.
         14    1    1    2    0    0  0.29895242290E-02  0.23715943580E-01 -0.69254898572E-02  0.24886655958E-01  0.00000000000E+00 0. -1.
     999901    1    3    3    0    0  0.27973658269E-01 -0.63499695577E-01 -0.11039896719E+00  0.88960815467E+00  0.88000000000E+00 0.  1.
        -11    1    4    4    0    0 -0.95104612093E-02  0.28033910109E-01  0.54648647422E-01  0.62153718911E-01  0.51100000000E-03 0.  1.
         11    1    4    4    0    0 -0.21452721289E-01  0.11749841888E-01  0.62675809621E-01  0.67281470464E-01  0.51100000000E-03 0. -1.
</event>
<event>
 8    1  0.1161093E+005  0.1043930E+01  0.7957747E-01            NaN
         13   -1    0    0    0    0  0.00000000000E+00  0.00000000000E+00  0.74505805969E-08  0.10566000000E+00  0.10566000000E+00 0.  1.
     999900   -1    0    0    0    0 -0.00000000000E+00 -0.00000000000E+00 -0.74505805969E-08  0.93827000000E+00  0.93827000000E+00 0. -1.
     999902    2    1    2    0    0 -0.17580752140E-01  0.14586727735E-02 -0.34260383309E-02  0.10259592373E+01  0.10258018368E+01 0.  0.
     999903    2    3    3    0    0  0.97424902097E-01 -0.84747028929E-01 -0.29385089832E-01  0.13392134808E+00  0.19944259986E-01 0.  0.
         14    1    1    2    0    0  0.17580752140E-01 -0.14586727735E-02  0.34260383309E-02  0.17970762664E-01  0.00000000000E+00 0.  1.
     999901    1    3    3    0    0 -0.11500565424E+00  0.86205701703E-01  0.25959051501E-01  0.89203788926E+00  0.88000000000E+00 0. -1.
        -11    1    4    4    0    0  0.50490375009E-01 -0.38189453832E-01 -0.23573314713E-01  0.67554974947E-01  0.51100000000E-03 0.  1.
         11    1    4    4    0    0  0.46934527088E-01 -0.46557575097E-01 -0.58117751191E-02  0.66366373134E-01  0.51100000000E-03 0. -1.
</event>
<event>
 8    1  0.1161093E+005  0.1043930E+01  0.7957747E-01            NaN
         13   -1    0    0    0    0  0.00000000000E+00  0.00000000000E+00  0.74505805969E-08  0.10566000000E+00  0.10566000000E+00 0.  1.
     999900   -1    0    0    0    0 -0.00000000000E+00 -0.00000000000E+00 -0.74505805969E-08  0.93827000000E+00  0.93827000000E+00 0.  1.
     999902    2    1    2    0    0  0.29233673258E-02 -0.20009277805E-01  0.13128431775E-01  0.10198203962E+01  0.10195353684E+01 0.  0.
     999903    2    3    3    0    0  0.26921559793E-01 -0.10568093368E+00  0.73446540386E-01  0.13328003045E+00  0.21816097233E-01 0.  0.
         14    1    1    2    0    0 -0.29233673258E-02  0.20009277805E-01 -0.13128431775E-01  0.24109603806E-01  0.00000000000E+00 0. -1.
     999901    1    3    3    0    0 -0.23998192467E-01  0.85671655872E-01 -0.60318108611E-01  0.88654036574E+00  0.88000000000E+00 0. -1.
        -11    1    4    4    0    0  0.17199657773E-01 -0.76115690568E-01  0.63483980458E-01  0.10059773096E+00  0.51100000000E-03 0.  1.
         11    1    4    4    0    0  0.97219020202E-02 -0.29565243109E-01  0.99625599280E-02  0.32682299495E-01  0.51100000000E-03 0. -1.
</event>
<event>
 8    1  0.1161093E+005  0.1043930E+01  0.7957747E-01            NaN
         13   -1    0    0    0    0  0.00000000000E+00  0.00000000000E+00  0.74505805969E-08  0.10566000000E+00  0.10566000000E+00 0.  1.
     999900   -1    0    0    0    0 -0.00000000000E+00 -0.00000000000E+00 -0.74505805969E-08  0.93827000000E+00  0.93827000000E+00 0. -1.
     999902    2    1    2    0    0 -0.96228291078E-02 -0.21372611096E-01 -0.39472706287E-02  0.10201609384E+01  0.10198839992E+01 0.  0.
     999903    2    3    3    0    0 -0.60076976566E-02 -0.22300340321E-01  0.12685422151E+00  0.13048517710E+00  0.20024742650E-01 0.  0.
         14    1    1    2    0    0  0.96228291078E-02  0.21372611096E-01  0.39472706287E-02  0.23769061624E-01  0.00000000000E+00 0.  1.
     999901    1    3    3    0    0 -0.36151314512E-02  0.92772922519E-03 -0.13080149214E+00  0.88967576128E+00  0.88000000000E+00 0. -1.
        -11    1    4    4    0    0  0.18794496513E-02 -0.68753364637E-03  0.54936370125E-01  0.54975184556E-01  0.51100000000E-03 0. -1.
         11    1    4    4    0    0 -0.78871473080E-02 -0.21612806675E-01  0.71917851385E-01  0.75509992543E-01  0.51100000000E-03 0.  1.
</event>
<event>
 8    1  0.1161093E+005  0.1043930E+01  0.7957747E-01            NaN
         13   -1    0    0    0    0  0.00000000000E+00  0.00000000000E+00  0.74505805969E-08  0.10566000000E+00  0.10566000000E+00 0. -1.
     999900   -1    0    0    0    0 -0.00000000000E+00 -0.00000000000E+00 -0.74505805969E-08  0.93827000000E+00  0.93827000000E+00 0.  1.
     999902    2    1    2    0    0  0.35226551199E-03 -0.35875727170E-02 -0.23730682181E-01  0.10199270826E+01  0.10196446017E+01 0.  0.
     999903    2    3    3    0    0  0.95435780922E-02  0.12790010794E+00 -0.43553136501E-02  0.12989961371E+00  0.20135128336E-01 0.  0.
         14    1    1    2    0    0 -0.35226551199E-03  0.35875727170E-02  0.23730682181E-01  0.24002917443E-01  0.00000000000E+00 0. -1.
     999901    1    3    3    0    0 -0.91913125802E-02 -0.13148768065E+00 -0.19375368531E-01  0.89002746884E+00  0.88000000000E+00 0. -1.
        -11    1    4    4    0    0  0.15190133279E-01  0.70353007737E-01 -0.11518715947E-02  0.71985233040E-01  0.51100000000E-03 0.  1.
         11    1    4    4    0    0 -0.56465551865E-02  0.57547100199E-01 -0.32034420554E-02  0.57914380673E-01  0.51100000000E-03 0. -1.
</event>
<event>
 8    1  0.1161093E+005  0.1043930E+01  0.7957747E-01            NaN
         13   -1    0    0    0    0  0.00000000000E+00  0.00000000000E+00  0.74505805969E-08  0.10566000000E+00  0.10566000000E+00 0. -1.
     999900   -1    0    0    0    0 -0.00000000000E+00 -0.00000000000E+00 -0.74505805969E-08  0.93827000000E+00  0.93827000000E+00 0. -1.
     999902    2    1    2    0    0  0.13236145699E-01  0.11047741303E-01  0.21028779541E-01  0.10167370283E+01  0.10163733207E+01 0.  0.
     999903    2    3    3    0    0  0.10729326819E+00 -0.36180946104E-01 -0.54339786256E-01  0.12726656116E+00  0.20568397069E-01 0.  0.
         14    1    1    2    0    0 -0.13236145699E-01 -0.11047741303E-01 -0.21028779541E-01  0.27192971700E-01  0.00000000000E+00 0. -1.
     999901    1    3    3    0    0 -0.94057122496E-01  0.47228687407E-01  0.75368565797E-01  0.88947046714E+00  0.88000000000E+00 0. -1.
        -11    1    4    4    0    0  0.45295181354E-01 -0.22013925766E-01 -0.32874385874E-01  0.60143601065E-01  0.51100000000E-03 0. -1.
         11    1    4    4    0    0  0.61998086841E-01 -0.14167020338E-01 -0.21465400383E-01  0.67122960094E-01  0.51100000000E-03 0.  1.
</event>
<event>
 8    1  0.1161093E+005  0.1043930E+01  0.7957747E-01            NaN
         13   -1    0    0    0    0  0.00000000000E+00  0.00000000000E+00  0.74505805969E-08  0.10566000000E+00  0.10566000000E+00 0.  1.
     999900   -1    0    0    0    0 -0.00000000000E+00 -0.00000000000E+00 -0.74505805969E-08  0.93827000000E+00  0.93827000000E+00 0.  1.
     999902    2    1    2    0    0  0.18446217300E-01  0.39659694874E-02 -0.13938162534E-01  0.10204722887E+01  0.10202026405E+01 0.  0.
     999903    2    3    3    0    0  0.94365807483E-01 -0.86105531023E-01  0.25745180290E-01  0.13173642965E+00  0.19302965971E-01 0.  0.
         14    1    1    2    0    0 -0.18446217300E-01 -0.39659694874E-02  0.13938162534E-01  0.23457711344E-01  0.00000000000E+00 0.  1.
     999901    1    3    3    0    0 -0.75919590183E-01  0.90071500510E-01 -0.39683342823E-01  0.88873585900E+00  0.88000000000E+00 0.  1.
        -11    1    4    4    0    0  0.34545389141E-01 -0.27343075671E-01  0.14568880466E-03  0.44060300093E-01  0.51100000000E-03 0. -1.
         11    1    4    4    0    0  0.59820418342E-01 -0.58762455352E-01  0.25599491485E-01  0.87676129562E-01  0.51100000000E-03 0.  1.
</event>
<event>
 8    1  0.1264782E+005  0.1043930E+01  0.7957747E-01            NaN
         13   -1    0    0    0    0  0.00000000000E+00  0.00000000000E+00  0.74505805969E-08  0.10566000000E+00  0.10566000000E+00 0.  1.
     999900   -1    0    0    0    0 -0.00000000000E+00 -0.00000000000E+00 -0.74505805969E-08  0.93827000000E+00  0.93827000000E+00 0.  1.
     999902    2    1    2    0    0  0.57400748440E-02  0.22285516753E-01 -0.22631818642E-02  0.10208061009E+01  0.10205441593E+01 0.  0.
     999903    2    3    3    0    0  0.91957271323E-01  0.21897844027E-01  0.89716516419E-01  0.13182138781E+00  0.19803273560E-01 0.  0.
         14    1    1    2    0    0 -0.57400748440E-02 -0.22285516753E-01  0.22631818642E-02  0.23123899073E-01  0.00000000000E+00 0.  1.
     999901    1    3    3    0    0 -0.86217196479E-01  0.38767272645E-03 -0.91979698284E-01  0.88898471312E+00  0.88000000000E+00 0.  1.
        -11    1    4    4    0    0  0.33722646855E-01 -0.16218823330E-02  0.32192057264E-01  0.46652299891E-01  0.51100000000E-03 0. -1.
         11    1    4    4    0    0  0.58234624468E-01  0.23519726360E-01  0.57524459155E-01  0.85169087920E-01  0.51100000000E-03 0.  1.
</event>
<event>
 8    1  0.1161093E+005  0.1043930E+01  0.7957747E-01            NaN
         13   -1    0    0    0    0  0.00000000000E+00  0.00000000000E+00  0.74505805969E-08  0.10566000000E+00  0.10566000000E+00 0.  1.
     999900   -1    0    0    0    0 -0.00000000000E+00 -0.00000000000E+00 -0.74505805969E-08  0.93827000000E+00  0.93827000000E+00 0.  1.
     999902    2    1    2    0    0  0.20202027973E-01  0.11185407027E-01 -0.52825089660E-02  0.10202416027E+01  0.10199665621E+01 0.  0.
     999903    2    3    3    0    0  0.86366728384E-01 -0.73109111914E-01 -0.64662400204E-01  0.13175451504E+00  0.19335775528E-01 0.  0.
         14    1    1    2    0    0 -0.20202027973E-01 -0.11185407027E-01  0.52825089660E-02  0.23688397277E-01  0.00000000000E+00 0.  1.
     999901    1    3    3    0    0 -0.66164700411E-01  0.84294518942E-01  0.59379891238E-01  0.88848708769E+00  0.88000000000E+00 0. -1.
        -11    1    4    4    0    0  0.41181606589E-01 -0.27263042561E-01 -0.19410692262E-01  0.53068204285E-01  0.51100000000E-03 0. -1.
         11    1    4    4    0    0  0.45185121795E-01 -0.45846069353E-01 -0.45251707942E-01  0.78686310750E-01  0.51100000000E-03 0.  1.
</event>
<event>
 8    1  0.1161093E+005  0.1043930E+01  0.7957747E-01            NaN
         13   -1    0    0    0    0  0.00000000000E+00  0.00000000000E+00  0.74505805969E-08  0.10566000000E+00  0.10566000000E+00 0. -1.
     999900   -1    0    0    0    0 -0.00000000000E+00 -0.00000000000E+00 -0.74505805969E-08  0.93827000000E+00  0.93827000000E+00 0. -1.
     999902    2    1    2    0    0 -0.21832332118E-01 -0.74253293989E-02  0.38121271289E-02  0.10205565416E+01  0.10202888494E+01 0.  0.
     999903    2    3    3    0    0 -0.77422966768E-01 -0.99810714153E-01  0.37595539556E-01  0.13333238906E+00  0.20189277693E-01 0.  0.
         14    1    1    2    0    0  0.21832332118E-01  0.74253293989E-02 -0.38121271289E-02  0.23373458359E-01  0.00000000000E+00 0. -1.
     999901    1    3    3    0    0  0.55590634650E-01  0.92385384754E-01 -0.33783412427E-01  0.88722415259E+00  0.88000000000E+00 0. -1.
        -11    1    4    4    0    0 -0.71067155922E-01 -0.82259429713E-01  0.27622581638E-01  0.11216248288E+00  0.51100000000E-03 0.  1.
         11    1    4    4    0    0 -0.63558108461E-02 -0.17551284440E-01  0.99729579181E-02  0.21169906179E-01  0.51100000000E-03 0. -1.
</event>
<event>
 8    1  0.1161093E+005  0.1043930E+01  0.7957747E-01            NaN
         13   -1    0    0    0    0  0.00000000000E+00  0.00000000000E+00  0.74505805969E-08  0.10566000000E+00  0.10566000000E+00 0. -1.
     999900   -1    0    0    0    0 -0.00000000000E+00 -0.00000000000E+00 -0.74505805969E-08  0.93827000000E+00  0.93827000000E+00 0. -1.
     999902    2    1    2    0    0  0.20402681183E-01  0.98499697764E-02 -0.51804391185E-02  0.10206893405E+01  0.10204247163E+01 0.  0.
     999903    2    3    3    0    0  0.40915762723E-01 -0.16574795581E-01  0.12167076974E+00  0.13096450444E+00  0.19977530491E-01 0.  0.
         14    1    1    2    0    0 -0.20402681183E-01 -0.98499697764E-02  0.51804391185E-02  0.23240659489E-01  0.00000000000E+00 0. -1.
     999901    1    3    3    0    0 -0.20513081541E-01  0.26424765358E-01 -0.12685120886E+00  0.88972483607E+00  0.88000000000E+00 0. -1.
        -11    1    4    4    0    0  0.14030319464E-01 -0.14688316303E-01  0.38476676847E-01  0.43512208428E-01  0.51100000000E-03 0.  1.
         11    1    4    4    0    0  0.26885443259E-01 -0.18864792785E-02  0.83194092896E-01  0.87452296008E-01  0.51100000000E-03 0. -1.
</event>
<event>
 8    1  0.1161093E+005  0.1043930E+01  0.7957747E-01            NaN
         13   -1    0    0    0    0  0.00000000000E+00  0.00000000000E+00  0.74505805969E-08  0.10566000000E+00  0.10566000000E+00 0.  1.
     999900   -1    0    0    0    0 -0.00000000000E+00 -0.00000000000E+00 -0.74505805969E-08  0.93827000000E+00  0.93827000000E+00 0. -1.
     999902    2    1    2    0    0  0.21665110654E-01 -0.18478921167E-02 -0.39373870597E-02  0.10218326078E+01  0.10215936490E+01 0.  0.
     999903    2    3    3    0    0 -0.76171314780E-01  0.76277046758E-01 -0.70538803546E-01  0.13047901865E+00  0.20707352453E-01 0.  0.
         14    1    1    2    0    0 -0.21665110654E-01  0.18478921167E-02  0.39373870597E-02  0.22097392194E-01  0.00000000000E+00 0.  1.
     999901    1    3    3    0    0  0.97836425434E-01 -0.78124938875E-01  0.66601416486E-01  0.89135358915E+00  0.88000000000E+00 0.  1.
        -11    1    4    4    0    0 -0.65737720044E-01  0.61047390110E-01 -0.49421666901E-01  0.10242555324E+00  0.51100000000E-03 0.  1.
         11    1    4    4    0    0 -0.10433594736E-01  0.15229656649E-01 -0.21117136645E-01  0.28053465415E-01  0.51100000000E-03 0. -1.
</event>
<event>
 8    1  0.1161093E+005  0.1043930E+01  0.7957747E-01            NaN
         13   -1    0    0    0    0  0.00000000000E+00  0.00000000000E+00  0.74505805969E-08  0.10566000000E+00  0.10566000000E+00 0. -1.
     999900   -1    0    0    0    0 -0.00000000000E+00 -0.00000000000E+00 -0.74505805969E-08  0.93827000000E+00  0.93827000000E+00 0. -1.
     999902    2    1    2    0    0 -0.12431106666E-01 -0.15005598907E-01 -0.14252426446E-01  0.10197880848E+01  0.10195022834E+01 0.  0.
     999903    2    3    3    0    0  0.66422779782E-01  0.69628851392E-01 -0.84205291676E-01  0.12946548653E+00  0.20263722144E-01 0.  0.
         14    1    1    2    0    0  0.12431106666E-01  0.15005598907E-01  0.14252426446E-01  0.24141915233E-01  0.00000000000E+00 0. -1.
     999901    1    3    3    0    0 -0.78853886448E-01 -0.84634450299E-01  0.69952865230E-01  0.89032259824E+00  0.88000000000E+00 0.  1.
        -11    1    4    4    0    0  0.54451932319E-01  0.58564663361E-01 -0.78836850271E-01  0.11229578269E+00  0.51100000000E-03 0. -1.
         11    1    4    4    0    0  0.11970847463E-01  0.11064188031E-01 -0.53684414042E-02  0.17169703838E-01  0.51100000000E-03 0.  1.
</event>
<event>
 8    1  0.1161093E+005  0.1043930E+01  0.7957747E-01            NaN
         13   -1    0    0    0    0  0.00000000000E+00  0.00000000000E+00  0.74505805969E-08  0.10566000000E+00  0.10566000000E+00 0. -1.
     999900   -1    0    0    0    0 -0.00000000000E+00 -0.00000000000E+00 -0.74505805969E-08  0.93827000000E+00  0.93827000000E+00 0. -1.
     999902    2    1    2    0    0  0.20939774582E-01 -0.92507280872E-03  0.10418546851E-01  0.10205232480E+01  0.10202547837E+01 0.  0.
     999903    2    3    3    0    0 -0.20568216211E-01  0.45379556275E-01  0.12011279500E+00  0.13153513785E+00  0.19800336370E-01 0.  0.
         14    1    1    2    0    0 -0.20939774582E-01  0.92507280872E-03 -0.10418546851E-01  0.23406751969E-01  0.00000000000E+00 0.  1.
     999901    1    3    3    0    0  0.41507990794E-01 -0.46304629084E-01 -0.10969424815E+00  0.88898811019E+00  0.88000000000E+00 0. -1.
        -11    1    4    4    0    0 -0.67621799416E-02  0.67912676690E-03  0.14386318206E-01  0.15919031480E-01  0.51100000000E-03 0. -1.
         11    1    4    4    0    0 -0.13806036270E-01  0.44700429508E-01  0.10572647679E+00  0.11561610637E+00  0.51100000000E-03 0.  1.
</event>
<event>
 8    1  0.1161093E+005  0.1043930E+01  0.7957747E-01            NaN
         13   -1    0    0    0    0  0.00000000000E+00  0.00000000000E+00  0.74505805969E-08  0.10566000000E+00  0.10566000000E+00 0. -1.
     999900   -1    0    0    0    0 -0.00000000000E+00 -0.00000000000E+00 -0.74505805969E-08  0.93827000000E+00  0.93827000000E+00 0.  1.
     999902    2    1    2    0    0  0.20674420292E-02 -0.13114366284E-01 -0.18103794781E-01  0.10214798707E+01  0.10212331360E+01 0.  0.
     999903    2    3    3    0    0 -0.10322247114E+00 -0.52172176858E-01 -0.63802611226E-01  0.13316694150E+00  0.16906996279E-01 0.  0.
         14    1    1    2    0    0 -0.20674420292E-02  0.13114366284E-01  0.18103794781E-01  0.22450129288E-01  0.00000000000E+00 0. -1.
     999901    1    3    3    0    0  0.10528991317E+00  0.39057810574E-01  0.45698816445E-01  0.88831292921E+00  0.88000000000E+00 0. -1.
        -11    1    4    4    0    0 -0.50066786701E-01 -0.16599997017E-01 -0.32478247524E-01  0.61946272808E-01  0.51100000000E-03 0. -1.
         11    1    4    4    0    0 -0.53155684436E-01 -0.35572179841E-01 -0.31324363702E-01  0.71220668691E-01  0.51100000000E-03 0.  1.
</event>
<event>
 8    1  0.1161093E+005  0.1043930E+01  0.7957747E-01            NaN
         13   -1    0    0    0    0  0.00000000000E+00  0.00000000000E+00  0.74505805969E-08  0.10566000000E+00  0.10566000000E+00 0. -1.
     999900   -1    0    0    0    0 -0.00000000000E+00 -0.00000000000E+00 -0.74505805969E-08  0.93827000000E+00  0.93827000000E+00 0. -1.
     999902    2    1    2    0    0 -0.16508495188E-01 -0.72092978352E-03 -0.20035065363E-01  0.10179597478E+01  0.10176284166E+01 0.  0.
     999903    2    3    3    0    0 -0.47694340715E-01 -0.72096984944E-01 -0.96620305891E-01  0.13120589401E+00  0.20168731714E-01 0.  0.
         14    1    1    2    0    0  0.16508495188E-01  0.72092978352E-03  0.20035065363E-01  0.25970252159E-01  0.00000000000E+00 0. -1.
     999901    1    3    3    0    0  0.31185845527E-01  0.71376055160E-01  0.76585240528E-01  0.88675385383E+00  0.88000000000E+00 0.  1.
        -11    1    4    4    0    0 -0.33987255036E-01 -0.43897004109E-01 -0.74132017665E-01  0.92616940344E-01  0.51100000000E-03 0.  1.
         11    1    4    4    0    0 -0.13707085680E-01 -0.28199980835E-01 -0.22488288226E-01  0.38588953669E-01  0.51100000000E-03 0. -1.
</event>
<event>
 8    1  0.1161093E+005  0.1043930E+01  0.7957747E-01            NaN
         13   -1    0    0    0    0  0.00000000000E+00  0.00000000000E+00  0.74505805969E-08  0.10566000000E+00  0.10566000000E+00 0.  1.
     999900   -1    0    0    0    0 -0.00000000000E+00 -0.00000000000E+00 -0.74505805969E-08  0.93827000000E+00  0.93827000000E+00 0.  1.
     999902    2    1    2    0    0 -0.10348055647E-01  0.15982248298E-02 -0.21066167937E-01  0.10204051193E+01  0.10201339067E+01 0.  0.
     999903    2    3    3    0    0 -0.82406661992E-01 -0.72528804436E-01 -0.72256911414E-01  0.13287610493E+00  0.19588583409E-01 0.  0.
         14    1    1    2    0    0  0.10348055647E-01 -0.15982248298E-02  0.21066167937E-01  0.23524880655E-01  0.00000000000E+00 0.  1.
     999901    1    3    3    0    0  0.72058606345E-01  0.74127029266E-01  0.51190743477E-01  0.88752901442E+00  0.88000000000E+00 0. -1.
        -11    1    4    4    0    0 -0.71907131313E-01 -0.56574010382E-01 -0.65832879784E-01  0.11271860257E+00  0.51100000000E-03 0.  1.
         11    1    4    4    0    0 -0.10499530679E-01 -0.15954794053E-01 -0.64240316301E-02  0.20157502354E-01  0.51100000000E-03 0. -1.
</event>
<event>
 8    1  0.1161093E+005  0.1043930E+01  0.7957747E-01            NaN
         13   -1    0    0    0    0  0.00000000000E+00  0.00000000000E+00  0.74505805969E-08  0.10566000000E+00  0.10566000000E+00 0.  1.
     999900   -1    0    0    0    0 -0.00000000000E+00 -0.00000000000E+00 -0.74505805969E-08  0.93827000000E+00  0.93827000000E+00 0. -1.
     999902    2    1    2    0    0 -0.20049065045E-01  0.12387299882E-01  0.17027497543E-01  0.10148551676E+01  0.10144385961E+01 0.  0.
     999903    2    3    3    0    0  0.17379439228E-01 -0.29996109890E-01 -0.11623012886E+00  0.12302847963E+00  0.20609522780E-01 0.  0.
         14    1    1    2    0    0  0.20049065045E-01 -0.12387299882E-01 -0.17027497543E-01  0.29074832418E-01  0.00000000000E+00 0. -1.
     999901    1    3    3    0    0 -0.37428504273E-01  0.42383409771E-01  0.13325762640E+00  0.89182668796E+00  0.88000000000E+00 0.  1.
        -11    1    4    4    0    0  0.86210628358E-02 -0.66422383465E-02 -0.66554046131E-01  0.67439930546E-01  0.51100000000E-03 0. -1.
         11    1    4    4    0    0  0.87583763920E-02 -0.23353871543E-01 -0.49676082724E-01  0.55588549081E-01  0.51100000000E-03 0.  1.
</event>
<event>
 8    1  0.1161093E+005  0.1043930E+01  0.7957747E-01            NaN
         13   -1    0    0    0    0  0.00000000000E+00  0.00000000000E+00  0.74505805969E-08  0.10566000000E+00  0.10566000000E+00 0. -1.
     999900   -1    0    0    0    0 -0.00000000000E+00 -0.00000000000E+00 -0.74505805969E-08  0.93827000000E+00  0.93827000000E+00 0.  1.
     999902    2    1    2    0    0 -0.21242655578E-01 -0.38129644739E-02  0.95518854708E-02  0.10203285672E+01  0.10200555658E+01 0.  0.
     999903    2    3    3    0    0 -0.50332875113E-01  0.11888851510E+00 -0.10253764912E-01  0.13111871697E+00  0.20471954144E-01 0.  0.
         14    1    1    2    0    0  0.21242655578E-01  0.38129644739E-02 -0.95518854708E-02  0.23601432798E-01  0.00000000000E+00 0. -1.
     999901    1    3    3    0    0  0.29090219534E-01 -0.12270147957E+00  0.19805650383E-01  0.88920985023E+00  0.88000000000E+00 0.  1.
        -11    1    4    4    0    0 -0.34820838833E-02  0.88626407689E-02  0.46461072599E-02  0.10607485246E-01  0.51100000000E-03 0. -1.
         11    1    4    4    0    0 -0.46850791229E-01  0.11002587433E+00 -0.14899872172E-01  0.12051123172E+00  0.51100000000E-03 0.  1.
</event>
<event>
 8    1  0.1161093E+005  0.1043930E+01  0.7957747E-01            NaN
         13   -1    0    0    0    0  0.00000000000E+00  0.00000000000E+00  0.74505805969E-08  0.10566000000E+00  0.10566000000E+00 0.  1.
     999900   -1    0    0    0    0 -0.00000000000E+00 -0.00000000000E+00 -0.74505805969E-08  0.93827000000E+00  0.93827000000E+00 0.  1.
     999902    2    1    2    0    0 -0.10016230747E-01  0.16908230510E-02 -0.23958317264E-01  0.10179072268E+01  0.10175745366E+01 0.  0.
     999903    2    3    3    0    0 -0.12002140104E+00 -0.14879152495E-01 -0.44840471532E-01  0.13065767565E+00  0.20838292450E-01 0.  0.
         14    1    1    2    0    0  0.10016230747E-01 -0.16908230510E-02  0.23958317264E-01  0.26022773240E-01  0.00000000000E+00 0.  1.
     999901    1    3    3    0    0  0.11000517029E+00  0.16569975546E-01  0.20882154267E-01  0.88724955111E+00  0.88000000000E+00 0. -1.
        -11    1    4    4    0    0 -0.80694161181E-01 -0.91515820705E-02 -0.19500037464E-01  0.83521324734E-01  0.51100000000E-03 0.  1.
         11    1    4    4    0    0 -0.39327239858E-01 -0.57275704246E-02 -0.25340434068E-01  0.47136350915E-01  0.51100000000E-03 0. -1.
</event>
<event>
 8    1  0.1161093E+005  0.1043930E+01  0.7957747E-01            NaN
         13   -1    0    0    0    0  0.00000000000E+00  0.00000000000E+00  0.74505805969E-08  0.10566000000E+00  0.10566000000E+00 0. -1.
     999900   -1    0    0    0    0 -0.00000000000E+00 -0.00000000000E+00 -0.74505805969E-08  0.93827000000E+00  0.93827000000E+00 0.  1.
     999902    2    1    2    0    0 -0.18453336859E-02  0.31623450708E-02  0.22573519097E-01  0.10210614747E+01  0.10208053516E+01 0.  0.
     999903    2    3    3    0    0 -0.59871068545E-01 -0.11030948648E+00 -0.31031012323E-01  0.13026616254E+00  0.15925505406E-01 0.  0.
         14    1    1    2    0    0  0.18453336859E-02 -0.31623450708E-02 -0.22573519097E-01  0.22868525252E-01  0.00000000000E+00 0.  1.
     999901    1    3    3    0    0  0.58025734859E-01  0.11347183155E+00  0.53604531420E-01  0.89079531221E+00  0.88000000000E+00 0.  1.
        -11    1    4    4    0    0 -0.53205342662E-01 -0.86073017511E-01 -0.27631192252E-01  0.10489574223E+00  0.51100000000E-03 0. -1.
         11    1    4    4    0    0 -0.66657258834E-02 -0.24236468965E-01 -0.33998200706E-02  0.25370420315E-01  0.51100000000E-03 0.  1.
</event>
<event>
 8    1  0.1161093E+005  0.1043930E+01  0.7957747E-01            NaN
         13   -1    0    0    0    0  0.00000000000E+00  0.00000000000E+00  0.74505805969E-08  0.10566000000E+00  0.10566000000E+00 0.  1.
     999900   -1    0    0    0    0 -0.00000000000E+00 -0.00000000000E+00 -0.74505805969E-08  0.93827000000E+00  0.93827000000E+00 0. -1.
     999902    2    1    2    0    0  0.95376490386E-02  0.50900480671E-02 -0.16064972219E-01  0.10245661504E+01  0.10243831499E+01 0.  0.
     999903    2    3    3    0    0  0.10536817381E+00 -0.42943247158E-01 -0.72259862982E-01  0.13628210087E+00  0.20118366949E-01 0.  0.
         14    1    1    2    0    0 -0.95376490386E-02 -0.50900480671E-02  0.16064972219E-01  0.19363849589E-01  0.00000000000E+00 0. -1.
     999901    1    3    3    0    0 -0.95830524776E-01  0.48033295225E-01  0.56194890764E-01  0.88828404955E+00  0.88000000000E+00 0.  1.
        -11    1    4    4    0    0  0.71565932212E-01 -0.20839665329E-01 -0.40033037790E-01  0.84610162157E-01  0.51100000000E-03 0. -1.
         11    1    4    4    0    0  0.33802241602E-01 -0.22103581829E-01 -0.32226825192E-01  0.51671938709E-01  0.51100000000E-03 0.  1.
</event>
<event>
 8    1  0.1161093E+005  0.1043930E+01  0.7957747E-01            NaN
         13   -1    0    0    0    0  0.00000000000E+00  0.00000000000E+00  0.74505805969E-08  0.10566000000E+00  0.10566000000E+00 0.  1.
     999900   -1    0    0    0    0 -0.00000000000E+00 -0.00000000000E+00 -0.74505805969E-08  0.93827000000E+00  0.93827000000E+00 0.  1.
     999902    2    1    2    0    0  0.20325874770E-01  0.13941118883E-01  0.18341889456E-02  0.10192144132E+01  0.10189146971E+01 0.  0.
     999903    2    3    3    0    0 -0.72783202013E-01 -0.38866579994E-01  0.95596180237E-01  0.12778339275E+00  0.19543803401E-01 0.  0.
         14    1    1    2    0    0 -0.20325874770E-01 -0.13941118883E-01 -0.18341889456E-02  0.24715586782E-01  0.00000000000E+00 0. -1.
     999901    1    3    3    0    0  0.93109076783E-01  0.52807698877E-01 -0.93761991291E-01  0.89143102047E+00  0.88000000000E+00 0.  1.
        -11    1    4    4    0    0 -0.10853232228E-01 -0.12819384364E-01  0.12612589935E-01  0.21011135408E-01  0.51100000000E-03 0.  1.
         11    1    4    4    0    0 -0.61929969785E-01 -0.26047195630E-01  0.82983590302E-01  0.10677225734E+00  0.51100000000E-03 0. -1.
</event>
<event>
 8    1  0.1161093E+005  0.1043930E+01  0.7957747E-01            NaN
         13   -1    0    0    0    0  0.00000000000E+00  0.00000000000E+00  0.74505805969E-08  0.10566000000E+00  0.10566000000E+00 0.  1.
     999900   -1    0    0    0    0 -0.00000000000E+00 -0.00000000000E+00 -0.74505805969E-08  0.93827000000E+00  0.93827000000E+00 0. -1.
     999902    2    1    2    0    0 -0.26359252805E-02  0.16858834847E-01  0.15417707677E-01  0.10209327366E+01  0.10206736886E+01 0.  0.
     999903    2    3    3    0    0  0.11164086478E+00 -0.60889908725E-01 -0.15144938647E-01  0.12962014988E+00  0.20018751550E-01 0.  0.
         14    1    1    2    0    0  0.26359252805E-02 -0.16858834847E-01 -0.15417707677E-01  0.22997263413E-01  0.00000000000E+00 0. -1.
     999901    1    3    3    0    0 -0.11427679007E+00  0.77748743571E-01  0.30562646324E-01  0.89131258671E+00  0.88000000000E+00 0.  1.
        -11    1    4    4    0    0  0.49473388933E-01 -0.38076527674E-01 -0.95988813752E-02  0.63165163000E-01  0.51100000000E-03 0.  1.
         11    1    4    4    0    0  0.62167475852E-01 -0.22813381051E-01 -0.55460572716E-02  0.66454986878E-01  0.51100000000E-03 0. -1.
</event>
<event>
 8    1  0.1161093E+005  0.1043930E+01  0.7957747E-01            NaN
         13   -1    0    0    0    0  0.00000000000E+00  0.00000000000E+00  0.74505805969E-08  0.10566000000E+00  0.10566000000E+00 0.  1.
     999900   -1    0    0    0    0 -0.00000000000E+00 -0.00000000000E+00 -0.74505805969E-08  0.93827000000E+00  0.93827000000E+00 0. -1.
     999902    2    1    2    0    0 -0.16728991670E-01  0.12260014843E-01 -0.11515095043E-01  0.10202073412E+01  0.10199314950E+01 0.  0.
     999903    2    3    3    0    0  0.11417568490E+00  0.56451598568E-01 -0.10033065699E-01  0.12942615212E+00  0.20678405220E-01 0.  0.
         14    1    1    2    0    0  0.16728991670E-01 -0.12260014843E-01  0.11515095043E-01  0.23722658790E-01  0.00000000000E+00 0.  1.
     999901    1    3    3    0    0 -0.13090467657E+00 -0.44191583726E-01 -0.14820293435E-02  0.89078118909E+00  0.88000000000E+00 0. -1.
        -11    1    4    4    0    0  0.52839851149E-01  0.26928627822E-01  0.56283355129E-02  0.59574660280E-01  0.51100000000E-03 0. -1.
         11    1    4    4    0    0  0.61335833752E-01  0.29522970746E-01 -0.15661401212E-01  0.69851491843E-01  0.51100000000E-03 0.  1.
</event>
<event>
 8    1  0.1161093E+005  0.1043930E+01  0.7957747E-01            NaN
         13   -1    0    0    0    0  0.00000000000E+00  0.00000000000E+00  0.74505805969E-08  0.10566000000E+00  0.10566000000E+00 0.  1.
     999900   -1    0    0    0    0 -0.00000000000E+00 -0.00000000000E+00 -0.74505805969E-08  0.93827000000E+00  0.93827000000E+00 0. -1.
     999902    2    1    2    0    0 -0.19774571981E-01 -0.44872339371E-02 -0.97402974933E-02  0.10214346147E+01  0.10211868731E+01 0.  0.
     999903    2    3    3    0    0  0.14492202409E-01 -0.10025800493E+00  0.79796066891E-01  0.13106221341E+00  0.23413671419E-01 0.  0.
         14    1    1    2    0    0  0.19774571981E-01  0.44872339371E-02  0.97402974933E-02  0.22495385320E-01  0.00000000000E+00 0.  1.
     999901    1    3    3    0    0 -0.34266774390E-01  0.95770770988E-01 -0.89536364385E-01  0.89037240127E+00  0.88000000000E+00 0. -1.
        -11    1    4    4    0    0  0.15631616556E-01 -0.87140773349E-01  0.58822465242E-01  0.10629301649E+00  0.51100000000E-03 0. -1.
         11    1    4    4    0    0 -0.11394141469E-02 -0.13117231577E-01  0.20973601649E-01  0.24769196918E-01  0.51100000000E-03 0.  1.
</event>
<event>
 8    1  0.1161093E+005  0.1043930E+01  0.7957747E-01            NaN
         13   -1    0    0    0    0  0.00000000000E+00  0.00000000000E+00  0.74505805969E-08  0.10566000000E+00  0.10566000000E+00 0.  1.
     999900   -1    0    0    0    0 -0.00000000000E+00 -0.00000000000E+00 -0.74505805969E-08  0.93827000000E+00  0.93827000000E+00 0. -1.
     999902    2    1    2    0    0 -0.18679789674E-01 -0.69417414578E-02  0.12951191040E-01  0.10201633076E+01  0.10198864244E+01 0.  0.
     999903    2    3    3    0    0 -0.22937245572E-02  0.11191118934E+00  0.64226244713E-01  0.13054335877E+00  0.19676954478E-01 0.  0.
         14    1    1    2    0    0  0.18679789674E-01  0.69417414578E-02 -0.12951191040E-01  0.23766692367E-01  0.00000000000E+00 0. -1.
     999901    1    3    3    0    0 -0.16386065117E-01 -0.11885293079E+00 -0.51275053673E-01  0.88961994886E+00  0.88000000000E+00 0.  1.
        -11    1    4    4    0    0 -0.19996182335E-03  0.78407475362E-01  0.34355959446E-01  0.85605871574E-01  0.51100000000E-03 0. -1.
         11    1    4    4    0    0 -0.20937627338E-02  0.33503713974E-01  0.29870285267E-01  0.44937487195E-01  0.51100000000E-03 0.  1.
</event>
<event>
 8    1  0.1161093E+005  0.1043930E+01  0.7957747E-01            NaN
         13   -1    0    0    0    0  0.00000000000E+00  0.00000000000E+00  0.74505805969E-08  0.10566000000E+00  0.10566000000E+00 0. -1.
     999900   -1    0    0    0    0 -0.00000000000E+00 -0.00000000000E+00 -0.74505805969E-08  0.93827000000E+00  0.93827000000E+00 0. -1.
     999902    2    1    2    0    0 -0.28311622509E-02  0.12709322945E-01  0.20015216974E-01  0.10200521592E+01  0.10197726493E+01 0.  0.
     999903    2    3    3    0    0  0.10780301205E+00  0.58468225693E-01 -0.38456190233E-01  0.13002255120E+00  0.19671360691E-01 0.  0.
         14    1    1    2    0    0  0.28311622509E-02 -0.12709322945E-01 -0.20015216974E-01  0.23877840772E-01  0.00000000000E+00 0.  1.
     999901    1    3    3    0    0 -0.11063417430E+00 -0.45758902748E-01  0.58471407207E-01  0.89002960803E+00  0.88000000000E+00 0.  1.
        -11    1    4    4    0    0  0.68728598364E-01  0.45880305892E-01 -0.31201753022E-01  0.88331382954E-01  0.51100000000E-03 0. -1.
         11    1    4    4    0    0  0.39074413683E-01  0.12587919802E-01 -0.72544372104E-02  0.41691168248E-01  0.51100000000E-03 0.  1.
</event>
<event>
 8    1  0.1161093E+005  0.1043930E+01  0.7957747E-01            NaN
         13   -1    0    0    0    0  0.00000000000E+00  0.00000000000E+00  0.74505805969E-08  0.10566000000E+00  0.10566000000E+00 0.  1.
     999900   -1    0    0    0    0 -0.00000000000E+00 -0.00000000000E+00 -0.74505805969E-08  0.93827000000E+00  0.93827000000E+00 0. -1.
     999902    2    1    2    0    0  0.44407781491E-03 -0.21558807902E-01  0.84534180632E-02  0.10207688325E+01  0.10205060361E+01 0.  0.
     999903    2    3    3    0    0  0.87620990017E-01 -0.51545560732E-01  0.83018745303E-01  0.13281668998E+00  0.20341542305E-01 0.  0.
         14    1    1    2    0    0 -0.44407781491E-03  0.21558807902E-01 -0.84534180632E-02  0.23161167505E-01  0.00000000000E+00 0.  1.
     999901    1    3    3    0    0 -0.87176912202E-01  0.29986752830E-01 -0.74565327240E-01  0.88795214251E+00  0.88000000000E+00 0.  1.
        -11    1    4    4    0    0  0.54024718185E-01 -0.32339750980E-01  0.63672673983E-01  0.89548870465E-01  0.51100000000E-03 0. -1.
         11    1    4    4    0    0  0.33596271832E-01 -0.19205809751E-01  0.19346071320E-01  0.43267819517E-01  0.51100000000E-03 0.  1.
</event>
<event>
 8    1  0.1161093E+005  0.1043930E+01  0.7957747E-01            NaN
         13   -1    0    0    0    0  0.00000000000E+00  0.00000000000E+00  0.74505805969E-08  0.10566000000E+00  0.10566000000E+00 0. -1.
     999900   -1    0    0    0    0 -0.00000000000E+00 -0.00000000000E+00 -0.74505805969E-08  0.93827000000E+00  0.93827000000E+00 0.  1.
     999902    2    1    2    0    0 -0.42866287937E-02  0.41801846246E-02 -0.22841021987E-01  0.10203172616E+01  0.10200439956E+01 0.  0.
     999903    2    3    3    0    0 -0.42169856256E-01 -0.40766494588E-01  0.11155002515E+00  0.12817585102E+00  0.23354588750E-01 0.  0.
         14    1    1    2    0    0  0.42866287937E-02 -0.41801846246E-02  0.22841021987E-01  0.23612738412E-01  0.00000000000E+00 0. -1.
     999901    1    3    3    0    0  0.37883227462E-01  0.44946679213E-01 -0.13439104714E+00  0.89214141057E+00  0.88000000000E+00 0.  1.
        -11    1    4    4    0    0 -0.27720481127E-01 -0.28712612893E-01  0.95252630681E-01  0.10327712228E+00  0.51100000000E-03 0. -1.
         11    1    4    4    0    0 -0.14449375129E-01 -0.12053881695E-01  0.16297394473E-01  0.24898728745E-01  0.51100000000E-03 0.  1.
</event>
<event>
 8    1  0.1161093E+005  0.1043930E+01  0.7957747E-01            NaN
         13   -1    0    0    0    0  0.00000000000E+00  0.00000000000E+00  0.74505805969E-08  0.10566000000E+00  0.10566000000E+00 0.  1.
     999900   -1    0    0    0    0 -0.00000000000E+00 -0.00000000000E+00 -0.74505805969E-08  0.93827000000E+00  0.93827000000E+00 0. -1.
     999902    2    1    2    0    0  0.89680264215E-03  0.19241326987E-01 -0.13725922153E-01  0.10202776458E+01  0.10200034513E+01 0.  0.
     999903    2    3    3    0    0  0.91340789405E-01  0.87852512085E-01  0.29800215884E-01  0.13191840871E+00  0.21288729463E-01 0.  0.
         14    1    1    2    0    0 -0.89680264215E-03 -0.19241326987E-01  0.13725922153E-01  0.23652354178E-01  0.00000000000E+00 0.  1.
     999901    1    3    3    0    0 -0.90443986763E-01 -0.68611185098E-01 -0.43526138037E-01  0.88835923711E+00  0.88000000000E+00 0. -1.
        -11    1    4    4    0    0  0.35182466055E-01  0.41987183617E-01  0.21835304141E-01  0.58972630378E-01  0.51100000000E-03 0.  1.
         11    1    4    4    0    0  0.56158323351E-01  0.45865328468E-01  0.79649117437E-02  0.72945778337E-01  0.51100000000E-03 0. -1.
</event>
<event>
 8    1  0.1161093E+005  0.1043930E+01  0.7957747E-01            NaN
         13   -1    0    0    0    0  0.00000000000E+00  0.00000000000E+00  0.74505805969E-08  0.10566000000E+00  0.10566000000E+00 0. -1.
     999900   -1    0    0    0    0 -0.00000000000E+00 -0.00000000000E+00 -0.74505805969E-08  0.93827000000E+00  0.93827000000E+00 0.  1.
     999902    2    1    2    0    0  0.27435467146E-02 -0.20403410577E-01  0.11016308744E-01  0.10205807972E+01  0.10203136667E+01 0.  0.
     999903    2    3    3    0    0  0.34904185882E-01 -0.11085000123E+00  0.63578986698E-01  0.13380138408E+00  0.18828113744E-01 0.  0.
         14    1    1    2    0    0 -0.27435467146E-02  0.20403410577E-01 -0.11016308744E-01  0.23349202772E-01  0.00000000000E+00 0.  1.
     999901    1    3    3    0    0 -0.32160639167E-01  0.90446590652E-01 -0.52562677955E-01  0.88677941315E+00  0.88000000000E+00 0.  1.
        -11    1    4    4    0    0  0.18103980850E-01 -0.84862616382E-01  0.47540701033E-01  0.98943403810E-01  0.51100000000E-03 0. -1.
         11    1    4    4    0    0  0.16800205032E-01 -0.25987384847E-01  0.16038285665E-01  0.34857980268E-01  0.51100000000E-03 0.  1.
</event>
<event>
 8    1  0.1852481E+005  0.1043930E+01  0.7957747E-01            NaN
         13   -1    0    0    0    0  0.00000000000E+00  0.00000000000E+00  0.74505805969E-08  0.10566000000E+00  0.10566000000E+00 0. -1.
     999900   -1    0    0    0    0 -0.00000000000E+00 -0.00000000000E+00 -0.74505805969E-08  0.93827000000E+00  0.93827000000E+00 0.  1.
     999902    2    1    2    0    0 -0.23281316103E-01 -0.77454853755E-03 -0.65490868364E-03  0.10206265987E+01  0.10203605272E+01 0.  0.
     999903    2    3    3    0    0  0.62762931255E-01 -0.74386871134E-01  0.82861870366E-01  0.12944904128E+00  0.20454158265E-01 0.  0.
         14    1    1    2    0    0  0.23281316103E-01  0.77454853755E-03  0.65490868364E-03  0.23303401261E-01  0.00000000000E+00 0.  1.
     999901    1    3    3    0    0 -0.86044247358E-01  0.73612322597E-01 -0.83516779049E-01  0.89117755746E+00  0.88000000000E+00 0.  1.
        -11    1    4    4    0    0  0.54961148384E-01 -0.62781447217E-01  0.60488463137E-01  0.10305994974E+00  0.51100000000E-03 0. -1.
         11    1    4    4    0    0  0.78017828708E-02 -0.11605423918E-01  0.22373407228E-01  0.26389091540E-01  0.51100000000E-03 0.  1.
</event>
<event>
 8    1  0.1161093E+005  0.1043930E+01  0.7957747E-01            NaN
         13   -1    0    0    0    0  0.00000000000E+00  0.00000000000E+00  0.74505805969E-08  0.10566000000E+00  0.10566000000E+00 0. -1.
     999900   -1    0    0    0    0 -0.00000000000E+00 -0.00000000000E+00 -0.74505805969E-08  0.93827000000E+00  0.93827000000E+00 0. -1.
     999902    2    1    2    0    0 -0.16026367782E-01  0.21345277362E-01  0.57676890702E-02  0.10166219139E+01  0.10162550783E+01 0.  0.
     999903    2    3    3    0    0  0.46172767909E-01 -0.26673973879E-01  0.11318055841E+00  0.12661511309E+00  0.19445376854E-01 0.  0.
         14    1    1    2    0    0  0.16026367782E-01 -0.21345277362E-01 -0.57676890702E-02  0.27308086113E-01  0.00000000000E+00 0. -1.
     999901    1    3    3    0    0 -0.62199135690E-01  0.48019251241E-01 -0.10741286934E+00  0.89000680080E+00  0.88000000000E+00 0. -1.
        -11    1    4    4    0    0  0.14624786497E-01 -0.19060924333E-01  0.54334406674E-01  0.59411211788E-01  0.51100000000E-03 0. -1.
         11    1    4    4    0    0  0.31547981412E-01 -0.76130495455E-02  0.58846151737E-01  0.67203901299E-01  0.51100000000E-03 0.  1.
</event>
<event>
 8    1  0.1161093E+005  0.1043930E+01  0.7957747E-01            NaN
         13   -1    0    0    0    0  0.00000000000E+00  0.00000000000E+00  0.74505805969E-08  0.10566000000E+00  0.10566000000E+00 0. -1.
     999900   -1    0    0    0    0 -0.00000000000E+00 -0.00000000000E+00 -0.74505805969E-08  0.93827000000E+00  0.93827000000E+00 0.  1.
     999902    2    1    2    0    0 -0.15724488640E-01 -0.85691590850E-02 -0.40162642872E-02  0.10255773324E+01  0.10254131091E+01 0.  0.
     999903    2    3    3    0    0 -0.36346759025E-01  0.83484426350E-01 -0.98243006377E-01  0.13553361459E+00  0.20662430826E-01 0.  0.
         14    1    1    2    0    0  0.15724488640E-01  0.85691590850E-02  0.40162642872E-02  0.18352667633E-01  0.00000000000E+00 0. -1.
     999901    1    3    3    0    0  0.20622270385E-01 -0.92053585435E-01  0.94226742089E-01  0.89004371778E+00  0.88000000000E+00 0. -1.
        -11    1    4    4    0    0 -0.45338220737E-02  0.31902127537E-01 -0.27369165895E-01  0.42280416823E-01  0.51100000000E-03 0. -1.
         11    1    4    4    0    0 -0.31812936952E-01  0.51582298813E-01 -0.70873840482E-01  0.93253197768E-01  0.51100000000E-03 0.  1.
</event>
<event>
 8    1  0.1161093E+005  0.1043930E+01  0.7957747E-01            NaN
         13   -1    0    0    0    0  0.00000000000E+00  0.00000000000E+00  0.74505805969E-08  0.10566000000E+00  0.10566000000E+00 0. -1.
     999900   -1    0    0    0    0 -0.00000000000E+00 -0.00000000000E+00 -0.74505805969E-08  0.93827000000E+00  0.93827000000E+00 0. -1.
     999902    2    1    2    0    0 -0.83868591163E-02 -0.20720848381E-01 -0.76558376623E-02  0.10203015254E+01  0.10200278907E+01 0.  0.
     999903    2    3    3    0    0  0.53437669428E-01  0.79544960157E-01 -0.85255853570E-01  0.12906796049E+00  0.14387239330E-01 0.  0.
         14    1    1    2    0    0  0.83868591163E-02  0.20720848381E-01  0.76558376623E-02  0.23628474639E-01  0.00000000000E+00 0.  1.
     999901    1    3    3    0    0 -0.61824528544E-01 -0.10026580854E+00  0.77600015908E-01  0.89123356488E+00  0.88000000000E+00 0. -1.
        -11    1    4    4    0    0  0.16244814505E-01  0.19589441552E-01 -0.30698898015E-01  0.39878862559E-01  0.51100000000E-03 0.  1.
         11    1    4    4    0    0  0.37192854923E-01  0.59955518605E-01 -0.54556955555E-01  0.89189097926E-01  0.51100000000E-03 0. -1.
</event>
<event>
 8    1  0.1161093E+005  0.1043930E+01  0.7957747E-01            NaN
         13   -1    0    0    0    0  0.00000000000E+00  0.00000000000E+00  0.74505805969E-08  0.10566000000E+00  0.10566000000E+00 0. -1.
     999900   -1    0    0    0    0 -0.00000000000E+00 -0.00000000000E+00 -0.74505805969E-08  0.93827000000E+00  0.93827000000E+00 0. -1.
     999902    2    1    2    0    0  0.22516937951E-01  0.64176054683E-02 -0.33170290872E-02  0.10202825723E+01  0.10200084934E+01 0.  0.
     999903    2    3    3    0    0  0.70208936587E-01  0.11089326172E+00 -0.33044553135E-02  0.13282007189E+00  0.20090838694E-01 0.  0.
         14    1    1    2    0    0 -0.22516937951E-01 -0.64176054683E-02  0.33170290872E-02  0.23647427696E-01  0.00000000000E+00 0.  1.
     999901    1    3    3    0    0 -0.47691998635E-01 -0.10447565626E+00 -0.12573773743E-04  0.88746250041E+00  0.88000000000E+00 0. -1.
        -11    1    4    4    0    0  0.37998207606E-01  0.75690216626E-01  0.26227586946E-02  0.84734955351E-01  0.51100000000E-03 0.  1.
         11    1    4    4    0    0  0.32210728981E-01  0.35203045098E-01 -0.59272140080E-02  0.48085116539E-01  0.51100000000E-03 0. -1.
</event>
<event>
 8    1  0.1161093E+005  0.1043930E+01  0.7957747E-01            NaN
         13   -1    0    0    0    0  0.00000000000E+00  0.00000000000E+00  0.74505805969E-08  0.10566000000E+00  0.10566000000E+00 0.  1.
     999900   -1    0    0    0    0 -0.00000000000E+00 -0.00000000000E+00 -0.74505805969E-08  0.93827000000E+00  0.93827000000E+00 0. -1.
     999902    2    1    2    0    0 -0.15860429793E-02 -0.24791278135E-01 -0.52123215475E-02  0.10185471062E+01  0.10182307775E+01 0.  0.
     999903    2    3    3    0    0 -0.66570552899E-01  0.32283486818E-01 -0.10350728875E+00  0.12886041080E+00  0.20429992942E-01 0.  0.
         14    1    1    2    0    0  0.15860429793E-02  0.24791278135E-01  0.52123215475E-02  0.25382893843E-01  0.00000000000E+00 0.  1.
     999901    1    3    3    0    0  0.64984509920E-01 -0.57074764953E-01  0.98294967204E-01  0.88968669536E+00  0.88000000000E+00 0. -1.
        -11    1    4    4    0    0 -0.79725254730E-02  0.64695016378E-02 -0.28166423071E-01  0.29983730980E-01  0.51100000000E-03 0. -1.
         11    1    4    4    0    0 -0.58598027426E-01  0.25813985180E-01 -0.75340865681E-01  0.98876679817E-01  0.51100000000E-03 0.  1.
</event>
<event>
 8    1  0.1161093E+005  0.1043930E+01  0.7957747E-01            NaN
         13   -1    0    0    0    0  0.00000000000E+00  0.00000000000E+00  0.74505805969E-08  0.10566000000E+00  0.10566000000E+00 0.  1.
     999900   -1    0    0    0    0 -0.00000000000E+00 -0.00000000000E+00 -0.74505805969E-08  0.93827000000E+00  0.93827000000E+00 0.  1.
     999902    2    1    2    0    0 -0.16510333662E-01  0.16450960172E-01  0.36583228085E-02  0.10203374475E+01  0.10200646539E+01 0.  0.
     999903    2    3    3    0    0 -0.65807825428E-03  0.13069796821E+00 -0.10125628162E-01  0.13270369974E+00  0.20624054327E-01 0.  0.
         14    1    1    2    0    0  0.16510333662E-01 -0.16450960172E-01 -0.36583228085E-02  0.23592552511E-01  0.00000000000E+00 0. -1.
     999901    1    3    3    0    0 -0.15852255407E-01 -0.11424700804E+00  0.13783950971E-01  0.88763374775E+00  0.88000000000E+00 0. -1.
        -11    1    4    4    0    0  0.30981666452E-02  0.26566076196E-01 -0.98372946917E-02  0.28502430228E-01  0.51100000000E-03 0. -1.
         11    1    4    4    0    0 -0.37562448995E-02  0.10413189201E+00 -0.28833347045E-03  0.10420126951E+00  0.51100000000E-03 0.  1.
</event>
<event>
 8    1  0.1161093E+005  0.1043930E+01  0.7957747E-01            NaN
         13   -1    0    0    0    0  0.00000000000E+00  0.00000000000E+00  0.74505805969E-08  0.10566000000E+00  0.10566000000E+00 0.  1.
     999900   -1    0    0    0    0 -0.00000000000E+00 -0.00000000000E+00 -0.74505805969E-08  0.93827000000E+00  0.93827000000E+00 0.  1.
     999902    2    1    2    0    0 -0.21956440857E-01  0.23296119682E-02  0.77070441638E-02  0.10205438734E+01  0.10202758875E+01 0.  0.
     999903    2    3    3    0    0  0.11392354044E+00 -0.54778434406E-01  0.15331622322E-03  0.12825369803E+00  0.21673430964E-01 0.  0.
         14    1    1    2    0    0  0.21956440857E-01 -0.23296119682E-02 -0.77070441638E-02  0.23386126587E-01  0.00000000000E+00 0. -1.
     999901    1    3    3    0    0 -0.13587998130E+00  0.57108046375E-01  0.75537279405E-02  0.89229017538E+00  0.88000000000E+00 0.  1.
        -11    1    4    4    0    0  0.67955603988E-01 -0.20754776603E-01  0.67091902198E-03  0.71059384451E-01  0.51100000000E-03 0. -1.
         11    1    4    4    0    0  0.45967936454E-01 -0.34023657803E-01 -0.51760279875E-03  0.57194313579E-01  0.51100000000E-03 0.  1.
</event>
<event>
 8    1  0.1161093E+005  0.1043930E+01  0.7957747E-01            NaN
         13   -1    0    0    0    0  0.00000000000E+00  0.00000000000E+00  0.74505805969E-08  0.10566000000E+00  0.10566000000E+00 0.  1.
     999900   -1    0    0    0    0 -0.00000000000E+00 -0.00000000000E+00 -0.74505805969E-08  0.93827000000E+00  0.93827000000E+00 0. -1.
     999902    2    1    2    0    0 -0.18496048542E-01  0.82760065590E-02 -0.12454893536E-01  0.10201451210E+01  0.10198678088E+01 0.  0.
     999903    2    3    3    0    0 -0.11668477216E+00 -0.42331320446E-01  0.39050068080E-01  0.13174493636E+00  0.20604458112E-01 0.  0.
         14    1    1    2    0    0  0.18496048542E-01 -0.82760065590E-02  0.12454893536E-01  0.23784879004E-01  0.00000000000E+00 0.  1.
     999901    1    3    3    0    0  0.98188723620E-01  0.50607327005E-01 -0.51504961616E-01  0.88840018464E+00  0.88000000000E+00 0. -1.
        -11    1    4    4    0    0 -0.44956983338E-01 -0.91252373969E-02  0.68076485623E-02  0.46378933885E-01  0.51100000000E-03 0.  1.
         11    1    4    4    0    0 -0.71727788824E-01 -0.33206083049E-01  0.32242419517E-01  0.85366002474E-01  0.51100000000E-03 0. -1.
</event>
<event>
 8    1  0.1161093E+005  0.1043930E+01  0.7957747E-01            NaN
         13   -1    0    0    0    0  0.00000000000E+00  0.00000000000E+00  0.74505805969E-08  0.10566000000E+00  0.10566000000E+00 0.  1.
     999900   -1    0    0    0    0 -0.00000000000E+00 -0.00000000000E+00 -0.74505805969E-08  0.93827000000E+00  0.93827000000E+00 0. -1.
     999902    2    1    2    0    0  0.14574386779E-01 -0.58303413654E-02  0.18391608655E-01  0.10197503205E+01  0.10194636135E+01 0.  0.
     999903    2    3    3    0    0  0.15162215652E-01 -0.55556588182E-01  0.11786951064E+00  0.13275037794E+00  0.20322746673E-01 0.  0.
         14    1    1    2    0    0 -0.14574386779E-01  0.58303413654E-02 -0.18391608655E-01  0.24179679472E-01  0.00000000000E+00 0. -1.
     999901    1    3    3    0    0 -0.58782887267E-03  0.49726246816E-01 -0.99477901981E-01  0.88699994259E+00  0.88000000000E+00 0. -1.
        -11    1    4    4    0    0  0.78280901958E-02 -0.15747338280E-01  0.56958506649E-01  0.59613675106E-01  0.51100000000E-03 0.  1.
         11    1    4    4    0    0  0.73341254557E-02 -0.39809249902E-01  0.60911003987E-01  0.73136702836E-01  0.51100000000E-03 0. -1.
</event>
<event>
 8    1  0.1161093E+005  0.1043930E+01  0.7957747E-01            NaN
         13   -1    0    0    0    0  0.00000000000E+00  0.00000000000E+00  0.74505805969E-08  0.10566000000E+00  0.10566000000E+00 0.  1.
     999900   -1    0    0    0    0 -0.00000000000E+00 -0.00000000000E+00 -0.74505805969E-08  0.93827000000E+00  0.93827000000E+00 0. -1.
     999902    2    1    2    0    0  0.19065257169E-01 -0.14523782564E-01 -0.58707640887E-03  0.10199556606E+01  0.10196738599E+01 0.  0.
     999903    2    3    3    0    0 -0.43517543840E-01  0.99509197664E-01 -0.64973189876E-01  0.12806682270E+00  0.19589247886E-01 0.  0.
         14    1    1    2    0    0 -0.19065257169E-01  0.14523782564E-01  0.58707640887E-03  0.23974339398E-01  0.00000000000E+00 0.  1.
     999901    1    3    3    0    0  0.62582801008E-01 -0.11403298023E+00  0.64386113467E-01  0.89188883790E+00  0.88000000000E+00 0.  1.
        -11    1    4    4    0    0 -0.29531603433E-01  0.63183386830E-01 -0.52127887770E-01  0.87073726100E-01  0.51100000000E-03 0.  1.
         11    1    4    4    0    0 -0.13985940406E-01  0.36325810835E-01 -0.12845302107E-01  0.40993096602E-01  0.51100000000E-03 0. -1.
</event>
<event>
 8    1  0.1161093E+005  0.1043930E+01  0.7957747E-01            NaN
         13   -1    0    0    0    0  0.00000000000E+00  0.00000000000E+00  0.74505805969E-08  0.10566000000E+00  0.10566000000E+00 0.  1.
     999900   -1    0    0    0    0 -0.00000000000E+00 -0.00000000000E+00 -0.74505805969E-08  0.93827000000E+00  0.93827000000E+00 0. -1.
     999902    2    1    2    0    0  0.11966535062E-01  0.20425095702E-01  0.61312690687E-02  0.10194764735E+01  0.10191831558E+01 0.  0.
     999903    2    3    3    0    0 -0.13097937645E-01 -0.11219077789E-01 -0.12593862513E+00  0.12870599892E+00  0.20181010428E-01 0.  0.
         14    1    1    2    0    0 -0.11966535062E-01 -0.20425095702E-01 -0.61312690687E-02  0.24453526457E-01  0.00000000000E+00 0.  1.
     999901    1    3    3    0    0  0.25064472706E-01  0.31644173491E-01  0.13206989420E+00  0.89077047462E+00  0.88000000000E+00 0.  1.
        -11    1    4    4    0    0 -0.17759605520E-01 -0.59317718434E-02 -0.76233036396E-01  0.78500487034E-01  0.51100000000E-03 0. -1.
         11    1    4    4    0    0  0.46616678751E-02 -0.52873059457E-02 -0.49705588731E-01  0.50205511885E-01  0.51100000000E-03 0.  1.
</event>
<event>
 8    1  0.1161093E+005  0.1043930E+01  0.7957747E-01            NaN
         13   -1    0    0    0    0  0.00000000000E+00  0.00000000000E+00  0.74505805969E-08  0.10566000000E+00  0.10566000000E+00 0.  1.
     999900   -1    0    0    0    0 -0.00000000000E+00 -0.00000000000E+00 -0.74505805969E-08  0.93827000000E+00  0.93827000000E+00 0. -1.
     999902    2    1    2    0    0 -0.54639965330E-02  0.21232772890E-01  0.87376018975E-02  0.10203284833E+01  0.10200554800E+01 0.  0.
     999903    2    3    3    0    0 -0.13827148006E-01  0.27819285388E-01 -0.12463623687E+00  0.13021506059E+00  0.21369787160E-01 0.  0.
         14    1    1    2    0    0  0.54639965330E-02 -0.21232772890E-01 -0.87376018975E-02  0.23601516681E-01  0.00000000000E+00 0. -1.
     999901    1    3    3    0    0  0.83631514728E-02 -0.65865124980E-02  0.13337383877E+00  0.89011342273E+00  0.88000000000E+00 0.  1.
        -11    1    4    4    0    0  0.47658181903E-02  0.97151501282E-02 -0.24858309931E-01  0.27116302452E-01  0.51100000000E-03 0.  1.
         11    1    4    4    0    0 -0.18592966196E-01  0.18104135260E-01 -0.99777926938E-01  0.10309875814E+00  0.51100000000E-03 0. -1.
</event>
<event>
 8    1  0.1161093E+005  0.1043930E+01  0.7957747E-01            NaN
         13   -1    0    0    0    0  0.00000000000E+00  0.00000000000E+00  0.74505805969E-08  0.10566000000E+00  0.10566000000E+00 0. -1.
     999900   -1    0    0    0    0 -0.00000000000E+00 -0.00000000000E+00 -0.74505805969E-08  0.93827000000E+00  0.93827000000E+00 0.  1.
     999902    2    1    2    0    0 -0.12197356174E-02 -0.28694370445E-02  0.25002725041E-01  0.10187336177E+01  0.10184219784E+01 0.  0.
     999903    2    3    3    0    0  0.11978856582E+00  0.37122329320E-01 -0.18913445717E-01  0.12846906121E+00  0.20474702056E-01 0.  0.
         14    1    1    2    0    0  0.12197356174E-02  0.28694370445E-02 -0.25002725041E-01  0.25196382348E-01  0.00000000000E+00 0.  1.
     999901    1    3    3    0    0 -0.12100830144E+00 -0.39991766364E-01  0.43916170758E-01  0.89026455644E+00  0.88000000000E+00 0. -1.
        -11    1    4    4    0    0  0.57607984083E-01  0.11516855991E-01 -0.52669256790E-03  0.58752500611E-01  0.51100000000E-03 0.  1.
         11    1    4    4    0    0  0.62180581741E-01  0.25605473329E-01 -0.18386753149E-01  0.69716560604E-01  0.51100000000E-03 0. -1.
</event>
<event>
 8    1  0.1161093E+005  0.1043930E+01  0.7957747E-01            NaN
         13   -1    0    0    0    0  0.00000000000E+00  0.00000000000E+00  0.74505805969E-08  0.10566000000E+00  0.10566000000E+00 0. -1.
     999900   -1    0    0    0    0 -0.00000000000E+00 -0.00000000000E+00 -0.74505805969E-08  0.93827000000E+00  0.93827000000E+00 0. -1.
     999902    2    1    2    0    0 -0.43051317292E-02  0.23368640217E-01  0.11788416919E-02  0.10201388846E+01  0.10198614252E+01 0.  0.
     999903    2    3    3    0    0 -0.47035076114E-01 -0.19790918305E-01 -0.11855003145E+00  0.12995710613E+00  0.15190807892E-01 0.  0.
         14    1    1    2    0    0  0.43051317292E-02 -0.23368640217E-01 -0.11788416919E-02  0.23791115412E-01  0.00000000000E+00 0. -1.
     999901    1    3    3    0    0  0.42729944385E-01  0.43159558522E-01  0.11972887314E+00  0.89018177846E+00  0.88000000000E+00 0.  1.
        -11    1    4    4    0    0 -0.23120525108E-01 -0.17782070066E-01 -0.68235269085E-01  0.74209660862E-01  0.51100000000E-03 0.  1.
         11    1    4    4    0    0 -0.23914551006E-01 -0.20088482388E-02 -0.50314762363E-01  0.55747445266E-01  0.51100000000E-03 0. -1.
</event>
<event>
 8    1  0.1161093E+005  0.1043930E+01  0.7957747E-01            NaN
         13   -1    0    0    0    0  0.00000000000E+00  0.00000000000E+00  0.74505805969E-08  0.10566000000E+00  0.10566000000E+00 0.  1.
     999900   -1    0    0    0    0 -0.00000000000E+00 -0.00000000000E+00 -0.74505805969E-08  0.93827000000E+00  0.93827000000E+00 0.  1.
     999902    2    1    2    0    0 -0.35994563756E-03  0.17178745834E-03  0.23875440139E-01  0.10200512288E+01  0.10197716968E+01 0.  0.
     999903    2    3    3    0    0 -0.11665417102E-01  0.10435782893E+00  0.77424927116E-01  0.13221673270E+00  0.21447765670E-01 0.  0.
         14    1    1    2    0    0  0.35994563756E-03 -0.17178745834E-03 -0.23875440139E-01  0.23878771192E-01  0.00000000000E+00 0. -1.
     999901    1    3    3    0    0  0.11305471464E-01 -0.10418604147E+00 -0.53549486977E-01  0.88783449611E+00  0.88000000000E+00 0. -1.
        -11    1    4    4    0    0 -0.16583426664E-01  0.74572539053E-01  0.49075588887E-01  0.90800595628E-01  0.51100000000E-03 0.  1.
         11    1    4    4    0    0  0.49180095617E-02  0.29785289876E-01  0.28349338229E-01  0.41416137073E-01  0.51100000000E-03 0. -1.
</event>
<event>
 8    1  0.1161093E+005  0.1043930E+01  0.7957747E-01            NaN
         13   -1    0    0    0    0  0.00000000000E+00  0.00000000000E+00  0.74505805969E-08  0.10566000000E+00  0.10566000000E+00 0. -1.
     999900   -1    0    0    0    0 -0.00000000000E+00 -0.00000000000E+00 -0.74505805969E-08  0.93827000000E+00  0.93827000000E+00 0.  1.
     999902    2    1    2    0    0 -0.63118764968E-02 -0.20406285039E-01 -0.23473246845E-01  0.10121928046E+01  0.10116951241E+01 0.  0.
     999903    2    3    3    0    0 -0.25260824575E-01 -0.11382949685E+00 -0.46555215938E-01  0.12674391481E+00  0.17359959656E-01 0.  0.
         14    1    1    2    0    0  0.63118764968E-02  0.20406285039E-01  0.23473246845E-01  0.31737195394E-01  0.00000000000E+00 0. -1.
     999901    1    3    3    0    0  0.18948948078E-01  0.93423211814E-01  0.23081969092E-01  0.88544888979E+00  0.88000000000E+00 0. -1.
        -11    1    4    4    0    0 -0.26082225713E-01 -0.86988700878E-01 -0.32711528110E-01  0.96527828997E-01  0.51100000000E-03 0.  1.
         11    1    4    4    0    0  0.82140113799E-03 -0.26840795974E-01 -0.13843687828E-01  0.30216085816E-01  0.51100000000E-03 0. -1.
</event>
<event>
 8    1  0.1161093E+005  0.1043930E+01  0.7957747E-01            NaN
         13   -1    0    0    0    0  0.00000000000E+00  0.00000000000E+00  0.74505805969E-08  0.10566000000E+00  0.10566000000E+00 0.  1.
     999900   -1    0    0    0    0 -0.00000000000E+00 -0.00000000000E+00 -0.74505805969E-08  0.93827000000E+00  0.93827000000E+00 0.  1.
     999902    2    1    2    0    0 -0.81242209631E-02  0.46791706113E-02  0.22101477312E-01  0.10199222324E+01  0.10196396360E+01 0.  0.
     999903    2    3    3    0    0  0.73352390717E-01 -0.10205442602E+00 -0.19163408074E-01  0.12878066699E+00  0.20531558354E-01 0.  0.
         14    1    1    2    0    0  0.81242209631E-02 -0.46791706113E-02 -0.22101477312E-01  0.24007767561E-01  0.00000000000E+00 0. -1.
     999901    1    3    3    0    0 -0.81476611680E-01  0.10673359663E+00  0.41264885387E-01  0.89114156545E+00  0.88000000000E+00 0. -1.
        -11    1    4    4    0    0  0.40728513183E-01 -0.60017391402E-01 -0.21072359773E-01  0.75532804292E-01  0.51100000000E-03 0.  1.
         11    1    4    4    0    0  0.32623877534E-01 -0.42037034616E-01  0.19089516991E-02  0.53247862701E-01  0.51100000000E-03 0. -1.
</event>
<event>
 8    1  0.1161093E+005  0.1043930E+01  0.7957747E-01            NaN
         13   -1    0    0    0    0  0.00000000000E+00  0.00000000000E+00  0.74505805969E-08  0.10566000000E+00  0.10566000000E+00 0.  1.
     999900   -1    0    0    0    0 -0.00000000000E+00 -0.00000000000E+00 -0.74505805969E-08  0.93827000000E+00  0.93827000000E+00 0. -1.
     999902    2    1    2    0    0 -0.12499838592E-01  0.17115697273E-01  0.12522306747E-01  0.10193129079E+01  0.10190156049E+01 0.  0.
     999903    2    3    3    0    0  0.98069293725E-01  0.60248764456E-01  0.57545948939E-01  0.13020485885E+00  0.19856209056E-01 0.  0.
         14    1    1    2    0    0  0.12499838592E-01 -0.17115697273E-01 -0.12522306747E-01  0.24617092116E-01  0.00000000000E+00 0. -1.
     999901    1    3    3    0    0 -0.11056913232E+00 -0.43133067184E-01 -0.45023642192E-01  0.88910804904E+00  0.88000000000E+00 0. -1.
        -11    1    4    4    0    0  0.63380792720E-01  0.43483772616E-01  0.28602538098E-01  0.82014204095E-01  0.51100000000E-03 0. -1.
         11    1    4    4    0    0  0.34688501005E-01  0.16764991840E-01  0.28943410841E-01  0.48190654753E-01  0.51100000000E-03 0.  1.
</event>
<event>
 8    1  0.1161093E+005  0.1043930E+01  0.7957747E-01            NaN
         13   -1    0    0    0    0  0.00000000000E+00  0.00000000000E+00  0.74505805969E-08  0.10566000000E+00  0.10566000000E+00 0.  1.
     999900   -1    0    0    0    0 -0.00000000000E+00 -0.00000000000E+00 -0.74505805969E-08  0.93827000000E+00  0.93827000000E+00 0. -1.
     999902    2    1    2    0    0  0.22477387448E-01  0.51419506169E-02 -0.24606465636E-02  0.10207410504E+01  0.10204776159E+01 0.  0.
     999903    2    3    3    0    0 -0.29051785399E-02 -0.10124245742E+00  0.79030658609E-01  0.13023403203E+00  0.21367799394E-01 0.  0.
         14    1    1    2    0    0 -0.22477387448E-01 -0.51419506169E-02  0.24606465636E-02  0.23188949613E-01  0.00000000000E+00 0. -1.
     999901    1    3    3    0    0  0.25382565988E-01  0.10638440804E+00 -0.81491305173E-01  0.89050701836E+00  0.88000000000E+00 0. -1.
        -11    1    4    4    0    0  0.61131737133E-02 -0.77784221897E-01  0.64239679613E-01  0.10106806433E+00  0.51100000000E-03 0.  1.
         11    1    4    4    0    0 -0.90183522531E-02 -0.23458235523E-01  0.14790978997E-01  0.29165967700E-01  0.51100000000E-03 0. -1.
</event>
<event>
 8    1  0.1161093E+005  0.1043930E+01  0.7957747E-01            NaN
         13   -1    0    0    0    0  0.00000000000E+00  0.00000000000E+00  0.74505805969E-08  0.10566000000E+00  0.10566000000E+00 0. -1.
     999900   -1    0    0    0    0 -0.00000000000E+00 -0.00000000000E+00 -0.74505805969E-08  0.93827000000E+00  0.93827000000E+00 0. -1.
     999902    2    1    2    0    0  0.44390715600E-02  0.22537887266E-01  0.25365028583E-02  0.10208194923E+01  0.10205578574E+01 0.  0.
     999903    2    3    3    0    0 -0.39751281475E-01  0.38031865102E-01  0.11833038270E+00  0.13199944683E+00  0.19879319671E-01 0.  0.
         14    1    1    2    0    0 -0.44390715600E-02 -0.22537887266E-01 -0.25365028583E-02  0.23110507685E-01  0.00000000000E+00 0. -1.
     999901    1    3    3    0    0  0.44190353035E-01 -0.15493977836E-01 -0.11579387984E+00  0.88882004549E+00  0.88000000000E+00 0. -1.
        -11    1    4    4    0    0 -0.36809818956E-01  0.35558717620E-01  0.91090332058E-01  0.10448490267E+00  0.51100000000E-03 0. -1.
         11    1    4    4    0    0 -0.29414625190E-02  0.24731474826E-02  0.27240050643E-01  0.27514544159E-01  0.51100000000E-03 0.  1.
</event>
<event>
 8    1  0.1161093E+005  0.1043930E+01  0.7957747E-01            NaN
         13   -1    0    0    0    0  0.00000000000E+00  0.00000000000E+00  0.74505805969E-08  0.10566000000E+00  0.10566000000E+00 0. -1.
     999900   -1    0    0    0    0 -0.00000000000E+00 -0.00000000000E+00 -0.74505805969E-08  0.93827000000E+00  0.93827000000E+00 0.  1.
     999902    2    1    2    0    0 -0.11027732924E-01  0.16001599445E-01 -0.14433745656E-01  0.10197226645E+01  0.10194352934E+01 0.  0.
     999903    2    3    3    0    0  0.12357656638E-01 -0.12139456929E+00  0.31311002124E-01  0.12758076683E+00  0.20177216863E-01 0.  0.
         14    1    1    2    0    0  0.11027732924E-01 -0.16001599445E-01  0.14433745656E-01  0.24207335498E-01  0.00000000000E+00 0. -1.
     999901    1    3    3    0    0 -0.23385389562E-01  0.13739616874E+00 -0.45744747780E-01  0.89214189767E+00  0.88000000000E+00 0. -1.
        -11    1    4    4    0    0 -0.36411314203E-02 -0.11812055575E-01  0.69425800370E-02  0.14186015420E-01  0.51100000000E-03 0. -1.
         11    1    4    4    0    0  0.15998788058E-01 -0.10958251372E+00  0.24368422087E-01  0.11339475141E+00  0.51100000000E-03 0.  1.
</event>
<event>
 8    1  0.1161093E+005  0.1043930E+01  0.7957747E-01            NaN
         13   -1    0    0    0    0  0.00000000000E+00  0.00000000000E+00  0.74505805969E-08  0.10566000000E+00  0.10566000000E+00 0.  1.
     999900   -1    0    0    0    0 -0.00000000000E+00 -0.00000000000E+00 -0.74505805969E-08  0.93827000000E+00  0.93827000000E+00 0. -1.
     999902    2    1    2    0    0  0.32433169571E-01 -0.60928723440E-02 -0.10858638761E-01  0.10091889059E+01  0.10085907516E+01 0.  0.
     999903    2    3    3    0    0 -0.95769370071E-01  0.17614516512E-01 -0.63554661453E-01  0.11802404897E+00  0.20209841854E-01 0.  0.
         14    1    1    2    0    0 -0.32433169571E-01  0.60928723440E-02  0.10858638761E-01  0.34741094076E-01  0.00000000000E+00 0.  1.
     999901    1    3    3    0    0  0.12820253964E+00 -0.23707388856E-01  0.52696022692E-01  0.89116485695E+00  0.88000000000E+00 0.  1.
        -11    1    4    4    0    0 -0.59800095425E-01  0.68025821303E-02 -0.28302337454E-01  0.66510224499E-01  0.51100000000E-03 0.  1.
         11    1    4    4    0    0 -0.35969274646E-01  0.10811934382E-01 -0.35252323999E-01  0.51513824474E-01  0.51100000000E-03 0. -1.
</event>
<event>
 8    1  0.1161093E+005  0.1043930E+01  0.7957747E-01            NaN
         13   -1    0    0    0    0  0.00000000000E+00  0.00000000000E+00  0.74505805969E-08  0.10566000000E+00  0.10566000000E+00 0.  1.
     999900   -1    0    0    0    0 -0.00000000000E+00 -0.00000000000E+00 -0.74505805969E-08  0.93827000000E+00  0.93827000000E+00 0.  1.
     999902    2    1    2    0    0 -0.47733027987E-02  0.92307200072E-02  0.21110651520E-01  0.10204002270E+01  0.10201289002E+01 0.  0.
     999903    2    3    3    0    0 -0.11839154683E+00  0.37994610697E-02 -0.50726937569E-01  0.13017596131E+00  0.18481462164E-01 0.  0.
         14    1    1    2    0    0  0.47733027987E-02 -0.92307200072E-02 -0.21110651520E-01  0.23529773035E-01  0.00000000000E+00 0. -1.
     999901    1    3    3    0    0  0.11361824403E+00  0.54312589375E-02  0.71837589090E-01  0.89022426565E+00  0.88000000000E+00 0. -1.
        -11    1    4    4    0    0 -0.59590827680E-01 -0.32152160760E-03 -0.35219385881E-01  0.69223091397E-01  0.51100000000E-03 0. -1.
         11    1    4    4    0    0 -0.58800719149E-01  0.41209826773E-02 -0.15507551688E-01  0.60952869916E-01  0.51100000000E-03 0.  1.
</event>
<event>
 8    1  0.1161093E+005  0.1043930E+01  0.7957747E-01            NaN
         13   -1    0    0    0    0  0.00000000000E+00  0.00000000000E+00  0.74505805969E-08  0.10566000000E+00  0.10566000000E+00 0. -1.
     999900   -1    0    0    0    0 -0.00000000000E+00 -0.00000000000E+00 -0.74505805969E-08  0.93827000000E+00  0.93827000000E+00 0. -1.
     999902    2    1    2    0    0  0.11288716330E-01 -0.20784663263E-01  0.42839697495E-02  0.10198927427E+01  0.10196094433E+01 0.  0.
     999903    2    3    3    0    0  0.92029829456E-01 -0.84663605581E-01 -0.40142405476E-01  0.13277755881E+00  0.19520547769E-01 0.  0.
         14    1    1    2    0    0 -0.11288716330E-01  0.20784663263E-01 -0.42839697495E-02  0.24037257334E-01  0.00000000000E+00 0.  1.
     999901    1    3    3    0    0 -0.80741113126E-01  0.63878942318E-01  0.44426375226E-01  0.88711518386E+00  0.88000000000E+00 0. -1.
        -11    1    4    4    0    0  0.40187378387E-01 -0.50155909615E-01 -0.19438496181E-01  0.67147277724E-01  0.51100000000E-03 0. -1.
         11    1    4    4    0    0  0.51842451069E-01 -0.34507695966E-01 -0.20703909295E-01  0.65630281081E-01  0.51100000000E-03 0.  1.
</event>
<event>
 8    1  0.1161093E+005  0.1043930E+01  0.7957747E-01            NaN
         13   -1    0    0    0    0  0.00000000000E+00  0.00000000000E+00  0.74505805969E-08  0.10566000000E+00  0.10566000000E+00 0. -1.
     999900   -1    0    0    0    0 -0.00000000000E+00 -0.00000000000E+00 -0.74505805969E-08  0.93827000000E+00  0.93827000000E+00 0. -1.
     999902    2    1    2    0    0 -0.61527375025E-02 -0.56213004729E-02 -0.22320582712E-01  0.10201043078E+01  0.10198260318E+01 0.  0.
     999903    2    3    3    0    0  0.23026591288E-01 -0.11969248412E+00  0.40567627417E-01  0.13003768378E+00  0.20187920792E-01 0.  0.
         14    1    1    2    0    0  0.61527375025E-02  0.56213004729E-02  0.22320582712E-01  0.23825692233E-01  0.00000000000E+00 0. -1.
     999901    1    3    3    0    0 -0.29179328791E-01  0.11407118365E+00 -0.62888210129E-01  0.89006662399E+00  0.88000000000E+00 0.  1.
        -11    1    4    4    0    0  0.33230610277E-02 -0.46383873549E-01  0.24022324572E-01  0.52343477711E-01  0.51100000000E-03 0. -1.
         11    1    4    4    0    0  0.19703530261E-01 -0.73308610574E-01  0.16545302845E-01  0.77694206067E-01  0.51100000000E-03 0.  1.
</event>
<event>
 8    1  0.1161093E+005  0.1043930E+01  0.7957747E-01            NaN
         13   -1    0    0    0    0  0.00000000000E+00  0.00000000000E+00  0.74505805969E-08  0.10566000000E+00  0.10566000000E+00 0.  1.
     999900   -1    0    0    0    0 -0.00000000000E+00 -0.00000000000E+00 -0.74505805969E-08  0.93827000000E+00  0.93827000000E+00 0. -1.
     999902    2    1    2    0    0  0.12659795292E-02  0.13041882293E-01  0.19445345222E-01  0.10204818690E+01  0.10202124436E+01 0.  0.
     999903    2    3    3    0    0  0.53710577175E-01 -0.14734906217E-01  0.11909209089E+00  0.13287189848E+00  0.19237248526E-01 0.  0.
         14    1    1    2    0    0 -0.12659795292E-02 -0.13041882293E-01 -0.19445345222E-01  0.23448131028E-01  0.00000000000E+00 0.  1.
     999901    1    3    3    0    0 -0.52444597646E-01  0.27776788510E-01 -0.99646745665E-01  0.88760997050E+00  0.88000000000E+00 0.  1.
        -11    1    4    4    0    0  0.42718502911E-01 -0.88672225518E-02  0.72291009712E-01  0.84437843014E-01  0.51100000000E-03 0. -1.
         11    1    4    4    0    0  0.10992074264E-01 -0.58676836656E-02  0.46801081176E-01  0.48434055461E-01  0.51100000000E-03 0.  1.
</event>
<event>
 8    1  0.1161093E+005  0.1043930E+01  0.7957747E-01            NaN
         13   -1    0    0    0    0  0.00000000000E+00  0.00000000000E+00  0.74505805969E-08  0.10566000000E+00  0.10566000000E+00 0.  1.
     999900   -1    0    0    0    0 -0.00000000000E+00 -0.00000000000E+00 -0.74505805969E-08  0.93827000000E+00  0.93827000000E+00 0.  1.
     999902    2    1    2    0    0  0.24134577107E-01  0.67863946614E-02 -0.59295107089E-02  0.10181677784E+01  0.10178418015E+01 0.  0.
     999903    2    3    3    0    0  0.17313897458E-01 -0.12245233011E+00  0.26651651468E-01  0.12810558856E+00  0.20159045126E-01 0.  0.
         14    1    1    2    0    0 -0.24134577107E-01 -0.67863946614E-02  0.59295107089E-02  0.25762221602E-01  0.00000000000E+00 0.  1.
     999901    1    3    3    0    0  0.68206796487E-02  0.12923872477E+00 -0.32581162177E-01  0.89006218984E+00  0.88000000000E+00 0.  1.
        -11    1    4    4    0    0  0.11600101299E-03 -0.63786840772E-01  0.18571537528E-01  0.66437471649E-01  0.51100000000E-03 0.  1.
         11    1    4    4    0    0  0.17197896445E-01 -0.58665489335E-01  0.80801139394E-02  0.61668116911E-01  0.51100000000E-03 0. -1.
</event>
<event>
 8    1  0.1161093E+005  0.1043930E+01  0.7957747E-01            NaN
         13   -1    0    0    0    0  0.00000000000E+00  0.00000000000E+00  0.74505805969E-08  0.10566000000E+00  0.10566000000E+00 0.  1.
     999900   -1    0    0    0    0 -0.00000000000E+00 -0.00000000000E+00 -0.74505805969E-08  0.93827000000E+00  0.93827000000E+00 0. -1.
     999902    2    1    2    0    0  0.23187792912E-01  0.20209276188E-02 -0.56098107212E-02  0.10199878225E+01  0.10197067863E+01 0.  0.
     999903    2    3    3    0    0  0.11111897437E+00 -0.39702352368E-01  0.56721529259E-01  0.13243054504E+00  0.19920194018E-01 0.  0.
         14    1    1    2    0    0 -0.23187792912E-01 -0.20209276188E-02  0.56098107212E-02  0.23942177530E-01  0.00000000000E+00 0. -1.
     999901    1    3    3    0    0 -0.87931181463E-01  0.41723279987E-01 -0.62331339980E-01  0.88755727742E+00  0.88000000000E+00 0. -1.
        -11    1    4    4    0    0  0.10905902571E+00 -0.36813743347E-01  0.51511097649E-01  0.12610621353E+00  0.51100000000E-03 0.  1.
         11    1    4    4    0    0  0.20599486639E-02 -0.28886090219E-02  0.52104316106E-02  0.63243315179E-02  0.51100000000E-03 0. -1.
</event>
<event>
 8    1  0.1161093E+005  0.1043930E+01  0.7957747E-01            NaN
         13   -1    0    0    0    0  0.00000000000E+00  0.00000000000E+00  0.74505805969E-08  0.10566000000E+00  0.10566000000E+00 0. -1.
     999900   -1    0    0    0    0 -0.00000000000E+00 -0.00000000000E+00 -0.74505805969E-08  0.93827000000E+00  0.93827000000E+00 0. -1.
     999902    2    1    2    0    0 -0.19288650324E-01 -0.80668994144E-02 -0.11691886636E-01  0.10199753113E+01  0.10196939779E+01 0.  0.
     999903    2    3    3    0    0  0.72788523249E-01  0.51213141801E-01 -0.91860984600E-01  0.12957123817E+00  0.20719803569E-01 0.  0.
         14    1    1    2    0    0  0.19288650324E-01  0.80668994144E-02  0.11691886636E-01  0.23954688697E-01  0.00000000000E+00 0. -1.
     999901    1    3    3    0    0 -0.92077173573E-01 -0.59280041215E-01  0.80169097964E-01  0.89040407313E+00  0.88000000000E+00 0.  1.
        -11    1    4    4    0    0  0.48778783834E-01  0.22205707225E-01 -0.57247039622E-01  0.78421603223E-01  0.51100000000E-03 0.  1.
         11    1    4    4    0    0  0.24009739415E-01  0.29007434576E-01 -0.34613944978E-01  0.51149634949E-01  0.51100000000E-03 0. -1.
</event>
<event>
 8    1  0.1161093E+005  0.1043930E+01  0.7957747E-01            NaN
         13   -1    0    0    0    0  0.00000000000E+00  0.00000000000E+00  0.74505805969E-08  0.10566000000E+00  0.10566000000E+00 0.  1.
     999900   -1    0    0    0    0 -0.00000000000E+00 -0.00000000000E+00 -0.74505805969E-08  0.93827000000E+00  0.93827000000E+00 0.  1.
     999902    2    1    2    0    0 -0.76495281310E-02  0.21300435564E-01  0.89504854727E-02  0.10195920661E+01  0.10193015482E+01 0.  0.
     999903    2    3    3    0    0  0.77964088035E-01  0.10286319935E+00  0.17132622760E-01  0.13164548941E+00  0.19436340071E-01 0.  0.
         14    1    1    2    0    0  0.76495281310E-02 -0.21300435564E-01 -0.89504854727E-02  0.24337933890E-01  0.00000000000E+00 0.  1.
     999901    1    3    3    0    0 -0.85613616166E-01 -0.81562763783E-01 -0.81821372876E-02  0.88794657670E+00  0.88000000000E+00 0.  1.
        -11    1    4    4    0    0  0.49397850853E-01  0.57288559921E-01  0.18356433601E-01  0.77841804593E-01  0.51100000000E-03 0. -1.
         11    1    4    4    0    0  0.28566237183E-01  0.45574639425E-01 -0.12238108409E-02  0.53803684813E-01  0.51100000000E-03 0.  1.
</event>
<event>
 8    1  0.1161093E+005  0.1043930E+01  0.7957747E-01            NaN
         13   -1    0    0    0    0  0.00000000000E+00  0.00000000000E+00  0.74505805969E-08  0.10566000000E+00  0.10566000000E+00 0.  1.
     999900   -1    0    0    0    0 -0.00000000000E+00 -0.00000000000E+00 -0.74505805969E-08  0.93827000000E+00  0.93827000000E+00 0. -1.
     999902    2    1    2    0    0 -0.12648036418E-01  0.16806533047E-01 -0.11494061413E-01  0.10199603144E+01  0.10196786245E+01 0.  0.
     999903    2    3    3    0    0 -0.12146023071E+00  0.19942132627E-01 -0.45795386138E-01  0.13258975684E+00  0.18235951587E-01 0.  0.
         14    1    1    2    0    0  0.12648036418E-01 -0.16806533047E-01  0.11494061413E-01  0.23969685564E-01  0.00000000000E+00 0.  1.
     999901    1    3    3    0    0  0.10881219429E+00 -0.31355995802E-02  0.34301324725E-01  0.88737055760E+00  0.88000000000E+00 0.  1.
        -11    1    4    4    0    0 -0.34744802150E-01  0.13191193488E-01 -0.96604412810E-02  0.38403048172E-01  0.51100000000E-03 0.  1.
         11    1    4    4    0    0 -0.86715428556E-01  0.67509391387E-02 -0.36134944857E-01  0.94186708668E-01  0.51100000000E-03 0. -1.
</event>
<event>
 8    1  0.1161093E+005  0.1043930E+01  0.7957747E-01            NaN
         13   -1    0    0    0    0  0.00000000000E+00  0.00000000000E+00  0.74505805969E-08  0.10566000000E+00  0.10566000000E+00 0. -1.
     999900   -1    0    0    0    0 -0.00000000000E+00 -0.00000000000E+00 -0.74505805969E-08  0.93827000000E+00  0.93827000000E+00 0. -1.
     999902    2    1    2    0    0 -0.11085437723E-01 -0.49898311805E-02 -0.19996082889E-01  0.10205285326E+01  0.10202601909E+01 0.  0.
     999903    2    3    3    0    0  0.63207859144E-01 -0.22265174005E-01 -0.11242473673E+00  0.13240636339E+00  0.20028784423E-01 0.  0.
         14    1    1    2    0    0  0.11085437723E-01  0.49898311805E-02  0.19996082889E-01  0.23401467382E-01  0.00000000000E+00 0. -1.
     999901    1    3    3    0    0 -0.74293296867E-01  0.17275342825E-01  0.92428653842E-01  0.88812216923E+00  0.88000000000E+00 0.  1.
        -11    1    4    4    0    0  0.40418751990E-01 -0.38867796120E-02 -0.62732447293E-01  0.74728867465E-01  0.51100000000E-03 0.  1.
         11    1    4    4    0    0  0.22789107154E-01 -0.18378394393E-01 -0.49692289437E-01  0.57677495922E-01  0.51100000000E-03 0. -1.
</event>
<event>
 8    1  0.1161093E+005  0.1043930E+01  0.7957747E-01            NaN
         13   -1    0    0    0    0  0.00000000000E+00  0.00000000000E+00  0.74505805969E-08  0.10566000000E+00  0.10566000000E+00 0. -1.
     999900   -1    0    0    0    0 -0.00000000000E+00 -0.00000000000E+00 -0.74505805969E-08  0.93827000000E+00  0.93827000000E+00 0. -1.
     999902    2    1    2    0    0  0.21777474496E-01 -0.67979133234E-02 -0.60778353909E-02  0.10203204658E+01  0.10200472748E+01 0.  0.
     999903    2    3    3    0    0  0.48001487712E-01 -0.13336925626E-01  0.12039909831E+00  0.13086733479E+00  0.12177850051E-01 0.  0.
         14    1    1    2    0    0 -0.21777474496E-01  0.67979133234E-02  0.60778353909E-02  0.23609534176E-01  0.00000000000E+00 0. -1.
     999901    1    3    3    0    0 -0.26224013217E-01  0.65390123022E-02 -0.12647693371E+00  0.88945313104E+00  0.88000000000E+00 0. -1.
        -11    1    4    4    0    0  0.30088686433E-01 -0.52548006019E-02  0.85765342974E-01  0.91043380633E-01  0.51100000000E-03 0.  1.
         11    1    4    4    0    0  0.17912801279E-01 -0.80821250237E-02  0.34633755340E-01  0.39823954155E-01  0.51100000000E-03 0. -1.
</event>
<event>
 8    1  0.1161093E+005  0.1043930E+01  0.7957747E-01            NaN
         13   -1    0    0    0    0  0.00000000000E+00  0.00000000000E+00  0.74505805969E-08  0.10566000000E+00  0.10566000000E+00 0. -1.
     999900   -1    0    0    0    0 -0.00000000000E+00 -0.00000000000E+00 -0.74505805969E-08  0.93827000000E+00  0.93827000000E+00 0. -1.
     999902    2    1    2    0    0  0.18812531032E-01 -0.85430598254E-02  0.10010311321E-01  0.10209713082E+01  0.10207131383E+01 0.  0.
     999903    2    3    3    0    0  0.92186211860E-01  0.74576336906E-01  0.56397245104E-01  0.13280224844E+00  0.19896237102E-01 0.  0.
         14    1    1    2    0    0 -0.18812531032E-01  0.85430598254E-02 -0.10010311321E-01  0.22958691769E-01  0.00000000000E+00 0.  1.
     999901    1    3    3    0    0 -0.73373680828E-01 -0.83119396732E-01 -0.46386933783E-01  0.88816905979E+00  0.88000000000E+00 0.  1.
        -11    1    4    4    0    0  0.74192200659E-01  0.64622501995E-01  0.53598031405E-01  0.11204267265E+00  0.51100000000E-03 0.  1.
         11    1    4    4    0    0  0.17994011201E-01  0.99538349113E-02  0.27992136995E-02  0.20759575787E-01  0.51100000000E-03 0. -1.
</event>
<event>
 8    1  0.1161093E+005  0.1043930E+01  0.7957747E-01            NaN
         13   -1    0    0    0    0  0.00000000000E+00  0.00000000000E+00  0.74505805969E-08  0.10566000000E+00  0.10566000000E+00 0. -1.
     999900   -1    0    0    0    0 -0.00000000000E+00 -0.00000000000E+00 -0.74505805969E-08  0.93827000000E+00  0.93827000000E+00 0. -1.
     999902    2    1    2    0    0 -0.21523085078E-01 -0.56486018641E-02 -0.21932216931E-02  0.10215702121E+01  0.10213254810E+01 0.  0.
     999903    2    3    3    0    0 -0.95791229246E-02  0.88696360523E-01 -0.94735429828E-01  0.13162207289E+00  0.19767762703E-01 0.  0.
         14    1    1    2    0    0  0.21523085078E-01  0.56486018641E-02  0.21932216931E-02  0.22359787917E-01  0.00000000000E+00 0.  1.
     999901    1    3    3    0    0 -0.11943962153E-01 -0.94344962387E-01  0.92542208135E-01  0.88994813919E+00  0.88000000000E+00 0.  1.
        -11    1    4    4    0    0 -0.10226106641E-01  0.48608909484E-01 -0.64457445986E-01  0.81378269841E-01  0.51100000000E-03 0.  1.
         11    1    4    4    0    0  0.64698371675E-03  0.40087451039E-01 -0.30277983842E-01  0.50243803053E-01  0.51100000000E-03 0. -1.
</event>
<event>
 8    1  0.1161093E+005  0.1043930E+01  0.7957747E-01            NaN
         13   -1    0    0    0    0  0.00000000000E+00  0.00000000000E+00  0.74505805969E-08  0.10566000000E+00  0.10566000000E+00 0. -1.
     999900   -1    0    0    0    0 -0.00000000000E+00 -0.00000000000E+00 -0.74505805969E-08  0.93827000000E+00  0.93827000000E+00 0.  1.
     999902    2    1    2    0    0 -0.13590291318E-01 -0.64438932008E-02 -0.18487068940E-01  0.10200974278E+01  0.10198189892E+01 0.  0.
     999903    2    3    3    0    0 -0.25962076278E-01 -0.12362037401E+00  0.28228650867E-01  0.13101602145E+00  0.20305537932E-01 0.  0.
         14    1    1    2    0    0  0.13590291318E-01  0.64438932008E-02  0.18487068940E-01  0.23832572158E-01  0.00000000000E+00 0. -1.
     999901    1    3    3    0    0  0.12371784960E-01  0.11717648081E+00 -0.46715719807E-01  0.88908140639E+00  0.88000000000E+00 0.  1.
        -11    1    4    4    0    0 -0.12223706541E-01 -0.27025598201E-01  0.12484044976E-01  0.32185625047E-01  0.51100000000E-03 0.  1.
         11    1    4    4    0    0 -0.13738369737E-01 -0.96594775811E-01  0.15744605891E-01  0.98830396401E-01  0.51100000000E-03 0. -1.
</event>
<event>
 8    1  0.1161093E+005  0.1043930E+01  0.7957747E-01            NaN
         13   -1    0    0    0    0  0.00000000000E+00  0.00000000000E+00  0.74505805969E-08  0.10566000000E+00  0.10566000000E+00 0.  1.
     999900   -1    0    0    0    0 -0.00000000000E+00 -0.00000000000E+00 -0.74505805969E-08  0.93827000000E+00  0.93827000000E+00 0.  1.
     999902    2    1    2    0    0 -0.29016882159E-03 -0.62544259693E-03  0.24118124137E-01  0.10198020227E+01  0.10195165552E+01 0.  0.
     999903    2    3    3    0    0  0.55461156731E-01  0.68900683069E-01  0.96527624783E-01  0.13234203587E+00  0.19328426706E-01 0.  0.
         14    1    1    2    0    0  0.29016882159E-03  0.62544259693E-03 -0.24118124137E-01  0.24127977293E-01  0.00000000000E+00 0. -1.
     999901    1    3    3    0    0 -0.55751325552E-01 -0.69526125666E-01 -0.72409500646E-01  0.88745998684E+00  0.88000000000E+00 0.  1.
        -11    1    4    4    0    0  0.37208823976E-01  0.33233268013E-01  0.46066179212E-01  0.67906558393E-01  0.51100000000E-03 0. -1.
         11    1    4    4    0    0  0.18252332754E-01  0.35667415056E-01  0.50461445570E-01  0.64435477478E-01  0.51100000000E-03 0.  1.
</event>
<event>
 8    1  0.1161093E+005  0.1043930E+01  0.7957747E-01            NaN
         13   -1    0    0    0    0  0.00000000000E+00  0.00000000000E+00  0.74505805969E-08  0.10566000000E+00  0.10566000000E+00 0. -1.
     999900   -1    0    0    0    0 -0.00000000000E+00 -0.00000000000E+00 -0.74505805969E-08  0.93827000000E+00  0.93827000000E+00 0.  1.
     999902    2    1    2    0    0  0.18264945571E-01  0.10829326724E-01 -0.10960485267E-01  0.10200340842E+01  0.10197541459E+01 0.  0.
     999903    2    3    3    0    0  0.97693978488E-01 -0.78664546219E-01  0.31819564026E-01  0.13090627721E+00  0.19792536323E-01 0.  0.
         14    1    1    2    0    0 -0.18264945571E-01 -0.10829326724E-01  0.10960485267E-01  0.23895915787E-01  0.00000000000E+00 0. -1.
     999901    1    3    3    0    0 -0.79429032916E-01  0.89493872943E-01 -0.42780049294E-01  0.88912780700E+00  0.88000000000E+00 0.  1.
        -11    1    4    4    0    0  0.20397856637E-01 -0.12805515881E-01 -0.12096486334E-02  0.24120078010E-01  0.51100000000E-03 0. -1.
         11    1    4    4    0    0  0.77296121851E-01 -0.65859030337E-01  0.33029212660E-01  0.10678619920E+00  0.51100000000E-03 0.  1.
</event>
<event>
 8    1  0.1161093E+005  0.1043930E+01  0.7957747E-01            NaN
         13   -1    0    0    0    0  0.00000000000E+00  0.00000000000E+00  0.74505805969E-08  0.10566000000E+00  0.10566000000E+00 0.  1.
     999900   -1    0    0    0    0 -0.00000000000E+00 -0.00000000000E+00 -0.74505805969E-08  0.93827000000E+00  0.93827000000E+00 0.  1.
     999902    2    1    2    0    0 -0.13478406938E-01  0.59210243064E-02 -0.18544538248E-01  0.10202524604E+01  0.10199776748E+01 0.  0.
     999903    2    3    3    0    0 -0.50685953711E-02  0.48012880619E-01 -0.12242730053E+00  0.13310304932E+00  0.19926124985E-01 0.  0.
         14    1    1    2    0    0  0.13478406938E-01 -0.59210243064E-02  0.18544538248E-01  0.23677539594E-01  0.00000000000E+00 0. -1.
     999901    1    3    3    0    0 -0.84098115665E-02 -0.42091856313E-01  0.10388276228E+00  0.88714941109E+00  0.88000000000E+00 0. -1.
        -11    1    4    4    0    0  0.14525728131E-02  0.16281723214E-01 -0.66384777357E-01  0.68369615066E-01  0.51100000000E-03 0.  1.
         11    1    4    4    0    0 -0.65211681842E-02  0.31731157405E-01 -0.56042523176E-01  0.64733434249E-01  0.51100000000E-03 0. -1.
</event>
<event>
 8    1  0.1161093E+005  0.1043930E+01  0.7957747E-01            NaN
         13   -1    0    0    0    0  0.00000000000E+00  0.00000000000E+00  0.74505805969E-08  0.10566000000E+00  0.10566000000E+00 0. -1.
     999900   -1    0    0    0    0 -0.00000000000E+00 -0.00000000000E+00 -0.74505805969E-08  0.93827000000E+00  0.93827000000E+00 0.  1.
     999902    2    1    2    0    0 -0.19660877753E-01 -0.18109381394E-01  0.21057117749E-02  0.10171170585E+01  0.10167635797E+01 0.  0.
     999903    2    3    3    0    0 -0.16742363543E-01  0.10880721821E+00 -0.58090899770E-01  0.12597174320E+00  0.19365174362E-01 0.  0.
         14    1    1    2    0    0  0.19660877753E-01  0.18109381394E-01 -0.21057117749E-02  0.26812941476E-01  0.00000000000E+00 0.  1.
     999901    1    3    3    0    0 -0.29185142104E-02 -0.12691659960E+00  0.60196611545E-01  0.89114531532E+00  0.88000000000E+00 0. -1.
        -11    1    4    4    0    0 -0.56346518934E-02  0.22759659412E-01 -0.21473552907E-01  0.31798207402E-01  0.51100000000E-03 0. -1.
         11    1    4    4    0    0 -0.11107711649E-01  0.86047558796E-01 -0.36617346863E-01  0.94173535800E-01  0.51100000000E-03 0.  1.
</event>
<event>
 8    1  0.1161093E+005  0.1043930E+01  0.7957747E-01            NaN
         13   -1    0    0    0    0  0.00000000000E+00  0.00000000000E+00  0.74505805969E-08  0.10566000000E+00  0.10566000000E+00 0. -1.
     999900   -1    0    0    0    0 -0.00000000000E+00 -0.00000000000E+00 -0.74505805969E-08  0.93827000000E+00  0.93827000000E+00 0. -1.
     999902    2    1    2    0    0  0.12221179243E-01 -0.33121394038E-02  0.20255022021E-01  0.10200429029E+01  0.10197631737E+01 0.  0.
     999903    2    3    3    0    0  0.10605249394E+00  0.73209182638E-01 -0.13476784252E-01  0.13111227397E+00  0.20052151449E-01 0.  0.
         14    1    1    2    0    0 -0.12221179243E-01  0.33121394038E-02 -0.20255022021E-01  0.23887097074E-01  0.00000000000E+00 0.  1.
     999901    1    3    3    0    0 -0.93831314698E-01 -0.76521322041E-01  0.33731806273E-01  0.88893062896E+00  0.88000000000E+00 0. -1.
        -11    1    4    4    0    0  0.59385337318E-01  0.29973816646E-01 -0.11148038942E-01  0.67450632806E-01  0.51100000000E-03 0. -1.
         11    1    4    4    0    0  0.46667156623E-01  0.43235365992E-01 -0.23287453097E-02  0.63661641162E-01  0.51100000000E-03 0.  1.
</event>
<event>
 8    1  0.1256212E+005  0.1043930E+01  0.7957747E-01            NaN
         13   -1    0    0    0    0  0.00000000000E+00  0.00000000000E+00  0.74505805969E-08  0.10566000000E+00  0.10566000000E+00 0.  1.
     999900   -1    0    0    0    0 -0.00000000000E+00 -0.00000000000E+00 -0.74505805969E-08  0.93827000000E+00  0.93827000000E+00 0.  1.
     999902    2    1    2    0    0  0.18121166108E-01  0.44788313906E-02 -0.13768656694E-01  0.10207349036E+01  0.10204713278E+01 0.  0.
     999903    2    3    3    0    0  0.11659806298E+00 -0.30079333273E-01  0.50771161589E-01  0.13222077643E+00  0.20118357073E-01 0.  0.
         14    1    1    2    0    0 -0.18121166108E-01 -0.44788313906E-02  0.13768656694E-01  0.23195096441E-01  0.00000000000E+00 0.  1.
     999901    1    3    3    0    0 -0.98476896867E-01  0.34558164664E-01 -0.64539818283E-01  0.88851412713E+00  0.88000000000E+00 0.  1.
        -11    1    4    4    0    0  0.55421229819E-01 -0.18327008196E-01  0.34599334514E-01  0.67858433624E-01  0.51100000000E-03 0. -1.
         11    1    4    4    0    0  0.61176833156E-01 -0.11752325077E-01  0.16171827075E-01  0.64362342807E-01  0.51100000000E-03 0.  1.
</event>
<event>
 8    1  0.1161093E+005  0.1043930E+01  0.7957747E-01            NaN
         13   -1    0    0    0    0  0.00000000000E+00  0.00000000000E+00  0.74505805969E-08  0.10566000000E+00  0.10566000000E+00 0. -1.
     999900   -1    0    0    0    0 -0.00000000000E+00 -0.00000000000E+00 -0.74505805969E-08  0.93827000000E+00  0.93827000000E+00 0. -1.
     999902    2    1    2    0    0  0.63523582975E-02 -0.19025680301E-01 -0.11383871717E-01  0.10208665765E+01  0.10206060188E+01 0.  0.
     999903    2    3    3    0    0  0.75660636953E-01  0.96120882691E-01 -0.39710885594E-01  0.13021244154E+00  0.20360977973E-01 0.  0.
         14    1    1    2    0    0 -0.63523582975E-02  0.19025680301E-01  0.11383871717E-01  0.23063423469E-01  0.00000000000E+00 0.  1.
     999901    1    3    3    0    0 -0.69308278655E-01 -0.11514656299E+00  0.28327013877E-01  0.89065413499E+00  0.88000000000E+00 0.  1.
        -11    1    4    4    0    0  0.55138862343E-01  0.56075327314E-01 -0.20428338340E-01  0.81254628189E-01  0.51100000000E-03 0. -1.
         11    1    4    4    0    0  0.20521774610E-01  0.40045555377E-01 -0.19282547254E-01  0.48957813352E-01  0.51100000000E-03 0.  1.
</event>
<event>
 8    1  0.1161093E+005  0.1043930E+01  0.7957747E-01            NaN
         13   -1    0    0    0    0  0.00000000000E+00  0.00000000000E+00  0.74505805969E-08  0.10566000000E+00  0.10566000000E+00 0.  1.
     999900   -1    0    0    0    0 -0.00000000000E+00 -0.00000000000E+00 -0.74505805969E-08  0.93827000000E+00  0.93827000000E+00 0. -1.
     999902    2    1    2    0    0  0.50539251990E-03 -0.23525404636E-01  0.36459251837E-02  0.10201183882E+01  0.10198404449E+01 0.  0.
     999903    2    3    3    0    0 -0.34197247872E-01  0.11617505721E+00 -0.34850691784E-01  0.12759248843E+00  0.19979407058E-01 0.  0.
         14    1    1    2    0    0 -0.50539251990E-03  0.23525404636E-01 -0.36459251837E-02  0.23811611775E-01  0.00000000000E+00 0. -1.
     999901    1    3    3    0    0  0.34702640392E-01 -0.13970046184E+00  0.38496616967E-01  0.89252589980E+00  0.88000000000E+00 0. -1.
        -11    1    4    4    0    0 -0.30225689270E-01  0.79296601748E-01 -0.17540573735E-01  0.86657233908E-01  0.51100000000E-03 0.  1.
         11    1    4    4    0    0 -0.39715586020E-02  0.36878455460E-01 -0.17310118048E-01  0.40935254521E-01  0.51100000000E-03 0. -1.
</event>
<event>
 8    1  0.1161093E+005  0.1043930E+01  0.7957747E-01            NaN
         13   -1    0    0    0    0  0.00000000000E+00  0.00000000000E+00  0.74505805969E-08  0.10566000000E+00  0.10566000000E+00 0.  1.
     999900   -1    0    0    0    0 -0.00000000000E+00 -0.00000000000E+00 -0.74505805969E-08  0.93827000000E+00  0.93827000000E+00 0. -1.
     999902    2    1    2    0    0 -0.15812159092E-01  0.15014091700E-01  0.90671811913E-02  0.10203151509E+01  0.10200418354E+01 0.  0.
     999903    2    3    3    0    0  0.68010188534E-01  0.97151719662E-01  0.53066948843E-01  0.13143453153E+00  0.19876937406E-01 0.  0.
         14    1    1    2    0    0  0.15812159092E-01 -0.15014091700E-01 -0.90671811913E-02  0.23614849131E-01  0.00000000000E+00 0. -1.
     999901    1    3    3    0    0 -0.83822347625E-01 -0.82137627962E-01 -0.43999767652E-01  0.88888061934E+00  0.88000000000E+00 0.  1.
        -11    1    4    4    0    0  0.37362221708E-01  0.55151591486E-01  0.40426303962E-01  0.77924199241E-01  0.51100000000E-03 0. -1.
         11    1    4    4    0    0  0.30647966826E-01  0.42000128176E-01  0.12640644881E-01  0.53510332286E-01  0.51100000000E-03 0.  1.
</event>
<event>
 8    1  0.1161093E+005  0.1043930E+01  0.7957747E-01            NaN
         13   -1    0    0    0    0  0.00000000000E+00  0.00000000000E+00  0.74505805969E-08  0.10566000000E+00  0.10566000000E+00 0. -1.
     999900   -1    0    0    0    0 -0.00000000000E+00 -0.00000000000E+00 -0.74505805969E-08  0.93827000000E+00  0.93827000000E+00 0.  1.
     999902    2    1    2    0    0  0.17094120662E-01  0.22973811781E-02 -0.12133914681E-01  0.10228416429E+01  0.10226242260E+01 0.  0.
     999903    2    3    3    0    0  0.16797827192E-01  0.10415469846E+00 -0.80686075871E-01  0.13431792360E+00  0.20017331301E-01 0.  0.
         14    1    1    2    0    0 -0.17094120662E-01 -0.22973811781E-02  0.12133914681E-01  0.21088357142E-01  0.00000000000E+00 0. -1.
     999901    1    3    3    0    0  0.29629347000E-03 -0.10185731728E+00  0.68552161190E-01  0.88852371925E+00  0.88000000000E+00 0. -1.
        -11    1    4    4    0    0  0.16194004896E-01  0.48915624306E-01 -0.31817049243E-01  0.60560464326E-01  0.51100000000E-03 0.  1.
         11    1    4    4    0    0  0.60382229555E-03  0.55239074153E-01 -0.48869026628E-01  0.73757459278E-01  0.51100000000E-03 0. -1.
</event>
<event>
 7    1  0.1161093E+005  0.1043930E+01  0.7957747E-01            NaN
         13   -1    0    0    0    0  0.00000000000E+00  0.00000000000E+00  0.74505805969E-08  0.10566000000E+00  0.10566000000E+00 0. -1.
     999900   -1    0    0    0    0 -0.00000000000E+00 -0.00000000000E+00 -0.74505805969E-08  0.93827000000E+00  0.93827000000E+00 0. -1.
     999902    2    1    2    0    0  0.20469281749E-01 -0.13519884294E-01  0.25196830324E-02  0.10192697573E+01  0.10189713983E+01 0.  0.
         14    1    1    2    0    0 -0.20469281749E-01  0.13519884294E-01 -0.25196830324E-02  0.24660242684E-01  0.00000000000E+00 0.  1.
     999901    1    3    3    0    0 -0.88472369237E-01 -0.43124827710E-01  0.69020225289E-01  0.88817278858E+00  0.88000000000E+00 0.  1.
        -11    1    3    3    0    0  0.87014122239E-01  0.25067025253E-01 -0.52182464247E-01  0.10451355855E+00  0.51100000000E-03 0.  1.
         11    1    3    3    0    0  0.21927528746E-01  0.45379181630E-02 -0.14318078009E-01  0.26583410185E-01  0.51100000000E-03 0. -1.
</event>
<event>
 8    1  0.1161093E+005  0.1043930E+01  0.7957747E-01            NaN
         13   -1    0    0    0    0  0.00000000000E+00  0.00000000000E+00  0.74505805969E-08  0.10566000000E+00  0.10566000000E+00 0. -1.
     999900   -1    0    0    0    0 -0.00000000000E+00 -0.00000000000E+00 -0.74505805969E-08  0.93827000000E+00  0.93827000000E+00 0.  1.
     999902    2    1    2    0    0  0.22013718834E-02 -0.23563036402E-01 -0.11022063215E-02  0.10202387024E+01  0.10199635936E+01 0.  0.
     999903    2    3    3    0    0  0.99582632352E-02 -0.14418604682E-01 -0.12829755462E+00  0.13101294557E+00  0.19926520486E-01 0.  0.
         14    1    1    2    0    0 -0.22013718834E-02  0.23563036402E-01  0.11022063215E-02  0.23691297588E-01  0.00000000000E+00 0.  1.
     999901    1    3    3    0    0 -0.77568913519E-02 -0.91444317193E-02  0.12719534830E+00  0.88922575684E+00  0.88000000000E+00 0. -1.
        -11    1    4    4    0    0 -0.49320888148E-02 -0.14995570208E-02 -0.12227236881E-01  0.13279330333E-01  0.51100000000E-03 0.  1.
         11    1    4    4    0    0  0.14890352050E-01 -0.12919047662E-01 -0.11607031774E+00  0.11773361524E+00  0.51100000000E-03 0. -1.
</event>
<event>
 8    1  0.1161093E+005  0.1043930E+01  0.7957747E-01            NaN
         13   -1    0    0    0    0  0.00000000000E+00  0.00000000000E+00  0.74505805969E-08  0.10566000000E+00  0.10566000000E+00 0.  1.
     999900   -1    0    0    0    0 -0.00000000000E+00 -0.00000000000E+00 -0.74505805969E-08  0.93827000000E+00  0.93827000000E+00 0. -1.
     999902    2    1    2    0    0  0.60540187356E-02  0.56755419042E-02  0.22957191444E-01  0.10195190279E+01  0.10192267426E+01 0.  0.
     999903    2    3    3    0    0  0.19943920115E-01 -0.12553697327E+00 -0.92509780389E-02  0.12909945285E+00  0.20586318852E-01 0.  0.
         14    1    1    2    0    0 -0.60540187356E-02 -0.56755419042E-02 -0.22957191444E-01  0.24410972077E-01  0.00000000000E+00 0. -1.
     999901    1    3    3    0    0 -0.13889901380E-01  0.13121251517E+00  0.32208169482E-01  0.89041957508E+00  0.88000000000E+00 0. -1.
        -11    1    4    4    0    0  0.47224273797E-03 -0.11258639085E-01 -0.67510905610E-02  0.13146037883E-01  0.51100000000E-03 0.  1.
         11    1    4    4    0    0  0.19471677377E-01 -0.11427833418E+00 -0.24998874780E-02  0.11595341496E+00  0.51100000000E-03 0. -1.
</event>
<event>
 8    1  0.1161093E+005  0.1043930E+01  0.7957747E-01            NaN
         13   -1    0    0    0    0  0.00000000000E+00  0.00000000000E+00  0.74505805969E-08  0.10566000000E+00  0.10566000000E+00 0. -1.
     999900   -1    0    0    0    0 -0.00000000000E+00 -0.00000000000E+00 -0.74505805969E-08  0.93827000000E+00  0.93827000000E+00 0. -1.
     999902    2    1    2    0    0 -0.22460606117E-02  0.17857018509E-02  0.22732572513E-01  0.10210170479E+01  0.10207599173E+01 0.  0.
     999903    2    3    3    0    0  0.11348176375E+00  0.61933511994E-01  0.13481662097E-01  0.13135628801E+00  0.18943299004E-01 0.  0.
         14    1    1    2    0    0  0.22460606117E-02 -0.17857018509E-02 -0.22732572513E-01  0.22912952067E-01  0.00000000000E+00 0.  1.
     999901    1    3    3    0    0 -0.11572782436E+00 -0.60147810143E-01  0.92509104162E-02  0.88966075992E+00  0.88000000000E+00 0. -1.
        -11    1    4    4    0    0  0.47834995434E-01  0.29913627542E-01  0.14702847513E-01  0.58304774649E-01  0.51100000000E-03 0. -1.
         11    1    4    4    0    0  0.65646768311E-01  0.32019884453E-01 -0.12211854156E-02  0.73051513365E-01  0.51100000000E-03 0.  1.
</event>
<event>
 8    1  0.1161093E+005  0.1043930E+01  0.7957747E-01            NaN
         13   -1    0    0    0    0  0.00000000000E+00  0.00000000000E+00  0.74505805969E-08  0.10566000000E+00  0.10566000000E+00 0.  1.
     999900   -1    0    0    0    0 -0.00000000000E+00 -0.00000000000E+00 -0.74505805969E-08  0.93827000000E+00  0.93827000000E+00 0. -1.
     999902    2    1    2    0    0 -0.20435171428E-01  0.11906403460E-01 -0.13255623008E-02  0.10202421172E+01  0.10199670887E+01 0.  0.
     999903    2    3    3    0    0  0.12098902030E-01  0.20494225661E-01  0.12659093868E+00  0.13035737871E+00  0.20034562963E-01 0.  0.
         14    1    1    2    0    0  0.20435171428E-01 -0.11906403460E-01  0.13255623008E-02  0.23687882769E-01  0.00000000000E+00 0.  1.
     999901    1    3    3    0    0 -0.32534073459E-01 -0.85878222002E-02 -0.12791650098E+00  0.88988473852E+00  0.88000000000E+00 0. -1.
        -11    1    4    4    0    0  0.21313166126E-02  0.18893533478E-01  0.58347150401E-01  0.61369041045E-01  0.51100000000E-03 0. -1.
         11    1    4    4    0    0  0.99675854179E-02  0.16006921824E-02  0.68243788278E-01  0.68988337667E-01  0.51100000000E-03 0.  1.
</event>
<event>
 8    1  0.1161093E+005  0.1043930E+01  0.7957747E-01            NaN
         13   -1    0    0    0    0  0.00000000000E+00  0.00000000000E+00  0.74505805969E-08  0.10566000000E+00  0.10566000000E+00 0.  1.
     999900   -1    0    0    0    0 -0.00000000000E+00 -0.00000000000E+00 -0.74505805969E-08  0.93827000000E+00  0.93827000000E+00 0.  1.
     999902    2    1    2    0    0 -0.46396924750E-02 -0.12363674677E-01  0.19718799733E-01  0.10201977801E+01  0.10199217089E+01 0.  0.
     999903    2    3    3    0    0  0.10062435303E+00  0.35712251017E-01 -0.68321890640E-01  0.12826562066E+00  0.19584774914E-01 0.  0.
         14    1    1    2    0    0  0.46396924750E-02  0.12363674677E-01 -0.19718799733E-01  0.23732219885E-01  0.00000000000E+00 0. -1.
     999901    1    3    3    0    0 -0.10526404550E+00 -0.48075925694E-01  0.88040690373E-01  0.89193215945E+00  0.88000000000E+00 0.  1.
        -11    1    4    4    0    0  0.21664131179E-01  0.75854848517E-02 -0.57604496636E-02  0.23671038454E-01  0.51100000000E-03 0.  1.
         11    1    4    4    0    0  0.78960221847E-01  0.28126766165E-01 -0.62561440976E-01  0.10459458221E+00  0.51100000000E-03 0. -1.
</event>
<event>
 8    1  0.1161093E+005  0.1043930E+01  0.7957747E-01            NaN
         13   -1    0    0    0    0  0.00000000000E+00  0.00000000000E+00  0.74505805969E-08  0.10566000000E+00  0.10566000000E+00 0.  1.
     999900   -1    0    0    0    0 -0.00000000000E+00 -0.00000000000E+00 -0.74505805969E-08  0.93827000000E+00  0.93827000000E+00 0.  1.
     999902    2    1    2    0    0  0.15690403834E-02  0.66266975381E-03  0.22490455825E-01  0.10213751419E+01  0.10211260740E+01 0.  0.
     999903    2    3    3    0    0 -0.98182674079E-01 -0.63191799038E-01  0.59841287064E-01  0.13265534227E+00  0.19581093980E-01 0.  0.
         14    1    1    2    0    0 -0.15690403834E-02 -0.66266975381E-03 -0.22490455825E-01  0.22554858061E-01  0.00000000000E+00 0. -1.
     999901    1    3    3    0    0  0.99751714462E-01  0.63854468792E-01 -0.37350831239E-01  0.88871979967E+00  0.88000000000E+00 0.  1.
        -11    1    4    4    0    0 -0.52742814150E-01 -0.27340956174E-01  0.21288542036E-01  0.63109392898E-01  0.51100000000E-03 0. -1.
         11    1    4    4    0    0 -0.45439859929E-01 -0.35850842864E-01  0.38552745027E-01  0.69545949376E-01  0.51100000000E-03 0.  1.
</event>
<event>
 8    1  0.1161093E+005  0.1043930E+01  0.7957747E-01            NaN
         13   -1    0    0    0    0  0.00000000000E+00  0.00000000000E+00  0.74505805969E-08  0.10566000000E+00  0.10566000000E+00 0.  1.
     999900   -1    0    0    0    0 -0.00000000000E+00 -0.00000000000E+00 -0.74505805969E-08  0.93827000000E+00  0.93827000000E+00 0.  1.
     999902    2    1    2    0    0 -0.26512740739E-02  0.22627584735E-01  0.89809503669E-02  0.10194413431E+01  0.10191471718E+01 0.  0.
     999903    2    3    3    0    0  0.57607548199E-01 -0.37679591145E-01 -0.10587284772E+00  0.12789242353E+00  0.20224512690E-01 0.  0.
         14    1    1    2    0    0  0.26512740739E-02 -0.22627584735E-01 -0.89809503669E-02  0.24488656857E-01  0.00000000000E+00 0. -1.
     999901    1    3    3    0    0 -0.60258822273E-01  0.60307175880E-01  0.11485379809E+00  0.89154891961E+00  0.88000000000E+00 0. -1.
        -11    1    4    4    0    0  0.12162489230E-01 -0.38340897098E-02 -0.34337746235E-01  0.36632885850E-01  0.51100000000E-03 0. -1.
         11    1    4    4    0    0  0.45445058969E-01 -0.33845501435E-01 -0.71535101488E-01  0.91259537682E-01  0.51100000000E-03 0.  1.
</event>
<event>
 8    1  0.1161093E+005  0.1043930E+01  0.7957747E-01            NaN
         13   -1    0    0    0    0  0.00000000000E+00  0.00000000000E+00  0.74505805969E-08  0.10566000000E+00  0.10566000000E+00 0.  1.
     999900   -1    0    0    0    0 -0.00000000000E+00 -0.00000000000E+00 -0.74505805969E-08  0.93827000000E+00  0.93827000000E+00 0.  1.
     999902    2    1    2    0    0 -0.19818385964E-01  0.10093657914E-01 -0.72937203031E-02  0.10205238318E+01  0.10202553811E+01 0.  0.
     999903    2    3    3    0    0 -0.75274075240E-02  0.13098381353E+00  0.10679958382E-02  0.13213460623E+00  0.15652229123E-01 0.  0.
         14    1    1    2    0    0  0.19818385964E-01 -0.10093657914E-01  0.72937203031E-02  0.23406168165E-01  0.00000000000E+00 0. -1.
     999901    1    3    3    0    0 -0.12290978440E-01 -0.12089015562E+00 -0.83617161413E-02  0.88838922561E+00  0.88000000000E+00 0.  1.
        -11    1    4    4    0    0 -0.62447956444E-02  0.51289823255E-01  0.73053208023E-02  0.52184981318E-01  0.51100000000E-03 0.  1.
         11    1    4    4    0    0 -0.12826118796E-02  0.79693990278E-01 -0.62373249641E-02  0.79949624911E-01  0.51100000000E-03 0. -1.
</event>
<event>
 8    1  0.1161093E+005  0.1043930E+01  0.7957747E-01            NaN
         13   -1    0    0    0    0  0.00000000000E+00  0.00000000000E+00  0.74505805969E-08  0.10566000000E+00  0.10566000000E+00 0.  1.
     999900   -1    0    0    0    0 -0.00000000000E+00 -0.00000000000E+00 -0.74505805969E-08  0.93827000000E+00  0.93827000000E+00 0. -1.
     999902    2    1    2    0    0  0.13770316429E-01 -0.12294780434E-01  0.13998018012E-01  0.10207626145E+01  0.10204996754E+01 0.  0.
     999903    2    3    3    0    0  0.86452257771E-01 -0.90149137097E-01  0.43530632925E-01  0.13384878514E+00  0.20487105401E-01 0.  0.
         14    1    1    2    0    0 -0.13770316429E-01  0.12294780434E-01 -0.13998018012E-01  0.23167385453E-01  0.00000000000E+00 0. -1.
     999901    1    3    3    0    0 -0.72681941342E-01  0.77854356663E-01 -0.29532614913E-01  0.88691382941E+00  0.88000000000E+00 0. -1.
        -11    1    4    4    0    0  0.13542792651E-01 -0.11447094073E-01 -0.81830840232E-03  0.17758770935E-01  0.51100000000E-03 0.  1.
         11    1    4    4    0    0  0.72909465121E-01 -0.78702043024E-01  0.44348941327E-01  0.11609001421E+00  0.51100000000E-03 0. -1.
</event>
<event>
 8    1  0.1161093E+005  0.1043930E+01  0.7957747E-01            NaN
         13   -1    0    0    0    0  0.00000000000E+00  0.00000000000E+00  0.74505805969E-08  0.10566000000E+00  0.10566000000E+00 0. -1.
     999900   -1    0    0    0    0 -0.00000000000E+00 -0.00000000000E+00 -0.74505805969E-08  0.93827000000E+00  0.93827000000E+00 0. -1.
     999902    2    1    2    0    0 -0.13175853411E-01 -0.15102406005E-01  0.81867009328E-02  0.10222803383E+01  0.10220510663E+01 0.  0.
     999903    2    3    3    0    0 -0.13400153766E-01 -0.62958728826E-01  0.11638125381E+00  0.13436348451E+00  0.19120253009E-01 0.  0.
         14    1    1    2    0    0  0.13175853411E-01  0.15102406005E-01 -0.81867009328E-02  0.21649661716E-01  0.00000000000E+00 0. -1.
     999901    1    3    3    0    0  0.22430035442E-03  0.47856322820E-01 -0.10819455288E+00  0.88791685377E+00  0.88000000000E+00 0. -1.
        -11    1    4    4    0    0 -0.81710540049E-03 -0.33063548022E-01  0.44010699591E-01  0.55055142072E-01  0.51100000000E-03 0.  1.
         11    1    4    4    0    0 -0.12583048365E-01 -0.29895180803E-01  0.72370554218E-01  0.79308342438E-01  0.51100000000E-03 0. -1.
</event>
<event>
 8    1  0.1161093E+005  0.1043930E+01  0.7957747E-01            NaN
         13   -1    0    0    0    0  0.00000000000E+00  0.00000000000E+00  0.74505805969E-08  0.10566000000E+00  0.10566000000E+00 0. -1.
     999900   -1    0    0    0    0 -0.00000000000E+00 -0.00000000000E+00 -0.74505805969E-08  0.93827000000E+00  0.93827000000E+00 0.  1.
     999902    2    1    2    0    0  0.13957920293E-01  0.13139651433E-01 -0.12955689288E-01  0.10207929331E+01  0.10205306896E+01 0.  0.
     999903    2    3    3    0    0  0.12497095342E+00 -0.29493107139E-01 -0.26917547415E-01  0.13268461816E+00  0.19826017526E-01 0.  0.
         14    1    1    2    0    0 -0.13957920293E-01 -0.13139651433E-01  0.12955689288E-01  0.23137066876E-01  0.00000000000E+00 0.  1.
     999901    1    3    3    0    0 -0.11101303312E+00  0.42632758572E-01  0.13961858127E-01  0.88810831496E+00  0.88000000000E+00 0.  1.
        -11    1    4    4    0    0  0.54531432162E-01 -0.21376942101E-01 -0.17641890588E-01  0.61173100067E-01  0.51100000000E-03 0. -1.
         11    1    4    4    0    0  0.70439521254E-01 -0.81161650380E-02 -0.92756568261E-02  0.71511518093E-01  0.51100000000E-03 0.  1.
</event>
<event>
 8    1  0.1161093E+005  0.1043930E+01  0.7957747E-01            NaN
         13   -1    0    0    0    0  0.00000000000E+00  0.00000000000E+00  0.74505805969E-08  0.10566000000E+00  0.10566000000E+00 0.  1.
     999900   -1    0    0    0    0 -0.00000000000E+00 -0.00000000000E+00 -0.74505805969E-08  0.93827000000E+00  0.93827000000E+00 0.  1.
     999902    2    1    2    0    0  0.10166427819E-01 -0.21469580866E-01  0.45631678636E-02  0.10197407119E+01  0.10194537743E+01 0.  0.
     999903    2    3    3    0    0 -0.10734024267E+00 -0.23452827490E-01 -0.65556477310E-01  0.12916308166E+00  0.17705567845E-01 0.  0.
         14    1    1    2    0    0 -0.10166427819E-01  0.21469580866E-01 -0.45631678636E-02  0.24189288086E-01  0.00000000000E+00 0. -1.
     999901    1    3    3    0    0  0.11750667049E+00  0.19832466240E-02  0.70119645173E-01  0.89057763026E+00  0.88000000000E+00 0.  1.
        -11    1    4    4    0    0 -0.60299152673E-01 -0.19493018343E-01 -0.44694548459E-01  0.77548883681E-01  0.51100000000E-03 0. -1.
         11    1    4    4    0    0 -0.47041089994E-01 -0.39598091468E-02 -0.20861928851E-01  0.51614197975E-01  0.51100000000E-03 0.  1.
</event>
<event>
 8    1  0.1161093E+005  0.1043930E+01  0.7957747E-01            NaN
         13   -1    0    0    0    0  0.00000000000E+00  0.00000000000E+00  0.74505805969E-08  0.10566000000E+00  0.10566000000E+00 0.  1.
     999900   -1    0    0    0    0 -0.00000000000E+00 -0.00000000000E+00 -0.74505805969E-08  0.93827000000E+00  0.93827000000E+00 0. -1.
     999902    2    1    2    0    0 -0.10045210097E-01 -0.21315766845E-01  0.38126264789E-02  0.10200594264E+01  0.10197800886E+01 0.  0.
     999903    2    3    3    0    0 -0.61294648031E-01  0.77350508482E-02  0.11412649403E+00  0.13121770583E+00  0.19400123603E-01 0.  0.
         14    1    1    2    0    0  0.10045210097E-01  0.21315766845E-01 -0.38126264789E-02  0.23870573574E-01  0.00000000000E+00 0. -1.
     999901    1    3    3    0    0  0.51249437934E-01 -0.29050817693E-01 -0.11031386755E+00  0.88884172060E+00  0.88000000000E+00 0. -1.
        -11    1    4    4    0    0 -0.41476136661E-01  0.10583711051E-02  0.57953654644E-01  0.71276063789E-01  0.51100000000E-03 0. -1.
         11    1    4    4    0    0 -0.19818511370E-01  0.66766797431E-02  0.56172839383E-01  0.59941642042E-01  0.51100000000E-03 0.  1.
</event>
<event>
 8    1  0.1161093E+005  0.1043930E+01  0.7957747E-01            NaN
         13   -1    0    0    0    0  0.00000000000E+00  0.00000000000E+00  0.74505805969E-08  0.10566000000E+00  0.10566000000E+00 0. -1.
     999900   -1    0    0    0    0 -0.00000000000E+00 -0.00000000000E+00 -0.74505805969E-08  0.93827000000E+00  0.93827000000E+00 0. -1.
     999902    2    1    2    0    0  0.14898075860E-01 -0.71835732205E-02  0.16663388863E-01  0.10204518204E+01  0.10201816960E+01 0.  0.
     999903    2    3    3    0    0  0.96733647677E-01 -0.71833455670E-01 -0.49716609120E-01  0.13181073862E+00  0.19618502643E-01 0.  0.
         14    1    1    2    0    0 -0.14898075860E-01  0.71835732205E-02 -0.16663388863E-01  0.23478179592E-01  0.00000000000E+00 0.  1.
     999901    1    3    3    0    0 -0.81835571817E-01  0.64649882449E-01  0.66379997984E-01  0.88864108179E+00  0.88000000000E+00 0. -1.
        -11    1    4    4    0    0  0.83126924460E-01 -0.57237898024E-01 -0.34327139419E-01  0.10660617319E+00  0.51100000000E-03 0.  1.
         11    1    4    4    0    0  0.13606723217E-01 -0.14595557646E-01 -0.15389469702E-01  0.25204565428E-01  0.51100000000E-03 0. -1.
</event>
<event>
 7    1  0.1161093E+005  0.1043930E+01  0.7957747E-01            NaN
         13   -1    0    0    0    0  0.00000000000E+00  0.00000000000E+00  0.74505805969E-08  0.10566000000E+00  0.10566000000E+00 0. -1.
     999900   -1    0    0    0    0 -0.00000000000E+00 -0.00000000000E+00 -0.74505805969E-08  0.93827000000E+00  0.93827000000E+00 0.  1.
     999903    2    1    2    0    0 -0.17200774788E-01  0.17186793672E-01 -0.89434824479E-01  0.94893419906E-01  0.20369604361E-01 0.  0.
         14    1    1    2    0    0  0.48084598631E-01 -0.38751993794E-01 -0.10274040676E-01  0.62605124074E-01  0.00000000000E+00 0. -1.
     999901    1    1    2    0    0 -0.30883823843E-01  0.21565200123E-01  0.99708865154E-01  0.88643145602E+00  0.88000000000E+00 0. -1.
        -11    1    3    3    0    0 -0.69325842148E-02  0.18913756782E-01 -0.45911429221E-01  0.50138920747E-01  0.51100000000E-03 0. -1.
         11    1    3    3    0    0 -0.10268190573E-01 -0.17269631103E-02 -0.43523395257E-01  0.44754499159E-01  0.51100000000E-03 0.  1.
</event>
<event>
 8    1  0.1161093E+005  0.1043930E+01  0.7957747E-01            NaN
         13   -1    0    0    0    0  0.00000000000E+00  0.00000000000E+00  0.74505805969E-08  0.10566000000E+00  0.10566000000E+00 0. -1.
     999900   -1    0    0    0    0 -0.00000000000E+00 -0.00000000000E+00 -0.74505805969E-08  0.93827000000E+00  0.93827000000E+00 0.  1.
     999902    2    1    2    0    0  0.19817326835E-01  0.62813619116E-02 -0.11719614486E-01  0.10200651448E+01  0.10197859424E+01 0.  0.
     999903    2    3    3    0    0  0.43585391830E-01  0.56820411535E-01  0.10705965725E+00  0.13033055974E+00  0.19900729736E-01 0.  0.
         14    1    1    2    0    0 -0.19817326835E-01 -0.62813619116E-02  0.11719614486E-01  0.23864855207E-01  0.00000000000E+00 0.  1.
     999901    1    3    3    0    0 -0.23768064995E-01 -0.50539049624E-01 -0.11877927173E+00  0.88973458506E+00  0.88000000000E+00 0.  1.
        -11    1    4    4    0    0  0.67343038074E-02  0.22355518138E-01  0.41262007773E-01  0.47412387046E-01  0.51100000000E-03 0.  1.
         11    1    4    4    0    0  0.36851088023E-01  0.34464893397E-01  0.65797649473E-01  0.82918172691E-01  0.51100000000E-03 0. -1.
</event>
<event>
 8    1  0.1161093E+005  0.1043930E+01  0.7957747E-01            NaN
         13   -1    0    0    0    0  0.00000000000E+00  0.00000000000E+00  0.74505805969E-08  0.10566000000E+00  0.10566000000E+00 0. -1.
     999900   -1    0    0    0    0 -0.00000000000E+00 -0.00000000000E+00 -0.74505805969E-08  0.93827000000E+00  0.93827000000E+00 0.  1.
     999902    2    1    2    0    0  0.13418648091E-01  0.19176018535E-01  0.41634586787E-02  0.10201578694E+01  0.10198808579E+01 0.  0.
     999903    2    3    3    0    0  0.12686962405E-02 -0.98383255333E-01 -0.78945400000E-01  0.12837600900E+00  0.23814890017E-01 0.  0.
         14    1    1    2    0    0 -0.13418648091E-01 -0.19176018535E-01 -0.41634586787E-02  0.23772130566E-01  0.00000000000E+00 0. -1.
     999901    1    3    3    0    0  0.12149951851E-01  0.11755927387E+00  0.83108858678E-01  0.89178186043E+00  0.88000000000E+00 0. -1.
        -11    1    4    4    0    0  0.10761396146E-01 -0.36078975534E-01 -0.36125687121E-01  0.52180710167E-01  0.51100000000E-03 0. -1.
         11    1    4    4    0    0 -0.94926999053E-02 -0.62304279799E-01 -0.42819712878E-01  0.76195298836E-01  0.51100000000E-03 0.  1.
</event>
<event>
 8    1  0.1161093E+005  0.1043930E+01  0.7957747E-01            NaN
         13   -1    0    0    0    0  0.00000000000E+00  0.00000000000E+00  0.74505805969E-08  0.10566000000E+00  0.10566000000E+00 0.  1.
     999900   -1    0    0    0    0 -0.00000000000E+00 -0.00000000000E+00 -0.74505805969E-08  0.93827000000E+00  0.93827000000E+00 0.  1.
     999902    2    1    2    0    0  0.13383359200E-01  0.17981690571E-01  0.29982229882E-02  0.10213148537E+01  0.10210644376E+01 0.  0.
     999903    2    3    3    0    0 -0.14503194730E-01 -0.11709131242E+00 -0.48537446201E-01  0.12908265233E+00  0.19639993623E-01 0.  0.
         14    1    1    2    0    0 -0.13383359200E-01 -0.17981690571E-01 -0.29982229882E-02  0.22615146260E-01  0.00000000000E+00 0.  1.
     999901    1    3    3    0    0  0.27886553931E-01  0.13507300299E+00  0.51535669190E-01  0.89223220141E+00  0.88000000000E+00 0. -1.
        -11    1    4    4    0    0 -0.11443699771E-01 -0.44550424950E-01 -0.27046416976E-01  0.53361675573E-01  0.51100000000E-03 0. -1.
         11    1    4    4    0    0 -0.30594949595E-02 -0.72540887465E-01 -0.21491029225E-01  0.75720976762E-01  0.51100000000E-03 0.  1.
</event>
<event>
 7    1  0.1161093E+005  0.1043930E+01  0.7957747E-01            NaN
         13   -1    0    0    0    0  0.00000000000E+00  0.00000000000E+00  0.74505805969E-08  0.10566000000E+00  0.10566000000E+00 0. -1.
     999900   -1    0    0    0    0 -0.00000000000E+00 -0.00000000000E+00 -0.74505805969E-08  0.93827000000E+00  0.93827000000E+00 0.  1.
     999902    2    1    2    0    0  0.10307353180E-01 -0.15209883216E-01 -0.14102646167E-01  0.10207682491E+01  0.10205054393E+01 0.  0.
         14    1    1    2    0    0 -0.10307353180E-01  0.15209883216E-01  0.14102646167E-01  0.23161750926E-01  0.00000000000E+00 0.  1.
     999901    1    3    3    0    0  0.65205769770E-01 -0.11514366576E+00 -0.58198001139E-01  0.89179418226E+00  0.88000000000E+00 0.  1.
        -11    1    3    3    0    0 -0.34081867906E-01  0.22498911239E-01  0.18173993297E-01  0.44702683144E-01  0.51100000000E-03 0. -1.
         11    1    3    3    0    0 -0.20816548684E-01  0.77434871308E-01  0.25921361675E-01  0.84271383670E-01  0.51100000000E-03 0.  1.
</event>
<event>
 8    1  0.1161093E+005  0.1043930E+01  0.7957747E-01            NaN
         13   -1    0    0    0    0  0.00000000000E+00  0.00000000000E+00  0.74505805969E-08  0.10566000000E+00  0.10566000000E+00 0. -1.
     999900   -1    0    0    0    0 -0.00000000000E+00 -0.00000000000E+00 -0.74505805969E-08  0.93827000000E+00  0.93827000000E+00 0. -1.
     999902    2    1    2    0    0  0.24386302839E-01 -0.93904091563E-03 -0.82180865574E-02  0.10181790678E+01  0.10178533802E+01 0.  0.
     999903    2    3    3    0    0  0.84309993801E-01  0.29366522103E-01  0.92083286385E-01  0.12993943721E+00  0.20841258007E-01 0.  0.
         14    1    1    2    0    0 -0.24386302839E-01  0.93904091563E-03  0.82180865574E-02  0.25750932229E-01  0.00000000000E+00 0.  1.
     999901    1    3    3    0    0 -0.59923690962E-01 -0.30305563019E-01 -0.10030137294E+00  0.88823963056E+00  0.88000000000E+00 0. -1.
        -11    1    4    4    0    0  0.70773285178E-01  0.32315049018E-01  0.78882243023E-01  0.11079616272E+00  0.51100000000E-03 0.  1.
         11    1    4    4    0    0  0.13536708622E-01 -0.29485269151E-02  0.13201043363E-01  0.19143274489E-01  0.51100000000E-03 0. -1.
</event>
<event>
 8    1  0.1161093E+005  0.1043930E+01  0.7957747E-01            NaN
         13   -1    0    0    0    0  0.00000000000E+00  0.00000000000E+00  0.74505805969E-08  0.10566000000E+00  0.10566000000E+00 0. -1.
     999900   -1    0    0    0    0 -0.00000000000E+00 -0.00000000000E+00 -0.74505805969E-08  0.93827000000E+00  0.93827000000E+00 0. -1.
     999902    2    1    2    0    0 -0.29824039214E-02 -0.67086250866E-02  0.22818398588E-01  0.10199596079E+01  0.10196779011E+01 0.  0.
     999903    2    3    3    0    0  0.13369421936E-01  0.79783183799E-01  0.10234735300E+00  0.13199954696E+00  0.20119688683E-01 0.  0.
         14    1    1    2    0    0  0.29824039214E-02  0.67086250866E-02 -0.22818398588E-01  0.23970392108E-01  0.00000000000E+00 0.  1.
     999901    1    3    3    0    0 -0.16351825857E-01 -0.86491808885E-01 -0.79528954412E-01  0.88796006093E+00  0.88000000000E+00 0. -1.
        -11    1    4    4    0    0  0.10829789330E-01  0.74219886132E-01  0.83812756758E-01  0.11247539798E+00  0.51100000000E-03 0.  1.
         11    1    4    4    0    0  0.25396326063E-02  0.55632976665E-02  0.18534596242E-01  0.19524148984E-01  0.51100000000E-03 0. -1.
</event>
<event>
 8    1  0.1161093E+005  0.1043930E+01  0.7957747E-01            NaN
         13   -1    0    0    0    0  0.00000000000E+00  0.00000000000E+00  0.74505805969E-08  0.10566000000E+00  0.10566000000E+00 0.  1.
     999900   -1    0    0    0    0 -0.00000000000E+00 -0.00000000000E+00 -0.74505805969E-08  0.93827000000E+00  0.93827000000E+00 0. -1.
     999902    2    1    2    0    0 -0.12720182873E-01  0.51174532998E-02 -0.19099611551E-01  0.10204185870E+01  0.10201476884E+01 0.  0.
     999903    2    3    3    0    0 -0.27663547760E-01  0.12707185472E+00 -0.95896584968E-02  0.13183172044E+00  0.19367829721E-01 0.  0.
         14    1    1    2    0    0  0.12720182873E-01 -0.51174532998E-02  0.19099611551E-01  0.23511413016E-01  0.00000000000E+00 0. -1.
     999901    1    3    3    0    0  0.14943364887E-01 -0.12195440142E+00 -0.95099530545E-02  0.88858686654E+00  0.88000000000E+00 0. -1.
        -11    1    4    4    0    0  0.34538983170E-03  0.15990089396E-01 -0.63804004242E-02  0.17227097364E-01  0.51100000000E-03 0.  1.
         11    1    4    4    0    0 -0.28008937592E-01  0.11108176533E+00 -0.32092580727E-02  0.11460462308E+00  0.51100000000E-03 0. -1.
</event>
<event>
 8    1  0.1161093E+005  0.1043930E+01  0.7957747E-01            NaN
         13   -1    0    0    0    0  0.00000000000E+00  0.00000000000E+00  0.74505805969E-08  0.10566000000E+00  0.10566000000E+00 0. -1.
     999900   -1    0    0    0    0 -0.00000000000E+00 -0.00000000000E+00 -0.74505805969E-08  0.93827000000E+00  0.93827000000E+00 0. -1.
     999902    2    1    2    0    0  0.67418773092E-02  0.18523745134E-02  0.22858415652E-01  0.10200262060E+01  0.10197460809E+01 0.  0.
     999903    2    3    3    0    0  0.46693398198E-01  0.58707022854E-01 -0.10242854232E+00  0.12844031733E+00  0.19455612728E-01 0.  0.
         14    1    1    2    0    0 -0.67418773092E-02 -0.18523745134E-02 -0.22858415652E-01  0.23903793990E-01  0.00000000000E+00 0.  1.
     999901    1    3    3    0    0 -0.39951520889E-01 -0.56854648341E-01  0.12528695797E+00  0.89158588868E+00  0.88000000000E+00 0.  1.
        -11    1    4    4    0    0  0.18152552987E-01  0.37686112799E-01 -0.50707569462E-01  0.65736420648E-01  0.51100000000E-03 0.  1.
         11    1    4    4    0    0  0.28540845210E-01  0.21020910055E-01 -0.51720972854E-01  0.62703896680E-01  0.51100000000E-03 0. -1.
</event>
<event>
 8    1  0.1161093E+005  0.1043930E+01  0.7957747E-01            NaN
         13   -1    0    0    0    0  0.00000000000E+00  0.00000000000E+00  0.74505805969E-08  0.10566000000E+00  0.10566000000E+00 0. -1.
     999900   -1    0    0    0    0 -0.00000000000E+00 -0.00000000000E+00 -0.74505805969E-08  0.93827000000E+00  0.93827000000E+00 0. -1.
     999902    2    1    2    0    0 -0.15273072784E-01 -0.36680384780E-03  0.18196757355E-01  0.10201703014E+01  0.10198935830E+01 0.  0.
     999903    2    3    3    0    0  0.96140402597E-01  0.31094065415E-01  0.79696209428E-01  0.13045971288E+00  0.21411047905E-01 0.  0.
         14    1    1    2    0    0  0.15273072784E-01  0.36680384780E-03 -0.18196757355E-01  0.23759698558E-01  0.00000000000E+00 0. -1.
     999901    1    3    3    0    0 -0.11141347538E+00 -0.31460869263E-01 -0.61499452073E-01  0.88971058856E+00  0.88000000000E+00 0.  1.
        -11    1    4    4    0    0  0.28765260830E-01  0.11254604516E-02  0.29716801773E-01  0.41377002313E-01  0.51100000000E-03 0.  1.
         11    1    4    4    0    0  0.67375141768E-01  0.29968604964E-01  0.49979407655E-01  0.89082710569E-01  0.51100000000E-03 0. -1.
</event>
<event>
 8    1  0.1161093E+005  0.1043930E+01  0.7957747E-01            NaN
         13   -1    0    0    0    0  0.00000000000E+00  0.00000000000E+00  0.74505805969E-08  0.10566000000E+00  0.10566000000E+00 0.  1.
     999900   -1    0    0    0    0 -0.00000000000E+00 -0.00000000000E+00 -0.74505805969E-08  0.93827000000E+00  0.93827000000E+00 0. -1.
     999902    2    1    2    0    0  0.41758328124E-03  0.21925193789E-01 -0.88102383476E-02  0.10202972093E+01  0.10200234735E+01 0.  0.
     999903    2    3    3    0    0 -0.29417275508E-01 -0.12240300765E+00  0.70068098518E-02  0.12790103740E+00  0.21487382455E-01 0.  0.
         14    1    1    2    0    0 -0.41758328124E-03 -0.21925193789E-01  0.88102383476E-02  0.23632790741E-01  0.00000000000E+00 0. -1.
     999901    1    3    3    0    0  0.29834858789E-01  0.14432820144E+00 -0.15817048199E-01  0.89239617186E+00  0.88000000000E+00 0.  1.
        -11    1    4    4    0    0 -0.93440169003E-02 -0.59455901533E-01 -0.62518604092E-02  0.60511666301E-01  0.51100000000E-03 0. -1.
         11    1    4    4    0    0 -0.20073258608E-01 -0.62947106116E-01  0.13258670261E-01  0.67389371102E-01  0.51100000000E-03 0.  1.
</event>
<event>
 8    1  0.1161093E+005  0.1043930E+01  0.7957747E-01            NaN
         13   -1    0    0    0    0  0.00000000000E+00  0.00000000000E+00  0.74505805969E-08  0.10566000000E+00  0.10566000000E+00 0.  1.
     999900   -1    0    0    0    0 -0.00000000000E+00 -0.00000000000E+00 -0.74505805969E-08  0.93827000000E+00  0.93827000000E+00 0.  1.
     999902    2    1    2    0    0 -0.16131410034E-01 -0.61609145256E-02 -0.16462585135E-01  0.10200721718E+01  0.10197931357E+01 0.  0.
     999903    2    3    3    0    0  0.61448228148E-01  0.10685140277E+00 -0.35224381202E-01  0.12926220939E+00  0.16578743281E-01 0.  0.
         14    1    1    2    0    0  0.16131410034E-01  0.61609145256E-02  0.16462585135E-01  0.23857828208E-01  0.00000000000E+00 0.  1.
     999901    1    3    3    0    0 -0.77579638181E-01 -0.11301231730E+00  0.18761796068E-01  0.89080996240E+00  0.88000000000E+00 0. -1.
        -11    1    4    4    0    0  0.21867352600E-01  0.49769673670E-01 -0.94993178726E-02  0.55187858158E-01  0.51100000000E-03 0. -1.
         11    1    4    4    0    0  0.39580875548E-01  0.57081729102E-01 -0.25725063330E-01  0.74074351234E-01  0.51100000000E-03 0.  1.
</event>
<event>
 8    1  0.1161093E+005  0.1043930E+01  0.7957747E-01            NaN
         13   -1    0    0    0    0  0.00000000000E+00  0.00000000000E+00  0.74505805969E-08  0.10566000000E+00  0.10566000000E+00 0.  1.
     999900   -1    0    0    0    0 -0.00000000000E+00 -0.00000000000E+00 -0.74505805969E-08  0.93827000000E+00  0.93827000000E+00 0.  1.
     999902    2    1    2    0    0  0.35676421377E-02 -0.22573307283E-01 -0.62898924256E-02  0.10202267298E+01  0.10199513396E+01 0.  0.
     999903    2    3    3    0    0  0.32702443602E-01 -0.11903691517E+00 -0.46800507606E-01  0.13355025314E+00  0.20153054601E-01 0.  0.
         14    1    1    2    0    0 -0.35676421377E-02  0.22573307283E-01  0.62898924256E-02  0.23703270214E-01  0.00000000000E+00 0.  1.
     999901    1    3    3    0    0 -0.29134801465E-01  0.96463607887E-01  0.40510615181E-01  0.88667647665E+00  0.88000000000E+00 0. -1.
        -11    1    4    4    0    0  0.89500290063E-02 -0.53057374853E-01 -0.11436061965E-01  0.55011205039E-01  0.51100000000E-03 0. -1.
         11    1    4    4    0    0  0.23752414596E-01 -0.65979540317E-01 -0.35364445641E-01  0.78539048097E-01  0.51100000000E-03 0.  1.
</event>
<event>
 8    1  0.1161093E+005  0.1043930E+01  0.7957747E-01            NaN
         13   -1    0    0    0    0  0.00000000000E+00  0.00000000000E+00  0.74505805969E-08  0.10566000000E+00  0.10566000000E+00 0.  1.
     999900   -1    0    0    0    0 -0.00000000000E+00 -0.00000000000E+00 -0.74505805969E-08  0.93827000000E+00  0.93827000000E+00 0. -1.
     999902    2    1    2    0    0 -0.19067759310E-01 -0.29492988771E-02  0.17908041801E-01  0.10176055670E+01  0.10172650168E+01 0.  0.
     999903    2    3    3    0    0  0.11632784077E+00 -0.14611905678E-01  0.43954179702E-01  0.12679336113E+00  0.19972786203E-01 0.  0.
         14    1    1    2    0    0  0.19067759310E-01  0.29492988771E-02 -0.17908041801E-01  0.26324432950E-01  0.00000000000E+00 0.  1.
     999901    1    3    3    0    0 -0.13539560008E+00  0.11662606800E-01 -0.26046137900E-01  0.89081220592E+00  0.88000000000E+00 0.  1.
        -11    1    4    4    0    0  0.94905059409E-01 -0.43313045632E-02  0.32503991005E-01  0.10041165795E+00  0.51100000000E-03 0.  1.
         11    1    4    4    0    0  0.21422781356E-01 -0.10280601114E-01  0.11450188697E-01  0.26381703177E-01  0.51100000000E-03 0. -1.
</event>
<event>
 8    1  0.1161093E+005  0.1043930E+01  0.7957747E-01            NaN
         13   -1    0    0    0    0  0.00000000000E+00  0.00000000000E+00  0.74505805969E-08  0.10566000000E+00  0.10566000000E+00 0. -1.
     999900   -1    0    0    0    0 -0.00000000000E+00 -0.00000000000E+00 -0.74505805969E-08  0.93827000000E+00  0.93827000000E+00 0. -1.
     999902    2    1    2    0    0  0.14739522697E-01 -0.18313953865E-01 -0.49658506302E-02  0.10199026383E+01  0.10196195749E+01 0.  0.
     999903    2    3    3    0    0 -0.76267475652E-01  0.89409846478E-01 -0.46121735050E-01  0.12772524694E+00  0.19382357272E-01 0.  0.
         14    1    1    2    0    0 -0.14739522697E-01  0.18313953865E-01  0.49658506302E-02  0.24027361652E-01  0.00000000000E+00 0. -1.
     999901    1    3    3    0    0  0.91006998349E-01 -0.10772380034E+00  0.41155884420E-01  0.89217739140E+00  0.88000000000E+00 0.  1.
        -11    1    4    4    0    0 -0.19168787087E-01  0.17147202257E-01 -0.18110354552E-01  0.31459736277E-01  0.51100000000E-03 0.  1.
         11    1    4    4    0    0 -0.57098688566E-01  0.72262644221E-01 -0.28011380498E-01  0.96265510668E-01  0.51100000000E-03 0. -1.
</event>
<event>
 8    1  0.1161093E+005  0.1043930E+01  0.7957747E-01            NaN
         13   -1    0    0    0    0  0.00000000000E+00  0.00000000000E+00  0.74505805969E-08  0.10566000000E+00  0.10566000000E+00 0. -1.
     999900   -1    0    0    0    0 -0.00000000000E+00 -0.00000000000E+00 -0.74505805969E-08  0.93827000000E+00  0.93827000000E+00 0.  1.
     999902    2    1    2    0    0  0.19414489515E-01  0.20034986142E-01 -0.56126051416E-02  0.10154725860E+01  0.10150737651E+01 0.  0.
     999903    2    3    3    0    0  0.67064825896E-01  0.41084421969E-01 -0.10055580910E+00  0.12883407724E+00  0.17353043379E-01 0.  0.
         14    1    1    2    0    0 -0.19414489515E-01 -0.20034986142E-01  0.56126051416E-02  0.28457413960E-01  0.00000000000E+00 0. -1.
     999901    1    3    3    0    0 -0.47650336381E-01 -0.21049435827E-01  0.94943203956E-01  0.88663850880E+00  0.88000000000E+00 0. -1.
        -11    1    4    4    0    0  0.55248127628E-01  0.32599782309E-01 -0.69766381116E-01  0.94777162165E-01  0.51100000000E-03 0.  1.
         11    1    4    4    0    0  0.11816698268E-01  0.84846396594E-02 -0.30789427982E-01  0.34056915077E-01  0.51100000000E-03 0. -1.
</event>
<event>
 8    1  0.1161093E+005  0.1043930E+01  0.7957747E-01            NaN
         13   -1    0    0    0    0  0.00000000000E+00  0.00000000000E+00  0.74505805969E-08  0.10566000000E+00  0.10566000000E+00 0.  1.
     999900   -1    0    0    0    0 -0.00000000000E+00 -0.00000000000E+00 -0.74505805969E-08  0.93827000000E+00  0.93827000000E+00 0. -1.
     999902    2    1    2    0    0  0.10584802959E-01  0.97760689574E-02 -0.18184320980E-01  0.10207291572E+01  0.10204654493E+01 0.  0.
     999903    2    3    3    0    0  0.12087714559E+00  0.20190965137E-01  0.44035109594E-01  0.13160367197E+00  0.19012527490E-01 0.  0.
         14    1    1    2    0    0 -0.10584802959E-01 -0.97760689574E-02  0.18184320980E-01  0.23200842818E-01  0.00000000000E+00 0.  1.
     999901    1    3    3    0    0 -0.11029234263E+00 -0.10414896179E-01 -0.62219430574E-01  0.88912548521E+00  0.88000000000E+00 0. -1.
        -11    1    4    4    0    0  0.24603382425E-01  0.97172802034E-02  0.37767040009E-02  0.26725953218E-01  0.51100000000E-03 0. -1.
         11    1    4    4    0    0  0.96273763164E-01  0.10473684933E-01  0.40258405593E-01  0.10487771876E+00  0.51100000000E-03 0.  1.
</event>
<event>
 8    1  0.1161093E+005  0.1043930E+01  0.7957747E-01            NaN
         13   -1    0    0    0    0  0.00000000000E+00  0.00000000000E+00  0.74505805969E-08  0.10566000000E+00  0.10566000000E+00 0. -1.
     999900   -1    0    0    0    0 -0.00000000000E+00 -0.00000000000E+00 -0.74505805969E-08  0.93827000000E+00  0.93827000000E+00 0.  1.
     999902    2    1    2    0    0 -0.11219755247E-01 -0.18329956220E-01 -0.95584708319E-02  0.10204090611E+01  0.10201379404E+01 0.  0.
     999903    2    3    3    0    0 -0.95950305525E-01  0.55961280210E-01 -0.67295118115E-01  0.13134664798E+00  0.19626079584E-01 0.  0.
         14    1    1    2    0    0  0.11219755247E-01  0.18329956220E-01  0.95584708319E-02  0.23520938915E-01  0.00000000000E+00 0.  1.
     999901    1    3    3    0    0  0.84730550278E-01 -0.74291236429E-01  0.57736647283E-01  0.88906241311E+00  0.88000000000E+00 0.  1.
        -11    1    4    4    0    0 -0.83930990305E-01  0.40844564654E-01 -0.58126407163E-01  0.10996194763E+00  0.51100000000E-03 0. -1.
         11    1    4    4    0    0 -0.12019315220E-01  0.15116715555E-01 -0.91687109520E-02  0.21384700350E-01  0.51100000000E-03 0.  1.
</event>
<event>
 8    1  0.1161093E+005  0.1043930E+01  0.7957747E-01            NaN
         13   -1    0    0    0    0  0.00000000000E+00  0.00000000000E+00  0.74505805969E-08  0.10566000000E+00  0.10566000000E+00 0.  1.
     999900   -1    0    0    0    0 -0.00000000000E+00 -0.00000000000E+00 -0.74505805969E-08  0.93827000000E+00  0.93827000000E+00 0. -1.
     999902    2    1    2    0    0  0.72405579621E-02  0.16517595910E-01 -0.19751306329E-01  0.10171835842E+01  0.10168318805E+01 0.  0.
     999903    2    3    3    0    0 -0.15566722470E-01  0.41358535528E-01  0.11636484508E+00  0.12608041906E+00  0.20065980948E-01 0.  0.
         14    1    1    2    0    0 -0.72405579621E-02 -0.16517595910E-01  0.19751306329E-01  0.26746415759E-01  0.00000000000E+00 0.  1.
     999901    1    3    3    0    0  0.22807280432E-01 -0.24840939618E-01 -0.13611615141E+00  0.89110316518E+00  0.88000000000E+00 0. -1.
        -11    1    4    4    0    0 -0.28113998786E-02  0.32882775718E-01  0.84664868836E-01  0.90871238817E-01  0.51100000000E-03 0.  1.
         11    1    4    4    0    0 -0.12755322591E-01  0.84757598098E-02  0.31699976240E-01  0.35209180243E-01  0.51100000000E-03 0. -1.
</event>
<event>
 8    1  0.1161093E+005  0.1043930E+01  0.7957747E-01            NaN
         13   -1    0    0    0    0  0.00000000000E+00  0.00000000000E+00  0.74505805969E-08  0.10566000000E+00  0.10566000000E+00 0. -1.
     999900   -1    0    0    0    0 -0.00000000000E+00 -0.00000000000E+00 -0.74505805969E-08  0.93827000000E+00  0.93827000000E+00 0. -1.
     999902    2    1    2    0    0  0.20066521192E-01  0.54131569806E-02 -0.12333094199E-01  0.10197624028E+01  0.10194759857E+01 0.  0.
     999903    2    3    3    0    0 -0.23462573612E-01 -0.57220812819E-01 -0.11353900635E+00  0.13068398506E+00  0.19039017989E-01 0.  0.
         14    1    1    2    0    0 -0.20066521192E-01 -0.54131569806E-02  0.12333094199E-01  0.24167597186E-01  0.00000000000E+00 0. -1.
     999901    1    3    3    0    0  0.43529094804E-01  0.62633969799E-01  0.10120591216E+00  0.88907841776E+00  0.88000000000E+00 0.  1.
        -11    1    4    4    0    0 -0.16064762836E-01 -0.54465332058E-01 -0.10040696165E+00  0.11535323173E+00  0.51100000000E-03 0.  1.
         11    1    4    4    0    0 -0.73978107756E-02 -0.27554807604E-02 -0.13132044705E-01  0.15330753329E-01  0.51100000000E-03 0. -1.
</event>
<event>
 8    1  0.1161093E+005  0.1043930E+01  0.7957747E-01            NaN
         13   -1    0    0    0    0  0.00000000000E+00  0.00000000000E+00  0.74505805969E-08  0.10566000000E+00  0.10566000000E+00 0.  1.
     999900   -1    0    0    0    0 -0.00000000000E+00 -0.00000000000E+00 -0.74505805969E-08  0.93827000000E+00  0.93827000000E+00 0. -1.
     999902    2    1    2    0    0  0.19092354463E-02 -0.25497611965E-02  0.23371672802E-01  0.10203422584E+01  0.10200695774E+01 0.  0.
     999903    2    3    3    0    0  0.11387304818E+00  0.17478712316E-01 -0.55529727740E-01  0.12952102715E+00  0.20483391432E-01 0.  0.
         14    1    1    2    0    0 -0.19092354463E-02  0.25497611965E-02 -0.23371672802E-01  0.23587741556E-01  0.00000000000E+00 0. -1.
     999901    1    3    3    0    0 -0.11196381274E+00 -0.20028473513E-01  0.78901400541E-01  0.89082123129E+00  0.88000000000E+00 0.  1.
        -11    1    4    4    0    0  0.16968504769E-01  0.20518371284E-02 -0.69716006697E-03  0.17113951702E-01  0.51100000000E-03 0.  1.
         11    1    4    4    0    0  0.96904543416E-01  0.15426875188E-01 -0.54832567673E-01  0.11240707545E+00  0.51100000000E-03 0. -1.
</event>
<event>
 8    1  0.1161093E+005  0.1043930E+01  0.7957747E-01            NaN
         13   -1    0    0    0    0  0.00000000000E+00  0.00000000000E+00  0.74505805969E-08  0.10566000000E+00  0.10566000000E+00 0.  1.
     999900   -1    0    0    0    0 -0.00000000000E+00 -0.00000000000E+00 -0.74505805969E-08  0.93827000000E+00  0.93827000000E+00 0.  1.
     999902    2    1    2    0    0 -0.22099839193E-01  0.57011702846E-02  0.10902871304E-01  0.10186361502E+01  0.10183220648E+01 0.  0.
     999903    2    3    3    0    0 -0.12657417122E-01  0.38480535307E-01  0.12265417104E+00  0.13091322096E+00  0.21289996350E-01 0.  0.
         14    1    1    2    0    0  0.22099839193E-01 -0.57011702846E-02 -0.10902871304E-01  0.25293849798E-01  0.00000000000E+00 0. -1.
     999901    1    3    3    0    0 -0.94424220712E-02 -0.32779365023E-01 -0.11175129973E+00  0.88772292924E+00  0.88000000000E+00 0.  1.
        -11    1    4    4    0    0 -0.84561621414E-02  0.31683159219E-01  0.66035213277E-01  0.73730860362E-01  0.51100000000E-03 0. -1.
         11    1    4    4    0    0 -0.42012549804E-02  0.67973760880E-02  0.56618957759E-01  0.57182360600E-01  0.51100000000E-03 0.  1.
</event>
<event>
 8    1  0.1161093E+005  0.1043930E+01  0.7957747E-01            NaN
         13   -1    0    0    0    0  0.00000000000E+00  0.00000000000E+00  0.74505805969E-08  0.10566000000E+00  0.10566000000E+00 0. -1.
     999900   -1    0    0    0    0 -0.00000000000E+00 -0.00000000000E+00 -0.74505805969E-08  0.93827000000E+00  0.93827000000E+00 0.  1.
     999902    2    1    2    0    0 -0.16419717516E-01  0.19362294564E-01 -0.14485816884E-02  0.10185015914E+01  0.10181841129E+01 0.  0.
     999903    2    3    3    0    0 -0.67987119448E-01  0.10236002684E+00 -0.43964853350E-01  0.13207310933E+00  0.20262634880E-01 0.  0.
         14    1    1    2    0    0  0.16419717516E-01 -0.19362294564E-01  0.14485816884E-02  0.25428408582E-01  0.00000000000E+00 0.  1.
     999901    1    3    3    0    0  0.51567401932E-01 -0.82997732275E-01  0.42516271661E-01  0.88642848209E+00  0.88000000000E+00 0. -1.
        -11    1    4    4    0    0 -0.17633070805E-01  0.41722321113E-01 -0.10856795296E-01  0.46581202111E-01  0.51100000000E-03 0. -1.
         11    1    4    4    0    0 -0.50354048643E-01  0.60637705726E-01 -0.33108058054E-01  0.85491907217E-01  0.51100000000E-03 0.  1.
</event>
<event>
 8    1  0.1161093E+005  0.1043930E+01  0.7957747E-01            NaN
         13   -1    0    0    0    0  0.00000000000E+00  0.00000000000E+00  0.74505805969E-08  0.10566000000E+00  0.10566000000E+00 0. -1.
     999900   -1    0    0    0    0 -0.00000000000E+00 -0.00000000000E+00 -0.74505805969E-08  0.93827000000E+00  0.93827000000E+00 0.  1.
     999902    2    1    2    0    0  0.35997119910E-02  0.33592593700E-02  0.23012456510E-01  0.10203967107E+01  0.10201253019E+01 0.  0.
     999903    2    3    3    0    0 -0.12581593570E+00 -0.21553169085E-02  0.29733200691E-01  0.13088898797E+00  0.20336393041E-01 0.  0.
         14    1    1    2    0    0 -0.35997119910E-02 -0.33592593700E-02 -0.23012456510E-01  0.23533289284E-01  0.00000000000E+00 0.  1.
     999901    1    3    3    0    0  0.12941564769E+00  0.55145762785E-02 -0.67207441809E-02  0.88950772274E+00  0.88000000000E+00 0.  1.
        -11    1    4    4    0    0 -0.17205274277E-01 -0.29083860143E-02  0.11102241526E-01  0.20688186485E-01  0.51100000000E-03 0.  1.
         11    1    4    4    0    0 -0.10861066142E+00  0.75306910580E-03  0.18630959165E-01  0.11020080149E+00  0.51100000000E-03 0. -1.
</event>
<event>
 8    1  0.1161093E+005  0.1043930E+01  0.7957747E-01            NaN
         13   -1    0    0    0    0  0.00000000000E+00  0.00000000000E+00  0.74505805969E-08  0.10566000000E+00  0.10566000000E+00 0.  1.
     999900   -1    0    0    0    0 -0.00000000000E+00 -0.00000000000E+00 -0.74505805969E-08  0.93827000000E+00  0.93827000000E+00 0.  1.
     999902    2    1    2    0    0 -0.52504704897E-02  0.25941334689E-01 -0.99198310823E-02  0.10156647681E+01  0.10152713912E+01 0.  0.
     999903    2    3    3    0    0  0.91944021217E-01  0.16865280418E-02  0.82293976380E-01  0.12519385271E+00  0.21086839347E-01 0.  0.
         14    1    1    2    0    0  0.52504704897E-02 -0.25941334689E-01  0.99198310823E-02  0.28265231903E-01  0.00000000000E+00 0.  1.
     999901    1    3    3    0    0 -0.97194491707E-01  0.24254806647E-01 -0.92213807462E-01  0.89047091539E+00  0.88000000000E+00 0.  1.
        -11    1    4    4    0    0  0.64879050626E-01  0.89902608450E-02  0.49845872109E-01  0.82310315802E-01  0.51100000000E-03 0. -1.
         11    1    4    4    0    0  0.27064970591E-01 -0.73037328033E-02  0.32448104271E-01  0.42883536908E-01  0.51100000000E-03 0.  1.
</event>
<event>
 8    1  0.1161093E+005  0.1043930E+01  0.7957747E-01            NaN
         13   -1    0    0    0    0  0.00000000000E+00  0.00000000000E+00  0.74505805969E-08  0.10566000000E+00  0.10566000000E+00 0. -1.
     999900   -1    0    0    0    0 -0.00000000000E+00 -0.00000000000E+00 -0.74505805969E-08  0.93827000000E+00  0.93827000000E+00 0.  1.
     999902    2    1    2    0    0  0.20247841704E-02  0.18733585122E-01 -0.14560298198E-01  0.10201172042E+01  0.10198392329E+01 0.  0.
     999903    2    3    3    0    0  0.94575451790E-01  0.83686299771E-01 -0.35152505978E-01  0.13264409457E+00  0.20269294415E-01 0.  0.
         14    1    1    2    0    0 -0.20247841704E-02 -0.18733585122E-01  0.14560298198E-01  0.23812795848E-01  0.00000000000E+00 0.  1.
     999901    1    3    3    0    0 -0.92550667620E-01 -0.64952714648E-01  0.20592207780E-01  0.88747310959E+00  0.88000000000E+00 0. -1.
        -11    1    4    4    0    0  0.60720583634E-01  0.58578422260E-01 -0.14154783204E-01  0.85551387130E-01  0.51100000000E-03 0.  1.
         11    1    4    4    0    0  0.33854868156E-01  0.25107877511E-01 -0.20997722774E-01  0.47092707436E-01  0.51100000000E-03 0. -1.
</event>
<event>
 8    1  0.1161093E+005  0.1043930E+01  0.7957747E-01            NaN
         13   -1    0    0    0    0  0.00000000000E+00  0.00000000000E+00  0.74505805969E-08  0.10566000000E+00  0.10566000000E+00 0. -1.
     999900   -1    0    0    0    0 -0.00000000000E+00 -0.00000000000E+00 -0.74505805969E-08  0.93827000000E+00  0.93827000000E+00 0.  1.
     999902    2    1    2    0    0 -0.60589065258E-02  0.15059462524E-01  0.23508655024E-01  0.10153615800E+01  0.10149595970E+01 0.  0.
     999903    2    3    3    0    0 -0.97070385794E-02 -0.51683674402E-01 -0.10914379744E+00  0.12291291015E+00  0.20731284674E-01 0.  0.
         14    1    1    2    0    0  0.60589065258E-02 -0.15059462524E-01 -0.23508655024E-01  0.28568419992E-01  0.00000000000E+00 0.  1.
     999901    1    3    3    0    0  0.36481320536E-02  0.66743136927E-01  0.13265245246E+00  0.89244866986E+00  0.88000000000E+00 0. -1.
        -11    1    4    4    0    0 -0.14377334318E-01 -0.21105835815E-01 -0.51861714634E-01  0.57810575272E-01  0.51100000000E-03 0. -1.
         11    1    4    4    0    0  0.46702957381E-02 -0.30577838588E-01 -0.57282082801E-01  0.65102334874E-01  0.51100000000E-03 0.  1.
</event>
<event>
 8    1  0.1161093E+005  0.1043930E+01  0.7957747E-01            NaN
         13   -1    0    0    0    0  0.00000000000E+00  0.00000000000E+00  0.74505805969E-08  0.10566000000E+00  0.10566000000E+00 0. -1.
     999900   -1    0    0    0    0 -0.00000000000E+00 -0.00000000000E+00 -0.74505805969E-08  0.93827000000E+00  0.93827000000E+00 0.  1.
     999902    2    1    2    0    0  0.22833120166E-01  0.12836397191E-01 -0.13411296272E-01  0.10145023372E+01  0.10140754434E+01 0.  0.
     999903    2    3    3    0    0  0.81395211626E-01 -0.63962841461E-01 -0.71696192242E-01  0.12730181269E+00  0.18681059105E-01 0.  0.
         14    1    1    2    0    0 -0.22833120166E-01 -0.12836397191E-01  0.13411296272E-01  0.29427662786E-01  0.00000000000E+00 0. -1.
     999901    1    3    3    0    0 -0.58562091459E-01  0.76799238652E-01  0.58284895969E-01  0.88720052452E+00  0.88000000000E+00 0. -1.
        -11    1    4    4    0    0  0.13426442038E-01 -0.16667744476E-01 -0.80906163467E-02  0.22886726406E-01  0.51100000000E-03 0.  1.
         11    1    4    4    0    0  0.67968769588E-01 -0.47295096985E-01 -0.63605575895E-01  0.10441508629E+00  0.51100000000E-03 0. -1.
</event>
<event>
 8    1  0.1161093E+005  0.1043930E+01  0.7957747E-01            NaN
         13   -1    0    0    0    0  0.00000000000E+00  0.00000000000E+00  0.74505805969E-08  0.10566000000E+00  0.10566000000E+00 0.  1.
     999900   -1    0    0    0    0 -0.00000000000E+00 -0.00000000000E+00 -0.74505805969E-08  0.93827000000E+00  0.93827000000E+00 0.  1.
     999902    2    1    2    0    0  0.15803021072E-01  0.12184331453E-01  0.13217931463E-01  0.10199945217E+01  0.10197136447E+01 0.  0.
     999903    2    3    3    0    0  0.95182277057E-01 -0.66609294153E-01  0.59466391364E-01  0.13171054587E+00  0.17746894352E-01 0.  0.
         14    1    1    2    0    0 -0.15803021072E-01 -0.12184331453E-01 -0.13217931463E-01  0.23935478272E-01  0.00000000000E+00 0. -1.
     999901    1    3    3    0    0 -0.79379255986E-01  0.78793625606E-01 -0.46248459901E-01  0.88828397585E+00  0.88000000000E+00 0. -1.
        -11    1    4    4    0    0  0.41399169423E-01 -0.37714091526E-01  0.22634332145E-01  0.60405447115E-01  0.51100000000E-03 0. -1.
         11    1    4    4    0    0  0.53783107634E-01 -0.28895202628E-01  0.36832059219E-01  0.71305098759E-01  0.51100000000E-03 0.  1.
</event>
<event>
 8    1  0.1161093E+005  0.1043930E+01  0.7957747E-01            NaN
         13   -1    0    0    0    0  0.00000000000E+00  0.00000000000E+00  0.74505805969E-08  0.10566000000E+00  0.10566000000E+00 0.  1.
     999900   -1    0    0    0    0 -0.00000000000E+00 -0.00000000000E+00 -0.74505805969E-08  0.93827000000E+00  0.93827000000E+00 0. -1.
     999902    2    1    2    0    0 -0.16807768205E-01 -0.54266369025E-02  0.13452942446E-01  0.10217279478E+01  0.10214866951E+01 0.  0.
     999903    2    3    3    0    0 -0.17490849660E-01  0.22701621971E-01  0.12887632588E+00  0.13374471432E+00  0.21383352722E-01 0.  0.
         14    1    1    2    0    0  0.16807768205E-01  0.54266369025E-02 -0.13452942446E-01  0.22202052170E-01  0.00000000000E+00 0. -1.
     999901    1    3    3    0    0  0.68308145535E-03 -0.28128258873E-01 -0.11542338344E+00  0.88798323351E+00  0.88000000000E+00 0. -1.
        -11    1    4    4    0    0 -0.55197444753E-02  0.97488374784E-02  0.93923125990E-01  0.94590285590E-01  0.51100000000E-03 0. -1.
         11    1    4    4    0    0 -0.11971105185E-01  0.12952784493E-01  0.34953199894E-01  0.39154428732E-01  0.51100000000E-03 0.  1.
</event>
<event>
 8    1  0.1161093E+005  0.1043930E+01  0.7957747E-01            NaN
         13   -1    0    0    0    0  0.00000000000E+00  0.00000000000E+00  0.74505805969E-08  0.10566000000E+00  0.10566000000E+00 0.  1.
     999900   -1    0    0    0    0 -0.00000000000E+00 -0.00000000000E+00 -0.74505805969E-08  0.93827000000E+00  0.93827000000E+00 0. -1.
     999902    2    1    2    0    0  0.22910616837E-01 -0.45354815817E-02  0.76511066308E-02  0.10193534585E+01  0.10190571461E+01 0.  0.
     999903    2    3    3    0    0  0.10104166022E+00 -0.75640931686E-01  0.34177658193E-01  0.13263811363E+00  0.22221368601E-01 0.  0.
         14    1    1    2    0    0 -0.22910616837E-01  0.45354815817E-02 -0.76511066308E-02  0.24576541451E-01  0.00000000000E+00 0. -1.
     999901    1    3    3    0    0 -0.78131043380E-01  0.71105450104E-01 -0.26526551562E-01  0.88671534492E+00  0.88000000000E+00 0. -1.
        -11    1    4    4    0    0  0.76213655080E-01 -0.60831703997E-01  0.35285506195E-01  0.10370316051E+00  0.51100000000E-03 0. -1.
         11    1    4    4    0    0  0.24828005137E-01 -0.14809227689E-01 -0.11078480016E-02  0.28934953119E-01  0.51100000000E-03 0.  1.
</event>
<event>
 8    1  0.1161093E+005  0.1043930E+01  0.7957747E-01            NaN
         13   -1    0    0    0    0  0.00000000000E+00  0.00000000000E+00  0.74505805969E-08  0.10566000000E+00  0.10566000000E+00 0.  1.
     999900   -1    0    0    0    0 -0.00000000000E+00 -0.00000000000E+00 -0.74505805969E-08  0.93827000000E+00  0.93827000000E+00 0. -1.
     999902    2    1    2    0    0 -0.54186378417E-02  0.14786496230E-01 -0.17881284564E-01  0.10201026534E+01  0.10198243384E+01 0.  0.
     999903    2    3    3    0    0  0.26940106961E-01  0.10766355598E+00 -0.70474046906E-01  0.13306306286E+00  0.20542072946E-01 0.  0.
         14    1    1    2    0    0  0.54186378417E-02 -0.14786496230E-01  0.17881284564E-01  0.23827346568E-01  0.00000000000E+00 0.  1.
     999901    1    3    3    0    0 -0.32358744803E-01 -0.92877059749E-01  0.52592762342E-01  0.88703959057E+00  0.88000000000E+00 0. -1.
        -11    1    4    4    0    0  0.54081156388E-02  0.41948644291E-01 -0.37156999110E-01  0.56301333701E-01  0.51100000000E-03 0.  1.
         11    1    4    4    0    0  0.21531991323E-01  0.65714911688E-01 -0.33317047796E-01  0.76761729158E-01  0.51100000000E-03 0. -1.
</event>
<event>
 8    1  0.1161093E+005  0.1043930E+01  0.7957747E-01            NaN
         13   -1    0    0    0    0  0.00000000000E+00  0.00000000000E+00  0.74505805969E-08  0.10566000000E+00  0.10566000000E+00 0. -1.
     999900   -1    0    0    0    0 -0.00000000000E+00 -0.00000000000E+00 -0.74505805969E-08  0.93827000000E+00  0.93827000000E+00 0.  1.
     999902    2    1    2    0    0 -0.13166584097E-01  0.13425458849E-01 -0.13385810570E-01  0.10208479332E+01  0.10205869492E+01 0.  0.
     999903    2    3    3    0    0 -0.99785926009E-02 -0.12677722254E+00  0.12871329148E-01  0.12935682696E+00  0.19886706692E-01 0.  0.
         14    1    1    2    0    0  0.13166584097E-01 -0.13425458849E-01  0.13385810570E-01  0.23082066777E-01  0.00000000000E+00 0. -1.
     999901    1    3    3    0    0 -0.31879914959E-02  0.14020268139E+00 -0.26257139718E-01  0.89149110626E+00  0.88000000000E+00 0.  1.
        -11    1    4    4    0    0  0.41910629231E-02 -0.56611189898E-01  0.88077914092E-03  0.56775247450E-01  0.51100000000E-03 0. -1.
         11    1    4    4    0    0 -0.14169655524E-01 -0.70166032639E-01  0.11990550007E-01  0.72581579512E-01  0.51100000000E-03 0.  1.
</event>
<event>
 8    1  0.1161093E+005  0.1043930E+01  0.7957747E-01            NaN
         13   -1    0    0    0    0  0.00000000000E+00  0.00000000000E+00  0.74505805969E-08  0.10566000000E+00  0.10566000000E+00 0. -1.
     999900   -1    0    0    0    0 -0.00000000000E+00 -0.00000000000E+00 -0.74505805969E-08  0.93827000000E+00  0.93827000000E+00 0.  1.
     999902    2    1    2    0    0  0.69711987688E-02 -0.11830717499E-01  0.18828688015E-01  0.10206258591E+01  0.10203597706E+01 0.  0.
     999903    2    3    3    0    0  0.53850356014E-01 -0.23867604184E-01 -0.11349116238E+00  0.12941820386E+00  0.19982596939E-01 0.  0.
         14    1    1    2    0    0 -0.69711987688E-02  0.11830717499E-01 -0.18828688015E-01  0.23304140859E-01  0.00000000000E+00 0.  1.
     999901    1    3    3    0    0 -0.46879157245E-01  0.12036886685E-01  0.13231985039E+00  0.89120765528E+00  0.88000000000E+00 0. -1.
        -11    1    4    4    0    0  0.30844528108E-01 -0.46097530648E-02 -0.69375337583E-01  0.76064665406E-01  0.51100000000E-03 0.  1.
         11    1    4    4    0    0  0.23005827906E-01 -0.19257851119E-01 -0.44115824793E-01  0.53353538454E-01  0.51100000000E-03 0. -1.
</event>
<event>
 8    1  0.1161093E+005  0.1043930E+01  0.7957747E-01            NaN
         13   -1    0    0    0    0  0.00000000000E+00  0.00000000000E+00  0.74505805969E-08  0.10566000000E+00  0.10566000000E+00 0.  1.
     999900   -1    0    0    0    0 -0.00000000000E+00 -0.00000000000E+00 -0.74505805969E-08  0.93827000000E+00  0.93827000000E+00 0. -1.
     999902    2    1    2    0    0  0.17729519491E-01  0.41360257972E-02 -0.15442841543E-01  0.10200569205E+01  0.10197775233E+01 0.  0.
     999903    2    3    3    0    0  0.10076433954E+00 -0.41326032262E-01 -0.73799226998E-01  0.13305802094E+00  0.19920290305E-01 0.  0.
         14    1    1    2    0    0 -0.17729519491E-01 -0.41360257972E-02  0.15442841543E-01  0.23873079519E-01  0.00000000000E+00 0.  1.
     999901    1    3    3    0    0 -0.83034820048E-01  0.45462058060E-01  0.58356385455E-01  0.88699889954E+00  0.88000000000E+00 0.  1.
        -11    1    4    4    0    0  0.67988415200E-01 -0.37081926565E-01 -0.47845568636E-01  0.91032705323E-01  0.51100000000E-03 0. -1.
         11    1    4    4    0    0  0.32775924338E-01 -0.42441056970E-02 -0.25953658362E-01  0.42025315618E-01  0.51100000000E-03 0.  1.
</event>
<event>
 8    1  0.1161093E+005  0.1043930E+01  0.7957747E-01            NaN
         13   -1    0    0    0    0  0.00000000000E+00  0.00000000000E+00  0.74505805969E-08  0.10566000000E+00  0.10566000000E+00 0. -1.
     999900   -1    0    0    0    0 -0.00000000000E+00 -0.00000000000E+00 -0.74505805969E-08  0.93827000000E+00  0.93827000000E+00 0. -1.
     999902    2    1    2    0    0 -0.21420244041E-01  0.20226995411E-02 -0.30017137425E-02  0.10222060857E+01  0.10219752214E+01 0.  0.
     999903    2    3    3    0    0  0.10847707986E+00 -0.53084020228E-01  0.42654448061E-01  0.12979667827E+00  0.21037720696E-01 0.  0.
         14    1    1    2    0    0  0.21420244041E-01 -0.20226995411E-02  0.30017137425E-02  0.21723914325E-01  0.00000000000E+00 0. -1.
     999901    1    3    3    0    0 -0.12989732390E+00  0.55106719769E-01 -0.45656161803E-01  0.89240940741E+00  0.88000000000E+00 0. -1.
        -11    1    4    4    0    0  0.74117749386E-01 -0.32838158228E-01  0.38349248734E-01  0.89681165299E-01  0.51100000000E-03 0.  1.
         11    1    4    4    0    0  0.34359330470E-01 -0.20245862000E-01  0.43051993269E-02  0.40115512968E-01  0.51100000000E-03 0. -1.
</event>
<event>
 8    1  0.1161093E+005  0.1043930E+01  0.7957747E-01            NaN
         13   -1    0    0    0    0  0.00000000000E+00  0.00000000000E+00  0.74505805969E-08  0.10566000000E+00  0.10566000000E+00 0.  1.
     999900   -1    0    0    0    0 -0.00000000000E+00 -0.00000000000E+00 -0.74505805969E-08  0.93827000000E+00  0.93827000000E+00 0.  1.
     999902    2    1    2    0    0  0.61437231329E-02 -0.71475158807E-02  0.13412352865E-01  0.10275372111E+01  0.10274064418E+01 0.  0.
     999903    2    3    3    0    0  0.30905607004E-01  0.12915668966E+00 -0.21099435964E-01  0.13603115344E+00  0.20559218861E-01 0.  0.
         14    1    1    2    0    0 -0.61437231329E-02  0.71475158807E-02 -0.13412352865E-01  0.16392788859E-01  0.00000000000E+00 0. -1.
     999901    1    3    3    0    0 -0.24761883871E-01 -0.13630420554E+00  0.34511788829E-01  0.89150605770E+00  0.88000000000E+00 0. -1.
        -11    1    4    4    0    0  0.12239086255E-01  0.22257998428E-01 -0.84720160910E-02  0.26781521690E-01  0.51100000000E-03 0. -1.
         11    1    4    4    0    0  0.18666520749E-01  0.10689869124E+00 -0.12627419873E-01  0.10924963175E+00  0.51100000000E-03 0.  1.
</event>
<event>
 8    1  0.1161093E+005  0.1043930E+01  0.7957747E-01            NaN
         13   -1    0    0    0    0  0.00000000000E+00  0.00000000000E+00  0.74505805969E-08  0.10566000000E+00  0.10566000000E+00 0.  1.
     999900   -1    0    0    0    0 -0.00000000000E+00 -0.00000000000E+00 -0.74505805969E-08  0.93827000000E+00  0.93827000000E+00 0.  1.
     999902    2    1    2    0    0 -0.19823283947E-01 -0.12236440564E-01 -0.36467512359E-02  0.10203505204E+01  0.10200780326E+01 0.  0.
     999903    2    3    3    0    0  0.30393196007E-01 -0.78920423293E-01  0.97618623567E-01  0.13061846828E+00  0.19483557512E-01 0.  0.
         14    1    1    2    0    0  0.19823283947E-01  0.12236440564E-01  0.36467512359E-02  0.23579479610E-01  0.00000000000E+00 0.  1.
     999901    1    3    3    0    0 -0.50216479953E-01  0.66683982729E-01 -0.10126537480E+00  0.88973205211E+00  0.88000000000E+00 0.  1.
        -11    1    4    4    0    0  0.17901735966E-02 -0.20000399776E-01  0.14395431843E-01  0.24712553321E-01  0.51100000000E-03 0. -1.
         11    1    4    4    0    0  0.28603022410E-01 -0.58920023517E-01  0.83223191724E-01  0.10590591496E+00  0.51100000000E-03 0.  1.
</event>
<event>
 8    1  0.1161093E+005  0.1043930E+01  0.7957747E-01            NaN
         13   -1    0    0    0    0  0.00000000000E+00  0.00000000000E+00  0.74505805969E-08  0.10566000000E+00  0.10566000000E+00 0. -1.
     999900   -1    0    0    0    0 -0.00000000000E+00 -0.00000000000E+00 -0.74505805969E-08  0.93827000000E+00  0.93827000000E+00 0. -1.
     999902    2    1    2    0    0 -0.17366826046E-01 -0.89208507547E-02  0.62765507200E-02  0.10234218720E+01  0.10232163724E+01 0.  0.
     999903    2    3    3    0    0  0.37286266723E-01  0.71120280313E-01  0.10395970062E+00  0.13272801832E+00  0.18993355029E-01 0.  0.
         14    1    1    2    0    0  0.17366826046E-01  0.89208507547E-02 -0.62765507200E-02  0.20508127999E-01  0.00000000000E+00 0.  1.
     999901    1    3    3    0    0 -0.54653092769E-01 -0.80041131068E-01 -0.97683149903E-01  0.89069385368E+00  0.88000000000E+00 0. -1.
        -11    1    4    4    0    0  0.44457455592E-02  0.26751973808E-01  0.30087457790E-01  0.40508628630E-01  0.51100000000E-03 0.  1.
         11    1    4    4    0    0  0.32840521164E-01  0.44368306506E-01  0.73872242833E-01  0.92219389689E-01  0.51100000000E-03 0. -1.
</event>
<event>
 8    1  0.1161093E+005  0.1043930E+01  0.7957747E-01            NaN
         13   -1    0    0    0    0  0.00000000000E+00  0.00000000000E+00  0.74505805969E-08  0.10566000000E+00  0.10566000000E+00 0. -1.
     999900   -1    0    0    0    0 -0.00000000000E+00 -0.00000000000E+00 -0.74505805969E-08  0.93827000000E+00  0.93827000000E+00 0.  1.
     999902    2    1    2    0    0  0.17099366671E-01  0.16362854012E-01 -0.19598334217E-02  0.10201818995E+01  0.10199054543E+01 0.  0.
     999903    2    3    3    0    0 -0.19854364463E-01  0.11314778158E+00 -0.61957351370E-01  0.13207571065E+00  0.20215431975E-01 0.  0.
         14    1    1    2    0    0 -0.17099366671E-01 -0.16362854012E-01  0.19598334217E-02  0.23748100534E-01  0.00000000000E+00 0.  1.
     999901    1    3    3    0    0  0.36953731134E-01 -0.96784927571E-01  0.59997517948E-01  0.88810618881E+00  0.88000000000E+00 0.  1.
        -11    1    4    4    0    0 -0.19528410930E-01  0.10183372705E+00 -0.48467269490E-01  0.11445874423E+00  0.51100000000E-03 0.  1.
         11    1    4    4    0    0 -0.32595353297E-03  0.11314054532E-01 -0.13490081880E-01  0.17616966418E-01  0.51100000000E-03 0. -1.
</event>
<event>
 8    1  0.1161093E+005  0.1043930E+01  0.7957747E-01            NaN
         13   -1    0    0    0    0  0.00000000000E+00  0.00000000000E+00  0.74505805969E-08  0.10566000000E+00  0.10566000000E+00 0. -1.
     999900   -1    0    0    0    0 -0.00000000000E+00 -0.00000000000E+00 -0.74505805969E-08  0.93827000000E+00  0.93827000000E+00 0. -1.
     999902    2    1    2    0    0  0.55596043712E-02 -0.20264908216E-02 -0.22658784841E-01  0.10205112811E+01  0.10202425390E+01 0.  0.
     999903    2    3    3    0    0  0.32289730352E-01 -0.37585526011E-01  0.11673347851E+00  0.12842992396E+00  0.20303741314E-01 0.  0.
         14    1    1    2    0    0 -0.55596043712E-02  0.20264908216E-02  0.22658784841E-01  0.23418718929E-01  0.00000000000E+00 0. -1.
     999901    1    3    3    0    0 -0.26730125981E-01  0.35559035190E-01 -0.13939226335E+00  0.89208135711E+00  0.88000000000E+00 0. -1.
        -11    1    4    4    0    0  0.23507309565E-01 -0.11806406139E-01  0.57364329849E-01  0.63110318403E-01  0.51100000000E-03 0. -1.
         11    1    4    4    0    0  0.87824207868E-02 -0.25779119872E-01  0.59369148664E-01  0.65319605559E-01  0.51100000000E-03 0.  1.
</event>
<event>
 8    1  0.1161093E+005  0.1043930E+01  0.7957747E-01            NaN
         13   -1    0    0    0    0  0.00000000000E+00  0.00000000000E+00  0.74505805969E-08  0.10566000000E+00  0.10566000000E+00 0. -1.
     999900   -1    0    0    0    0 -0.00000000000E+00 -0.00000000000E+00 -0.74505805969E-08  0.93827000000E+00  0.93827000000E+00 0.  1.
     999902    2    1    2    0    0  0.10490945424E-01 -0.17161464239E-01 -0.12405651086E-01  0.10202979038E+01  0.10200241843E+01 0.  0.
     999903    2    3    3    0    0  0.25077571298E-01  0.11564022102E+00 -0.48543287360E-01  0.12948087098E+00  0.20181672411E-01 0.  0.
         14    1    1    2    0    0 -0.10490945424E-01  0.17161464239E-01  0.12405651086E-01  0.23632096174E-01  0.00000000000E+00 0.  1.
     999901    1    3    3    0    0 -0.14586625874E-01 -0.13280168526E+00  0.36137636274E-01  0.89081703285E+00  0.88000000000E+00 0. -1.
        -11    1    4    4    0    0 -0.40222072599E-03  0.17528027442E-01 -0.13820505349E-01  0.22330719125E-01  0.51100000000E-03 0.  1.
         11    1    4    4    0    0  0.25479792024E-01  0.98112193577E-01 -0.34722782011E-01  0.10715015185E+00  0.51100000000E-03 0. -1.
</event>
<event>
 8    1  0.1161093E+005  0.1043930E+01  0.7957747E-01            NaN
         13   -1    0    0    0    0  0.00000000000E+00  0.00000000000E+00  0.74505805969E-08  0.10566000000E+00  0.10566000000E+00 0. -1.
     999900   -1    0    0    0    0 -0.00000000000E+00 -0.00000000000E+00 -0.74505805969E-08  0.93827000000E+00  0.93827000000E+00 0. -1.
     999902    2    1    2    0    0  0.15537338309E-01 -0.54809384317E-02  0.17518707688E-01  0.10198809941E+01  0.10195974144E+01 0.  0.
     999903    2    3    3    0    0 -0.41240020691E-01 -0.11927212288E+00  0.27911324611E-01  0.13067904363E+00  0.19271528206E-01 0.  0.
         14    1    1    2    0    0 -0.15537338309E-01  0.54809384317E-02 -0.17518707688E-01  0.24049005944E-01  0.00000000000E+00 0.  1.
     999901    1    3    3    0    0  0.56777359000E-01  0.11379118445E+00 -0.10392616923E-01  0.88920195043E+00  0.88000000000E+00 0. -1.
        -11    1    4    4    0    0 -0.15357417273E-01 -0.31324207819E-01  0.15425327401E-03  0.34890416677E-01  0.51100000000E-03 0. -1.
         11    1    4    4    0    0 -0.25882603418E-01 -0.87947915063E-01  0.27757071337E-01  0.95788626954E-01  0.51100000000E-03 0.  1.
</event>
<event>
 8    1  0.1161093E+005  0.1043930E+01  0.7957747E-01            NaN
         13   -1    0    0    0    0  0.00000000000E+00  0.00000000000E+00  0.74505805969E-08  0.10566000000E+00  0.10566000000E+00 0. -1.
     999900   -1    0    0    0    0 -0.00000000000E+00 -0.00000000000E+00 -0.74505805969E-08  0.93827000000E+00  0.93827000000E+00 0.  1.
     999902    2    1    2    0    0  0.68544310648E-02 -0.13116461007E-01  0.15190465071E-01  0.10227221004E+01  0.10225021857E+01 0.  0.
     999903    2    3    3    0    0 -0.61071778627E-01 -0.98851513420E-01  0.65646584276E-01  0.13451588050E+00  0.16842334462E-01 0.  0.
         14    1    1    2    0    0 -0.68544310648E-02  0.13116461007E-01 -0.15190465071E-01  0.21207899558E-01  0.00000000000E+00 0.  1.
     999901    1    3    3    0    0  0.67926209692E-01  0.85735052413E-01 -0.50456119205E-01  0.88820621994E+00  0.88000000000E+00 0.  1.
        -11    1    4    4    0    0 -0.49098286958E-02 -0.19157633598E-01  0.13493560992E-01  0.23946996724E-01  0.51100000000E-03 0.  1.
         11    1    4    4    0    0 -0.56161949931E-01 -0.79693879822E-01  0.52153023285E-01  0.11056888378E+00  0.51100000000E-03 0. -1.
</event>
<event>
 8    1  0.1161093E+005  0.1043930E+01  0.7957747E-01            NaN
         13   -1    0    0    0    0  0.00000000000E+00  0.00000000000E+00  0.74505805969E-08  0.10566000000E+00  0.10566000000E+00 0.  1.
     999900   -1    0    0    0    0 -0.00000000000E+00 -0.00000000000E+00 -0.74505805969E-08  0.93827000000E+00  0.93827000000E+00 0.  1.
     999902    2    1    2    0    0 -0.96681392936E-02 -0.19738863470E-01 -0.36464189302E-03  0.10219475385E+01  0.10217110858E+01 0.  0.
     999903    2    3    3    0    0 -0.61711998208E-02 -0.52194568426E-01  0.12047623930E+00  0.13308977717E+00  0.20880801474E-01 0.  0.
         14    1    1    2    0    0  0.96681392936E-02  0.19738863470E-01  0.36464189302E-03  0.21982461468E-01  0.00000000000E+00 0. -1.
     999901    1    3    3    0    0 -0.34969394728E-02  0.32455704956E-01 -0.12084088119E+00  0.88885776136E+00  0.88000000000E+00 0.  1.
        -11    1    4    4    0    0 -0.12614461649E-01 -0.29877247843E-01  0.81451992735E-01  0.87672474716E-01  0.51100000000E-03 0. -1.
         11    1    4    4    0    0  0.64432618277E-02 -0.22317320583E-01  0.39024246565E-01  0.45417302451E-01  0.51100000000E-03 0.  1.
</event>
<event>
 8    1  0.1161093E+005  0.1043930E+01  0.7957747E-01            NaN
         13   -1    0    0    0    0  0.00000000000E+00  0.00000000000E+00  0.74505805969E-08  0.10566000000E+00  0.10566000000E+00 0. -1.
     999900   -1    0    0    0    0 -0.00000000000E+00 -0.00000000000E+00 -0.74505805969E-08  0.93827000000E+00  0.93827000000E+00 0. -1.
     999902    2    1    2    0    0  0.49565939011E-02  0.20784984399E-01  0.97066295509E-02  0.10204608275E+01  0.10201909127E+01 0.  0.
     999903    2    3    3    0    0 -0.14434807085E-01 -0.91072930287E-02  0.12915836450E+00  0.13167610012E+00  0.19115589951E-01 0.  0.
         14    1    1    2    0    0 -0.49565939011E-02 -0.20784984399E-01 -0.97066295509E-02  0.23469172478E-01  0.00000000000E+00 0.  1.
     999901    1    3    3    0    0  0.19391400986E-01  0.29892277428E-01 -0.11945173495E+00  0.88878472740E+00  0.88000000000E+00 0. -1.
        -11    1    4    4    0    0 -0.86972597474E-02  0.24515090458E-02  0.89758343844E-01  0.90213489204E-01  0.51100000000E-03 0.  1.
         11    1    4    4    0    0 -0.57375473375E-02 -0.11558802074E-01  0.39400020660E-01  0.41462610915E-01  0.51100000000E-03 0. -1.
</event>
<event>
 8    1  0.1161093E+005  0.1043930E+01  0.7957747E-01            NaN
         13   -1    0    0    0    0  0.00000000000E+00  0.00000000000E+00  0.74505805969E-08  0.10566000000E+00  0.10566000000E+00 0.  1.
     999900   -1    0    0    0    0 -0.00000000000E+00 -0.00000000000E+00 -0.74505805969E-08  0.93827000000E+00  0.93827000000E+00 0.  1.
     999902    2    1    2    0    0  0.16659942808E-01 -0.15007232913E-01 -0.27310570077E-02  0.10213417418E+01  0.10210919274E+01 0.  0.
     999903    2    3    3    0    0  0.16368598409E-01 -0.13098184346E+00 -0.69276675339E-02  0.13372256297E+00  0.20237513185E-01 0.  0.
         14    1    1    2    0    0 -0.16659942808E-01  0.15007232913E-01  0.27310570077E-02  0.22588258154E-01  0.00000000000E+00 0. -1.
     999901    1    3    3    0    0  0.29134439868E-03  0.11597461054E+00  0.41966105262E-02  0.88761917888E+00  0.88000000000E+00 0. -1.
        -11    1    4    4    0    0  0.13152040438E-01 -0.34714216846E-01 -0.41854003297E-02  0.37360831306E-01  0.51100000000E-03 0.  1.
         11    1    4    4    0    0  0.32165579707E-02 -0.96267626611E-01 -0.27422672042E-02  0.96361731662E-01  0.51100000000E-03 0. -1.
</event>
<event>
 8    1  0.1161093E+005  0.1043930E+01  0.7957747E-01            NaN
         13   -1    0    0    0    0  0.00000000000E+00  0.00000000000E+00  0.74505805969E-08  0.10566000000E+00  0.10566000000E+00 0.  1.
     999900   -1    0    0    0    0 -0.00000000000E+00 -0.00000000000E+00 -0.74505805969E-08  0.93827000000E+00  0.93827000000E+00 0.  1.
     999902    2    1    2    0    0  0.19928785048E-01 -0.97956487356E-02  0.11619828919E-02  0.10216935117E+01  0.10214515018E+01 0.  0.
     999903    2    3    3    0    0 -0.55122971208E-01  0.10489371361E+00 -0.48911943705E-01  0.12967679993E+00  0.19556612530E-01 0.  0.
         14    1    1    2    0    0 -0.19928785048E-01  0.97956487356E-02 -0.11619828919E-02  0.22236488299E-01  0.00000000000E+00 0.  1.
     999901    1    3    3    0    0  0.75051756256E-01 -0.11468936235E+00  0.50073926597E-01  0.89201671177E+00  0.88000000000E+00 0. -1.
        -11    1    4    4    0    0 -0.41690900806E-01  0.78353670385E-01 -0.27146366793E-01  0.92814951510E-01  0.51100000000E-03 0.  1.
         11    1    4    4    0    0 -0.13432070401E-01  0.26540043225E-01 -0.21765576912E-01  0.36861848421E-01  0.51100000000E-03 0. -1.
</event>
<event>
 8    1  0.1161093E+005  0.1043930E+01  0.7957747E-01            NaN
         13   -1    0    0    0    0  0.00000000000E+00  0.00000000000E+00  0.74505805969E-08  0.10566000000E+00  0.10566000000E+00 0.  1.
     999900   -1    0    0    0    0 -0.00000000000E+00 -0.00000000000E+00 -0.74505805969E-08  0.93827000000E+00  0.93827000000E+00 0. -1.
     999902    2    1    2    0    0  0.16683426751E-01  0.81507659710E-02 -0.13041015141E-01  0.10212399187E+01  0.10209878215E+01 0.  0.
     999903    2    3    3    0    0 -0.21823512360E-01  0.10706747410E+00  0.69323201064E-01  0.13104265762E+00  0.20658223719E-01 0.  0.
         14    1    1    2    0    0 -0.16683426751E-01 -0.81507659710E-02  0.13041015141E-01  0.22690081313E-01  0.00000000000E+00 0.  1.
     999901    1    3    3    0    0  0.38506939112E-01 -0.98916708130E-01 -0.82364216205E-01  0.89019726107E+00  0.88000000000E+00 0. -1.
        -11    1    4    4    0    0 -0.12661151481E-01  0.82918636073E-01  0.61629332062E-01  0.10408765852E+00  0.51100000000E-03 0. -1.
         11    1    4    4    0    0 -0.91623608788E-02  0.24148838028E-01  0.76938690019E-02  0.26954999095E-01  0.51100000000E-03 0.  1.
</event>
<event>
 8    1  0.1161093E+005  0.1043930E+01  0.7957747E-01            NaN
         13   -1    0    0    0    0  0.00000000000E+00  0.00000000000E+00  0.74505805969E-08  0.10566000000E+00  0.10566000000E+00 0.  1.
     999900   -1    0    0    0    0 -0.00000000000E+00 -0.00000000000E+00 -0.74505805969E-08  0.93827000000E+00  0.93827000000E+00 0. -1.
     999902    2    1    2    0    0  0.48651559290E-02 -0.23886141762E-01 -0.14076645291E-02  0.10195128128E+01  0.10192203768E+01 0.  0.
     999903    2    3    3    0    0  0.43838766485E-01  0.10128936124E+00  0.61266279983E-01  0.12759584796E+00  0.18594924241E-01 0.  0.
         14    1    1    2    0    0 -0.48651559290E-02  0.23886141762E-01  0.14076645291E-02  0.24417187183E-01  0.00000000000E+00 0.  1.
     999901    1    3    3    0    0 -0.38973610556E-01 -0.12517550300E+00 -0.62673944512E-01  0.89191696485E+00  0.88000000000E+00 0. -1.
        -11    1    4    4    0    0  0.34060205976E-01  0.74372733130E-01  0.35891308385E-01  0.89329996098E-01  0.51100000000E-03 0.  1.
         11    1    4    4    0    0  0.97785605091E-02  0.26916628110E-01  0.25374971598E-01  0.38265851866E-01  0.51100000000E-03 0. -1.
</event>
<event>
 8    1  0.1161093E+005  0.1043930E+01  0.7957747E-01            NaN
         13   -1    0    0    0    0  0.00000000000E+00  0.00000000000E+00  0.74505805969E-08  0.10566000000E+00  0.10566000000E+00 0.  1.
     999900   -1    0    0    0    0 -0.00000000000E+00 -0.00000000000E+00 -0.74505805969E-08  0.93827000000E+00  0.93827000000E+00 0. -1.
     999902    2    1    2    0    0  0.19897276681E-02  0.16951931258E-01 -0.15005698866E-01  0.10212034079E+01  0.10209504897E+01 0.  0.
     999903    2    3    3    0    0  0.11889296884E+00 -0.50650510981E-01 -0.41715479331E-02  0.13083615962E+00  0.19992162205E-01 0.  0.
         14    1    1    2    0    0 -0.19897276681E-02 -0.16951931258E-01  0.15005698866E-01  0.22726592090E-01  0.00000000000E+00 0.  1.
     999901    1    3    3    0    0 -0.11690324118E+00  0.67602442240E-01 -0.10834150933E-01  0.89036724829E+00  0.88000000000E+00 0.  1.
        -11    1    4    4    0    0  0.29641056157E-01 -0.21462241073E-01 -0.49213508866E-02  0.36928319993E-01  0.51100000000E-03 0. -1.
         11    1    4    4    0    0  0.89251912687E-01 -0.29188269909E-01  0.74980295352E-03  0.93907839630E-01  0.51100000000E-03 0.  1.
</event>
<event>
 8    1  0.1161093E+005  0.1043930E+01  0.7957747E-01            NaN
         13   -1    0    0    0    0  0.00000000000E+00  0.00000000000E+00  0.74505805969E-08  0.10566000000E+00  0.10566000000E+00 0. -1.
     999900   -1    0    0    0    0 -0.00000000000E+00 -0.00000000000E+00 -0.74505805969E-08  0.93827000000E+00  0.93827000000E+00 0.  1.
     999902    2    1    2    0    0  0.89974399995E-02 -0.14572380965E-01  0.15167117764E-01  0.10210531629E+01  0.10207968514E+01 0.  0.
     999903    2    3    3    0    0  0.20356977214E-01  0.14666292521E-01  0.12925548447E+00  0.13313419447E+00  0.19703472145E-01 0.  0.
         14    1    1    2    0    0 -0.89974399995E-02  0.14572380965E-01 -0.15167117764E-01  0.22876837080E-01  0.00000000000E+00 0.  1.
     999901    1    3    3    0    0 -0.11359537214E-01 -0.29238673486E-01 -0.11408836670E+00  0.88791896845E+00  0.88000000000E+00 0.  1.
        -11    1    4    4    0    0  0.96742781453E-02  0.17063196082E-01  0.63208494709E-01  0.66183980257E-01  0.51100000000E-03 0.  1.
         11    1    4    4    0    0  0.10682699068E-01 -0.23969035611E-02  0.66046989760E-01  0.66950214215E-01  0.51100000000E-03 0. -1.
</event>
<event>
 8    1  0.1161093E+005  0.1043930E+01  0.7957747E-01            NaN
         13   -1    0    0    0    0  0.00000000000E+00  0.00000000000E+00  0.74505805969E-08  0.10566000000E+00  0.10566000000E+00 0. -1.
     999900   -1    0    0    0    0 -0.00000000000E+00 -0.00000000000E+00 -0.74505805969E-08  0.93827000000E+00  0.93827000000E+00 0.  1.
     999902    2    1    2    0    0  0.69073572857E-02  0.10687289258E-01 -0.20286305306E-01  0.10199828933E+01  0.10197017401E+01 0.  0.
     999903    2    3    3    0    0 -0.95588195359E-01  0.29283595031E-01  0.78121188384E-01  0.12839150947E+00  0.19667933296E-01 0.  0.
         14    1    1    2    0    0 -0.69073572857E-02 -0.10687289258E-01  0.20286305306E-01  0.23947106701E-01  0.00000000000E+00 0. -1.
     999901    1    3    3    0    0  0.10249555264E+00 -0.18596305773E-01 -0.98407493690E-01  0.89159138383E+00  0.88000000000E+00 0. -1.
        -11    1    4    4    0    0 -0.61389754260E-01  0.90235727758E-02  0.45037424908E-01  0.76673056265E-01  0.51100000000E-03 0.  1.
         11    1    4    4    0    0 -0.34198441099E-01  0.20260022255E-01  0.33083763476E-01  0.51718453207E-01  0.51100000000E-03 0. -1.
</event>
<event>
 8    1  0.1161093E+005  0.1043930E+01  0.7957747E-01            NaN
         13   -1    0    0    0    0  0.00000000000E+00  0.00000000000E+00  0.74505805969E-08  0.10566000000E+00  0.10566000000E+00 0. -1.
     999900   -1    0    0    0    0 -0.00000000000E+00 -0.00000000000E+00 -0.74505805969E-08  0.93827000000E+00  0.93827000000E+00 0. -1.
     999902    2    1    2    0    0 -0.13479379376E-01  0.18122562942E-01  0.60634968393E-02  0.10205443858E+01  0.10202764118E+01 0.  0.
     999903    2    3    3    0    0  0.10305908468E+00 -0.34750691912E-01 -0.65699118059E-01  0.12839716279E+00  0.18457295991E-01 0.  0.
         14    1    1    2    0    0  0.13479379376E-01 -0.18122562942E-01 -0.60634968393E-02  0.23385614165E-01  0.00000000000E+00 0.  1.
     999901    1    3    3    0    0 -0.11653846406E+00  0.52873254854E-01  0.71762614898E-01  0.89214722304E+00  0.88000000000E+00 0.  1.
        -11    1    4    4    0    0  0.50151044102E-01 -0.10596534598E-01 -0.38939293637E-01  0.64373468758E-01  0.51100000000E-03 0.  1.
         11    1    4    4    0    0  0.52908040583E-01 -0.24154157314E-01 -0.26759824422E-01  0.64023694036E-01  0.51100000000E-03 0. -1.
</event>
<event>
 8    1  0.1161093E+005  0.1043930E+01  0.7957747E-01            NaN
         13   -1    0    0    0    0  0.00000000000E+00  0.00000000000E+00  0.74505805969E-08  0.10566000000E+00  0.10566000000E+00 0.  1.
     999900   -1    0    0    0    0 -0.00000000000E+00 -0.00000000000E+00 -0.74505805969E-08  0.93827000000E+00  0.93827000000E+00 0.  1.
     999902    2    1    2    0    0  0.45518636718E-02 -0.17485749011E-01 -0.15622344926E-01  0.10200442607E+01  0.10197645636E+01 0.  0.
     999903    2    3    3    0    0  0.13598081383E-01  0.91240061791E-01 -0.89569597767E-01  0.13022892468E+00  0.20668896621E-01 0.  0.
         14    1    1    2    0    0 -0.45518636718E-02  0.17485749011E-01  0.15622344926E-01  0.23885739309E-01  0.00000000000E+00 0.  1.
     999901    1    3    3    0    0 -0.90462177108E-02 -0.10872581080E+00  0.73947252841E-01  0.88981533601E+00  0.88000000000E+00 0.  1.
        -11    1    4    4    0    0  0.13807610059E-01  0.43396084121E-01 -0.33604849924E-01  0.56598739138E-01  0.51100000000E-03 0. -1.
         11    1    4    4    0    0 -0.20952867623E-03  0.47843977670E-01 -0.55964747843E-01  0.73630185547E-01  0.51100000000E-03 0.  1.
</event>
<event>
 8    1  0.1161093E+005  0.1043930E+01  0.7957747E-01            NaN
         13   -1    0    0    0    0  0.00000000000E+00  0.00000000000E+00  0.74505805969E-08  0.10566000000E+00  0.10566000000E+00 0.  1.
     999900   -1    0    0    0    0 -0.00000000000E+00 -0.00000000000E+00 -0.74505805969E-08  0.93827000000E+00  0.93827000000E+00 0. -1.
     999902    2    1    2    0    0 -0.23423686813E-01  0.26530650860E-02 -0.37502883468E-02  0.10200600917E+01  0.10197807697E+01 0.  0.
     999903    2    3    3    0    0 -0.73070255632E-01  0.99006801271E-01  0.43913980680E-01  0.13212951628E+00  0.19701837911E-01 0.  0.
         14    1    1    2    0    0  0.23423686813E-01 -0.26530650860E-02  0.37502883468E-02  0.23869908273E-01  0.00000000000E+00 0. -1.
     999901    1    3    3    0    0  0.49646568819E-01 -0.96353736185E-01 -0.47664269027E-01  0.88793057545E+00  0.88000000000E+00 0. -1.
        -11    1    4    4    0    0 -0.24010515908E-01  0.22128509181E-01  0.18146539557E-01  0.37359521031E-01  0.51100000000E-03 0. -1.
         11    1    4    4    0    0 -0.49059739724E-01  0.76878292090E-01  0.25767441123E-01  0.94769995249E-01  0.51100000000E-03 0.  1.
</event>
<event>
 8    1  0.1161093E+005  0.1043930E+01  0.7957747E-01            NaN
         13   -1    0    0    0    0  0.00000000000E+00  0.00000000000E+00  0.74505805969E-08  0.10566000000E+00  0.10566000000E+00 0. -1.
     999900   -1    0    0    0    0 -0.00000000000E+00 -0.00000000000E+00 -0.74505805969E-08  0.93827000000E+00  0.93827000000E+00 0.  1.
     999902    2    1    2    0    0  0.15600535785E-01  0.67157229479E-02 -0.14446019952E-01  0.10216327996E+01  0.10213894518E+01 0.  0.
     999903    2    3    3    0    0 -0.91719465952E-01  0.55083290928E-01  0.70437309840E-01  0.12974593233E+00  0.20638870224E-01 0.  0.
         14    1    1    2    0    0 -0.15600535785E-01 -0.67157229479E-02  0.14446019952E-01  0.22297200361E-01  0.00000000000E+00 0. -1.
     999901    1    3    3    0    0  0.10732000174E+00 -0.48367567980E-01 -0.84883329792E-01  0.89188686731E+00  0.88000000000E+00 0.  1.
        -11    1    4    4    0    0 -0.55027422884E-01  0.21217615883E-01  0.36213088471E-01  0.69208766718E-01  0.51100000000E-03 0. -1.
         11    1    4    4    0    0 -0.36692043068E-01  0.33865675045E-01  0.34224221369E-01  0.60537165610E-01  0.51100000000E-03 0.  1.
</event>
<event>
 8    1  0.1161093E+005  0.1043930E+01  0.7957747E-01            NaN
         13   -1    0    0    0    0  0.00000000000E+00  0.00000000000E+00  0.74505805969E-08  0.10566000000E+00  0.10566000000E+00 0.  1.
     999900   -1    0    0    0    0 -0.00000000000E+00 -0.00000000000E+00 -0.74505805969E-08  0.93827000000E+00  0.93827000000E+00 0. -1.
     999902    2    1    2    0    0 -0.14124880816E-01  0.17601345230E-01  0.86524374443E-02  0.10197600955E+01  0.10194736230E+01 0.  0.
     999903    2    3    3    0    0  0.62488063746E-01 -0.10793969440E+00  0.17161895414E-01  0.12751432955E+00  0.20239512029E-01 0.  0.
         14    1    1    2    0    0  0.14124880816E-01 -0.17601345230E-01 -0.86524374443E-02  0.24169904545E-01  0.00000000000E+00 0.  1.
     999901    1    3    3    0    0 -0.76612944562E-01  0.12554103963E+00 -0.85094579700E-02  0.89224576591E+00  0.88000000000E+00 0. -1.
        -11    1    4    4    0    0  0.30173843297E-01 -0.65816635127E-01  0.25613808891E-02  0.72450756185E-01  0.51100000000E-03 0. -1.
         11    1    4    4    0    0  0.32314220449E-01 -0.42123059276E-01  0.14600514525E-01  0.55063573362E-01  0.51100000000E-03 0.  1.
</event>
<event>
 8    1  0.1161093E+005  0.1043930E+01  0.7957747E-01            NaN
         13   -1    0    0    0    0  0.00000000000E+00  0.00000000000E+00  0.74505805969E-08  0.10566000000E+00  0.10566000000E+00 0.  1.
     999900   -1    0    0    0    0 -0.00000000000E+00 -0.00000000000E+00 -0.74505805969E-08  0.93827000000E+00  0.93827000000E+00 0.  1.
     999902    2    1    2    0    0  0.24285054649E-01 -0.35986427904E-02  0.37155767969E-02  0.10191001869E+01  0.10187976596E+01 0.  0.
     999903    2    3    3    0    0  0.67518780351E-01 -0.14168085737E-01 -0.10936184759E+00  0.13074925842E+00  0.19386451860E-01 0.  0.
         14    1    1    2    0    0 -0.24285054649E-01  0.35986427904E-02 -0.37155767969E-02  0.24829813132E-01  0.00000000000E+00 0. -1.
     999901    1    3    3    0    0 -0.43233725701E-01  0.10569442946E-01  0.11307742439E+00  0.88835092844E+00  0.88000000000E+00 0. -1.
        -11    1    4    4    0    0  0.41072690124E-01 -0.29218563035E-02 -0.49842565491E-01  0.64653271951E-01  0.51100000000E-03 0. -1.
         11    1    4    4    0    0  0.26446090227E-01 -0.11246229433E-01 -0.59519282101E-01  0.66095986471E-01  0.51100000000E-03 0.  1.
</event>
<event>
 8    1  0.1161093E+005  0.1043930E+01  0.7957747E-01            NaN
         13   -1    0    0    0    0  0.00000000000E+00  0.00000000000E+00  0.74505805969E-08  0.10566000000E+00  0.10566000000E+00 0.  1.
     999900   -1    0    0    0    0 -0.00000000000E+00 -0.00000000000E+00 -0.74505805969E-08  0.93827000000E+00  0.93827000000E+00 0. -1.
     999902    2    1    2    0    0 -0.16684582433E-01  0.16522403848E-01 -0.46847177672E-03  0.10204441620E+01  0.10201738593E+01 0.  0.
     999903    2    3    3    0    0 -0.12445087170E+00  0.22073130917E-01 -0.36688809861E-01  0.13311316596E+00  0.19945014618E-01 0.  0.
         14    1    1    2    0    0  0.16684582433E-01 -0.16522403848E-01  0.46847177672E-03  0.23485837981E-01  0.00000000000E+00 0.  1.
     999901    1    3    3    0    0  0.10776628927E+00 -0.55507270687E-02  0.36220338085E-01  0.88733099606E+00  0.88000000000E+00 0.  1.
        -11    1    4    4    0    0 -0.28451254746E-01  0.10493983866E-01 -0.20460882823E-02  0.30398111656E-01  0.51100000000E-03 0.  1.
         11    1    4    4    0    0 -0.95999616953E-01  0.11579147051E-01 -0.34642721579E-01  0.10271505431E+00  0.51100000000E-03 0. -1.
</event>
<event>
 8    1  0.1161093E+005  0.1043930E+01  0.7957747E-01            NaN
         13   -1    0    0    0    0  0.00000000000E+00  0.00000000000E+00  0.74505805969E-08  0.10566000000E+00  0.10566000000E+00 0.  1.
     999900   -1    0    0    0    0 -0.00000000000E+00 -0.00000000000E+00 -0.74505805969E-08  0.93827000000E+00  0.93827000000E+00 0.  1.
     999902    2    1    2    0    0  0.20646939993E-01 -0.51351439843E-02  0.10312242547E-01  0.10202866462E+01  0.10200126627E+01 0.  0.
     999903    2    3    3    0    0 -0.10904154444E-01 -0.73118705593E-01 -0.10461443481E+00  0.12965463607E+00  0.20022462191E-01 0.  0.
         14    1    1    2    0    0 -0.20646939993E-01  0.51351439843E-02 -0.10312242547E-01  0.23643353847E-01  0.00000000000E+00 0. -1.
     999901    1    3    3    0    0  0.31551094437E-01  0.67983561609E-01  0.11492667736E+00  0.89063201008E+00  0.88000000000E+00 0. -1.
        -11    1    4    4    0    0 -0.16359902944E-01 -0.52080175164E-01 -0.69858340422E-01  0.88659122018E-01  0.51100000000E-03 0. -1.
         11    1    4    4    0    0  0.54557485003E-02 -0.21038530429E-01 -0.34756094391E-01  0.40995514055E-01  0.51100000000E-03 0.  1.
</event>
<event>
 8    1  0.1161093E+005  0.1043930E+01  0.7957747E-01            NaN
         13   -1    0    0    0    0  0.00000000000E+00  0.00000000000E+00  0.74505805969E-08  0.10566000000E+00  0.10566000000E+00 0. -1.
     999900   -1    0    0    0    0 -0.00000000000E+00 -0.00000000000E+00 -0.74505805969E-08  0.93827000000E+00  0.93827000000E+00 0. -1.
     999902    2    1    2    0    0  0.14573296517E-01 -0.17149837359E-01  0.84097457184E-02  0.10199045611E+01  0.10196215435E+01 0.  0.
     999903    2    3    3    0    0 -0.10295785513E+00  0.60925308106E-01 -0.38580315943E-01  0.12742634518E+00  0.20900228838E-01 0.  0.
         14    1    1    2    0    0 -0.14573296517E-01  0.17149837359E-01 -0.84097457184E-02  0.24025438932E-01  0.00000000000E+00 0. -1.
     999901    1    3    3    0    0  0.11753115165E+00 -0.78075145465E-01  0.46990061661E-01  0.89247821589E+00  0.88000000000E+00 0.  1.
        -11    1    4    4    0    0 -0.71596590641E-01  0.45738192286E-01 -0.17648234041E-01  0.86774277933E-01  0.51100000000E-03 0. -1.
         11    1    4    4    0    0 -0.31361264490E-01  0.15187115820E-01 -0.20932081902E-01  0.40652067242E-01  0.51100000000E-03 0.  1.
</event>
<event>
 8    1  0.1161093E+005  0.1043930E+01  0.7957747E-01            NaN
         13   -1    0    0    0    0  0.00000000000E+00  0.00000000000E+00  0.74505805969E-08  0.10566000000E+00  0.10566000000E+00 0. -1.
     999900   -1    0    0    0    0 -0.00000000000E+00 -0.00000000000E+00 -0.74505805969E-08  0.93827000000E+00  0.93827000000E+00 0. -1.
     999902    2    1    2    0    0 -0.73410207717E-02  0.92222252033E-02  0.21230031339E-01  0.10196472025E+01  0.10193580153E+01 0.  0.
     999903    2    3    3    0    0 -0.67870517526E-01 -0.55808869584E-01 -0.90622427626E-01  0.12812948768E+00  0.21993275119E-01 0.  0.
         14    1    1    2    0    0  0.73410207717E-02 -0.92222252033E-02 -0.21230031339E-01  0.24282797498E-01  0.00000000000E+00 0.  1.
     999901    1    3    3    0    0  0.60529496754E-01  0.65031094787E-01  0.11185245897E+00  0.89151771482E+00  0.88000000000E+00 0.  1.
        -11    1    4    4    0    0 -0.50812467567E-01 -0.32658986790E-01 -0.71461213663E-01  0.93570735049E-01  0.51100000000E-03 0.  1.
         11    1    4    4    0    0 -0.17058049959E-01 -0.23149882794E-01 -0.19161213963E-01  0.34558752629E-01  0.51100000000E-03 0. -1.
</event>
<event>
 8    1  0.1161093E+005  0.1043930E+01  0.7957747E-01            NaN
         13   -1    0    0    0    0  0.00000000000E+00  0.00000000000E+00  0.74505805969E-08  0.10566000000E+00  0.10566000000E+00 0. -1.
     999900   -1    0    0    0    0 -0.00000000000E+00 -0.00000000000E+00 -0.74505805969E-08  0.93827000000E+00  0.93827000000E+00 0. -1.
     999902    2    1    2    0    0 -0.83693960073E-02  0.20291012759E-01 -0.34881590620E-02  0.10217052561E+01  0.10214635045E+01 0.  0.
     999903    2    3    3    0    0  0.77931951720E-01 -0.76509019589E-01 -0.67263543913E-01  0.12991746261E+00  0.20667452047E-01 0.  0.
         14    1    1    2    0    0  0.83693960073E-02 -0.20291012759E-01  0.34881590620E-02  0.22224743912E-01  0.00000000000E+00 0. -1.
     999901    1    3    3    0    0 -0.86301347727E-01  0.96800032348E-01  0.63775384851E-01  0.89178779348E+00  0.88000000000E+00 0.  1.
        -11    1    4    4    0    0  0.59959008039E-01 -0.65364082540E-01 -0.45981784386E-01  0.99910617793E-01  0.51100000000E-03 0. -1.
         11    1    4    4    0    0  0.17972943681E-01 -0.11144937049E-01 -0.21281759527E-01  0.30006844818E-01  0.51100000000E-03 0.  1.
</event>
<event>
 8    1  0.1161093E+005  0.1043930E+01  0.7957747E-01            NaN
         13   -1    0    0    0    0  0.00000000000E+00  0.00000000000E+00  0.74505805969E-08  0.10566000000E+00  0.10566000000E+00 0.  1.
     999900   -1    0    0    0    0 -0.00000000000E+00 -0.00000000000E+00 -0.74505805969E-08  0.93827000000E+00  0.93827000000E+00 0.  1.
     999902    2    1    2    0    0 -0.20561924338E-01  0.15582896425E-01 -0.14614591991E-01  0.10142785971E+01  0.10138450902E+01 0.  0.
     999903    2    3    3    0    0 -0.91468816579E-01  0.87971247562E-01 -0.81478916135E-02  0.12844019258E+00  0.18028037298E-01 0.  0.
         14    1    1    2    0    0  0.20561924338E-01 -0.15582896425E-01  0.14614591991E-01  0.29651402876E-01  0.00000000000E+00 0.  1.
     999901    1    3    3    0    0  0.70906892241E-01 -0.72388351137E-01 -0.64667003774E-02  0.88583840454E+00  0.88000000000E+00 0.  1.
        -11    1    4    4    0    0 -0.42627911364E-01  0.32641819932E-01  0.31095460428E-02  0.53782503041E-01  0.51100000000E-03 0.  1.
         11    1    4    4    0    0 -0.48840905215E-01  0.55329427629E-01 -0.11257437656E-01  0.74657689541E-01  0.51100000000E-03 0. -1.
</event>
<event>
 8    1  0.1161093E+005  0.1043930E+01  0.7957747E-01            NaN
         13   -1    0    0    0    0  0.00000000000E+00  0.00000000000E+00  0.74505805969E-08  0.10566000000E+00  0.10566000000E+00 0. -1.
     999900   -1    0    0    0    0 -0.00000000000E+00 -0.00000000000E+00 -0.74505805969E-08  0.93827000000E+00  0.93827000000E+00 0. -1.
     999902    2    1    2    0    0  0.38345595140E-02  0.20005632958E-01 -0.11299647194E-01  0.10206359831E+01  0.10203701283E+01 0.  0.
     999903    2    3    3    0    0  0.11311133303E+00  0.25683084848E-01 -0.60872866525E-01  0.13247431383E+00  0.19752048971E-01 0.  0.
         14    1    1    2    0    0 -0.38345595140E-02 -0.20005632958E-01  0.11299647194E-01  0.23294016902E-01  0.00000000000E+00 0.  1.
     999901    1    3    3    0    0 -0.10927677351E+00 -0.56774518906E-02  0.49573219330E-01  0.88816166927E+00  0.88000000000E+00 0. -1.
        -11    1    4    4    0    0  0.79198626327E-01  0.17888548456E-01 -0.32066366211E-01  0.87297969856E-01  0.51100000000E-03 0. -1.
         11    1    4    4    0    0  0.33912706699E-01  0.77945363918E-02 -0.28806500313E-01  0.45176343970E-01  0.51100000000E-03 0.  1.
</event>
<event>
 8    1  0.1161093E+005  0.1043930E+01  0.7957747E-01            NaN
         13   -1    0    0    0    0  0.00000000000E+00  0.00000000000E+00  0.74505805969E-08  0.10566000000E+00  0.10566000000E+00 0. -1.
     999900   -1    0    0    0    0 -0.00000000000E+00 -0.00000000000E+00 -0.74505805969E-08  0.93827000000E+00  0.93827000000E+00 0. -1.
     999902    2    1    2    0    0  0.16041785704E-01  0.15662125417E-02  0.15885472530E-01  0.10212994864E+01  0.10210487259E+01 0.  0.
     999903    2    3    3    0    0 -0.92479347237E-01 -0.44989535002E-02  0.90681827973E-01  0.13146348050E+00  0.22063148736E-01 0.  0.
         14    1    1    2    0    0 -0.16041785704E-01 -0.15662125417E-02 -0.15885472530E-01  0.22630513644E-01  0.00000000000E+00 0. -1.
     999901    1    3    3    0    0  0.10852113294E+00  0.60651660418E-02 -0.74796355443E-01  0.88983600586E+00  0.88000000000E+00 0.  1.
        -11    1    4    4    0    0 -0.25228054447E-01  0.75617405937E-02  0.19331622009E-01  0.32674261774E-01  0.51100000000E-03 0. -1.
         11    1    4    4    0    0 -0.67251292790E-01 -0.12060694094E-01  0.71350205964E-01  0.98789218724E-01  0.51100000000E-03 0.  1.
</event>
<event>
 8    1  0.1161093E+005  0.1043930E+01  0.7957747E-01            NaN
         13   -1    0    0    0    0  0.00000000000E+00  0.00000000000E+00  0.74505805969E-08  0.10566000000E+00  0.10566000000E+00 0.  1.
     999900   -1    0    0    0    0 -0.00000000000E+00 -0.00000000000E+00 -0.74505805969E-08  0.93827000000E+00  0.93827000000E+00 0.  1.
     999902    2    1    2    0    0 -0.16849438054E-01 -0.16483724827E-01 -0.14402999863E-02  0.10203145133E+01  0.10200411829E+01 0.  0.
     999903    2    3    3    0    0 -0.10828258138E+00 -0.60921120921E-01 -0.44367311864E-01  0.13342250737E+00  0.19914987020E-01 0.  0.
         14    1    1    2    0    0  0.16849438054E-01  0.16483724827E-01  0.14402999863E-02  0.23615486676E-01  0.00000000000E+00 0.  1.
     999901    1    3    3    0    0  0.91433143322E-01  0.44437396094E-01  0.42927011878E-01  0.88689200595E+00  0.88000000000E+00 0. -1.
        -11    1    4    4    0    0 -0.83392851467E-01 -0.49231595099E-01 -0.42790638816E-01  0.10587453671E+00  0.51100000000E-03 0. -1.
         11    1    4    4    0    0 -0.24889729909E-01 -0.11689525822E-01 -0.15766730479E-02  0.27547970666E-01  0.51100000000E-03 0.  1.
</event>
<event>
 8    1  0.1161093E+005  0.1043930E+01  0.7957747E-01            NaN
         13   -1    0    0    0    0  0.00000000000E+00  0.00000000000E+00  0.74505805969E-08  0.10566000000E+00  0.10566000000E+00 0. -1.
     999900   -1    0    0    0    0 -0.00000000000E+00 -0.00000000000E+00 -0.74505805969E-08  0.93827000000E+00  0.93827000000E+00 0. -1.
     999902    2    1    2    0    0  0.18336863010E-01  0.13052081222E-01  0.83423072655E-02  0.10199260116E+01  0.10196435052E+01 0.  0.
     999903    2    3    3    0    0  0.26842192323E-02  0.23088907661E-01  0.12799089141E+00  0.13163465914E+00  0.20142306549E-01 0.  0.
         14    1    1    2    0    0 -0.18336863010E-01 -0.13052081222E-01 -0.83423072655E-02  0.24003988415E-01  0.00000000000E+00 0.  1.
     999901    1    3    3    0    0  0.15652643778E-01 -0.10036826438E-01 -0.11964858414E+00  0.88829135245E+00  0.88000000000E+00 0. -1.
        -11    1    4    4    0    0 -0.85558088297E-02  0.12806644220E-01  0.69777718033E-01  0.71459100581E-01  0.51100000000E-03 0. -1.
         11    1    4    4    0    0  0.11240028062E-01  0.10282263441E-01  0.58213173377E-01  0.60175558559E-01  0.51100000000E-03 0.  1.
</event>
<event>
 8    1  0.1161093E+005  0.1043930E+01  0.7957747E-01            NaN
         13   -1    0    0    0    0  0.00000000000E+00  0.00000000000E+00  0.74505805969E-08  0.10566000000E+00  0.10566000000E+00 0.  1.
     999900   -1    0    0    0    0 -0.00000000000E+00 -0.00000000000E+00 -0.74505805969E-08  0.93827000000E+00  0.93827000000E+00 0.  1.
     999902    2    1    2    0    0  0.16016758796E-01 -0.51911861266E-02  0.17896306865E-01  0.10193584153E+01  0.10190622238E+01 0.  0.
     999903    2    3    3    0    0 -0.67134367574E-01 -0.68476827492E-01 -0.81115146214E-01  0.12766202634E+00  0.22843528888E-01 0.  0.
         14    1    1    2    0    0 -0.16016758796E-01  0.51911861266E-02 -0.17896306865E-01  0.24571584710E-01  0.00000000000E+00 0. -1.
     999901    1    3    3    0    0  0.83151126370E-01  0.63285641365E-01  0.99011453079E-01  0.89169638895E+00  0.88000000000E+00 0. -1.
        -11    1    4    4    0    0 -0.45469686302E-01 -0.59950758487E-01 -0.63592883495E-01  0.98518535148E-01  0.51100000000E-03 0. -1.
         11    1    4    4    0    0 -0.21664681272E-01 -0.85260690051E-02 -0.17522262719E-01  0.29143491196E-01  0.51100000000E-03 0.  1.
</event>
<event>
 8    1  0.1161093E+005  0.1043930E+01  0.7957747E-01            NaN
         13   -1    0    0    0    0  0.00000000000E+00  0.00000000000E+00  0.74505805969E-08  0.10566000000E+00  0.10566000000E+00 0. -1.
     999900   -1    0    0    0    0 -0.00000000000E+00 -0.00000000000E+00 -0.74505805969E-08  0.93827000000E+00  0.93827000000E+00 0.  1.
     999902    2    1    2    0    0  0.20615019422E-01  0.10425545262E-01  0.22937399241E-02  0.10207150853E+01  0.10204510538E+01 0.  0.
     999903    2    3    3    0    0  0.98011562996E-01  0.69171058166E-01 -0.54969917319E-01  0.13351703153E+00  0.20352005554E-01 0.  0.
         14    1    1    2    0    0 -0.20615019422E-01 -0.10425545262E-01 -0.22937399241E-02  0.23214914659E-01  0.00000000000E+00 0.  1.
     999901    1    3    3    0    0 -0.77396543574E-01 -0.58745512905E-01  0.57263657243E-01  0.88719805381E+00  0.88000000000E+00 0. -1.
        -11    1    4    4    0    0  0.58500220620E-01  0.38712567298E-01 -0.21248892972E-01  0.73298807991E-01  0.51100000000E-03 0.  1.
         11    1    4    4    0    0  0.39511342376E-01  0.30458490868E-01 -0.33721024346E-01  0.60218223540E-01  0.51100000000E-03 0. -1.
</event>
<event>
 8    1  0.1161093E+005  0.1043930E+01  0.7957747E-01            NaN
         13   -1    0    0    0    0  0.00000000000E+00  0.00000000000E+00  0.74505805969E-08  0.10566000000E+00  0.10566000000E+00 0.  1.
     999900   -1    0    0    0    0 -0.00000000000E+00 -0.00000000000E+00 -0.74505805969E-08  0.93827000000E+00  0.93827000000E+00 0.  1.
     999902    2    1    2    0    0 -0.93755353405E-02  0.21591885709E-01 -0.14304760642E-02  0.10203470304E+01  0.10200744610E+01 0.  0.
     999903    2    3    3    0    0  0.38998167737E-01 -0.53434184221E-01 -0.10862681374E+00  0.12935882562E+00  0.23618890184E-01 0.  0.
         14    1    1    2    0    0  0.93755353405E-02 -0.21591885709E-01  0.14304760642E-02  0.23582969558E-01  0.00000000000E+00 0. -1.
     999901    1    3    3    0    0 -0.48373703078E-01  0.75026069930E-01  0.10719633767E+00  0.89098820482E+00  0.88000000000E+00 0. -1.
        -11    1    4    4    0    0  0.42184184840E-01 -0.51004026697E-01 -0.10291772167E+00  0.12236516965E+00  0.51100000000E-03 0.  1.
         11    1    4    4    0    0 -0.31860171022E-02 -0.24301575241E-02 -0.57090920694E-02  0.69936559698E-02  0.51100000000E-03 0. -1.
</event>
<event>
 8    1  0.1161093E+005  0.1043930E+01  0.7957747E-01            NaN
         13   -1    0    0    0    0  0.00000000000E+00  0.00000000000E+00  0.74505805969E-08  0.10566000000E+00  0.10566000000E+00 0.  1.
     999900   -1    0    0    0    0 -0.00000000000E+00 -0.00000000000E+00 -0.74505805969E-08  0.93827000000E+00  0.93827000000E+00 0.  1.
     999902    2    1    2    0    0 -0.11650986941E-01  0.10798539452E-01 -0.17596293564E-01  0.10202238089E+01  0.10199483500E+01 0.  0.
     999903    2    3    3    0    0 -0.12831412478E+00  0.72500843688E-02 -0.25474805482E-01  0.13248232047E+00  0.19634693299E-01 0.  0.
         14    1    1    2    0    0  0.11650986941E-01 -0.10798539452E-01  0.17596293564E-01  0.23706191136E-01  0.00000000000E+00 0.  1.
     999901    1    3    3    0    0  0.11666313784E+00  0.35484550828E-02  0.78785119185E-02  0.88774148839E+00  0.88000000000E+00 0. -1.
        -11    1    4    4    0    0 -0.12821445173E-01 -0.15747139231E-02 -0.83570002394E-02  0.15393821952E-01  0.51100000000E-03 0. -1.
         11    1    4    4    0    0 -0.11549267961E+00  0.88247982919E-02 -0.17117805243E-01  0.11708849852E+00  0.51100000000E-03 0.  1.
</event>
<event>
 8    1  0.1161093E+005  0.1043930E+01  0.7957747E-01            NaN
         13   -1    0    0    0    0  0.00000000000E+00  0.00000000000E+00  0.74505805969E-08  0.10566000000E+00  0.10566000000E+00 0.  1.
     999900   -1    0    0    0    0 -0.00000000000E+00 -0.00000000000E+00 -0.74505805969E-08  0.93827000000E+00  0.93827000000E+00 0. -1.
     999902    2    1    2    0    0  0.98699739715E-02  0.17700709625E-01 -0.13326267250E-01  0.10196746726E+01  0.10193861472E+01 0.  0.
     999903    2    3    3    0    0  0.10741163207E+00  0.55097631365E-01  0.47247890154E-01  0.13142801016E+00  0.21632176181E-01 0.  0.
         14    1    1    2    0    0 -0.98699739715E-02 -0.17700709625E-01  0.13326267250E-01  0.24255327379E-01  0.00000000000E+00 0.  1.
     999901    1    3    3    0    0 -0.97541658096E-01 -0.37396921740E-01 -0.60574157404E-01  0.88824666246E+00  0.88000000000E+00 0. -1.
        -11    1    4    4    0    0  0.60220873888E-01  0.19981805820E-01  0.29577750666E-01  0.70006647336E-01  0.51100000000E-03 0.  1.
         11    1    4    4    0    0  0.47190758180E-01  0.35115825545E-01  0.17670139488E-01  0.61421362829E-01  0.51100000000E-03 0. -1.
</event>
<event>
 8    1  0.1161093E+005  0.1043930E+01  0.7957747E-01            NaN
         13   -1    0    0    0    0  0.00000000000E+00  0.00000000000E+00  0.74505805969E-08  0.10566000000E+00  0.10566000000E+00 0.  1.
     999900   -1    0    0    0    0 -0.00000000000E+00 -0.00000000000E+00 -0.74505805969E-08  0.93827000000E+00  0.93827000000E+00 0.  1.
     999902    2    1    2    0    0  0.14734484451E-01  0.16018529095E-01  0.81424105872E-02  0.10206921611E+01  0.10204276018E+01 0.  0.
     999903    2    3    3    0    0 -0.92400675390E-01  0.73607646493E-01  0.53413022997E-01  0.13117325896E+00  0.19937462391E-01 0.  0.
         14    1    1    2    0    0 -0.14734484451E-01 -0.16018529095E-01 -0.81424105872E-02  0.23237838897E-01  0.00000000000E+00 0. -1.
     999901    1    3    3    0    0  0.10713515984E+00 -0.57589117397E-01 -0.45270612410E-01  0.88951890214E+00  0.88000000000E+00 0.  1.
        -11    1    4    4    0    0 -0.32483248788E-01  0.25478466318E-01  0.84859801395E-02  0.42149575059E-01  0.51100000000E-03 0. -1.
         11    1    4    4    0    0 -0.59917426602E-01  0.48129180174E-01  0.44927042857E-01  0.89023683904E-01  0.51100000000E-03 0.  1.
</event>
<event>
 8    1  0.1161093E+005  0.1043930E+01  0.7957747E-01            NaN
         13   -1    0    0    0    0  0.00000000000E+00  0.00000000000E+00  0.74505805969E-08  0.10566000000E+00  0.10566000000E+00 0.  1.
     999900   -1    0    0    0    0 -0.00000000000E+00 -0.00000000000E+00 -0.74505805969E-08  0.93827000000E+00  0.93827000000E+00 0. -1.
     999902    2    1    2    0    0  0.31284311122E-02  0.45165733833E-02  0.22401333423E-01  0.10208647392E+01  0.10206041395E+01 0.  0.
     999903    2    3    3    0    0 -0.11562364570E+00  0.44415849198E-01  0.40304519295E-01  0.13181213558E+00  0.20208654208E-01 0.  0.
         14    1    1    2    0    0 -0.31284311122E-02 -0.45165733833E-02 -0.22401333423E-01  0.23065260793E-01  0.00000000000E+00 0. -1.
     999901    1    3    3    0    0  0.11875207681E+00 -0.39899275815E-01 -0.17903185873E-01  0.88905260363E+00  0.88000000000E+00 0.  1.
        -11    1    4    4    0    0 -0.76992999985E-01  0.23556676852E-01  0.17744753483E-01  0.82449842135E-01  0.51100000000E-03 0.  1.
         11    1    4    4    0    0 -0.38630645714E-01  0.20859172346E-01  0.22559765813E-01  0.49362293441E-01  0.51100000000E-03 0. -1.
</event>
<event>
 8    1  0.1161093E+005  0.1043930E+01  0.7957747E-01            NaN
         13   -1    0    0    0    0  0.00000000000E+00  0.00000000000E+00  0.74505805969E-08  0.10566000000E+00  0.10566000000E+00 0.  1.
     999900   -1    0    0    0    0 -0.00000000000E+00 -0.00000000000E+00 -0.74505805969E-08  0.93827000000E+00  0.93827000000E+00 0.  1.
     999902    2    1    2    0    0 -0.18639771886E-01 -0.37903582895E-02 -0.11671161590E-01  0.10216135504E+01  0.10213697775E+01 0.  0.
     999903    2    3    3    0    0  0.11586672386E+00  0.33250995336E-01  0.41170586135E-01  0.12905749633E+00  0.20738703099E-01 0.  0.
         14    1    1    2    0    0  0.18639771886E-01  0.37903582895E-02  0.11671161590E-01  0.22316449646E-01  0.00000000000E+00 0.  1.
     999901    1    3    3    0    0 -0.13450649575E+00 -0.37041353626E-01 -0.52841747725E-01  0.89255605403E+00  0.88000000000E+00 0.  1.
        -11    1    4    4    0    0  0.77637100666E-01  0.32196917631E-01  0.27302550129E-01  0.88373362895E-01  0.51100000000E-03 0. -1.
         11    1    4    4    0    0  0.38229623196E-01  0.10540777057E-02  0.13868036006E-01  0.40684133433E-01  0.51100000000E-03 0.  1.
</event>
<event>
 8    1  0.1161093E+005  0.1043930E+01  0.7957747E-01            NaN
         13   -1    0    0    0    0  0.00000000000E+00  0.00000000000E+00  0.74505805969E-08  0.10566000000E+00  0.10566000000E+00 0.  1.
     999900   -1    0    0    0    0 -0.00000000000E+00 -0.00000000000E+00 -0.74505805969E-08  0.93827000000E+00  0.93827000000E+00 0. -1.
     999902    2    1    2    0    0 -0.10054551667E-01  0.12517682094E-02 -0.21170375489E-01  0.10204598971E+01  0.10201899607E+01 0.  0.
     999903    2    3    3    0    0 -0.74144009809E-02  0.27847452705E-01  0.12331612986E+00  0.12827681550E+00  0.20435741889E-01 0.  0.
         14    1    1    2    0    0  0.10054551667E-01 -0.12517682094E-02  0.21170375489E-01  0.23470102923E-01  0.00000000000E+00 0.  1.
     999901    1    3    3    0    0 -0.26401506858E-02 -0.26595684496E-01 -0.14448650535E+00  0.89218308158E+00  0.88000000000E+00 0. -1.
        -11    1    4    4    0    0 -0.58223407602E-02  0.26133215420E-01  0.70626996201E-01  0.75533292749E-01  0.51100000000E-03 0.  1.
         11    1    4    4    0    0 -0.15920602207E-02  0.17142372848E-02  0.52689133659E-01  0.52743522749E-01  0.51100000000E-03 0. -1.
</event>
<event>
 8    1  0.1161093E+005  0.1043930E+01  0.7957747E-01            NaN
         13   -1    0    0    0    0  0.00000000000E+00  0.00000000000E+00  0.74505805969E-08  0.10566000000E+00  0.10566000000E+00 0.  1.
     999900   -1    0    0    0    0 -0.00000000000E+00 -0.00000000000E+00 -0.74505805969E-08  0.93827000000E+00  0.93827000000E+00 0.  1.
     999902    2    1    2    0    0  0.13822836765E-01  0.18025755361E-01  0.67167204531E-02  0.10202421760E+01  0.10199671488E+01 0.  0.
     999903    2    3    3    0    0  0.63835955263E-01  0.10983048145E+00  0.36727917697E-01  0.13354600948E+00  0.18650278005E-01 0.  0.
         14    1    1    2    0    0 -0.13822836765E-01 -0.18025755361E-01 -0.67167204531E-02  0.23687824007E-01  0.00000000000E+00 0.  1.
     999901    1    3    3    0    0 -0.50013118498E-01 -0.91804726086E-01 -0.30011197244E-01  0.88669616652E+00  0.88000000000E+00 0. -1.
        -11    1    4    4    0    0  0.30274619320E-01  0.68139730962E-01  0.16801612126E-01  0.76433832833E-01  0.51100000000E-03 0.  1.
         11    1    4    4    0    0  0.33561335943E-01  0.41690750485E-01  0.19926305572E-01  0.57112176644E-01  0.51100000000E-03 0. -1.
</event>
<event>
 8    1  0.1161093E+005  0.1043930E+01  0.7957747E-01            NaN
         13   -1    0    0    0    0  0.00000000000E+00  0.00000000000E+00  0.74505805969E-08  0.10566000000E+00  0.10566000000E+00 0.  1.
     999900   -1    0    0    0    0 -0.00000000000E+00 -0.00000000000E+00 -0.74505805969E-08  0.93827000000E+00  0.93827000000E+00 0. -1.
     999902    2    1    2    0    0 -0.18210135732E-01  0.12548671943E-02  0.67632117310E-02  0.10244640100E+01  0.10242790552E+01 0.  0.
     999903    2    3    3    0    0 -0.83321176924E-01  0.58089537641E-01 -0.88001021561E-01  0.13516659776E+00  0.14457401089E-01 0.  0.
         14    1    1    2    0    0  0.18210135732E-01 -0.12548671943E-02 -0.67632117310E-02  0.19465990033E-01  0.00000000000E+00 0.  1.
     999901    1    3    3    0    0  0.65111041192E-01 -0.56834670446E-01  0.94764233292E-01  0.88929741221E+00  0.88000000000E+00 0.  1.
        -11    1    4    4    0    0 -0.27916524204E-01  0.12682313657E-01 -0.21802710892E-01  0.37627021229E-01  0.51100000000E-03 0.  1.
         11    1    4    4    0    0 -0.55404652720E-01  0.45407223984E-01 -0.66198310669E-01  0.97539576528E-01  0.51100000000E-03 0. -1.
</event>
<event>
 8    1  0.1161093E+005  0.1043930E+01  0.7957747E-01            NaN
         13   -1    0    0    0    0  0.00000000000E+00  0.00000000000E+00  0.74505805969E-08  0.10566000000E+00  0.10566000000E+00 0. -1.
     999900   -1    0    0    0    0 -0.00000000000E+00 -0.00000000000E+00 -0.74505805969E-08  0.93827000000E+00  0.93827000000E+00 0.  1.
     999902    2    1    2    0    0 -0.15445077373E-01  0.18981382007E-01  0.23660429188E-02  0.10193446093E+01  0.10190480808E+01 0.  0.
     999903    2    3    3    0    0  0.46348136294E-01 -0.88199765169E-01  0.77574444231E-01  0.12751362574E+00  0.17736460702E-01 0.  0.
         14    1    1    2    0    0  0.15445077373E-01 -0.18981382007E-01 -0.23660429188E-02  0.24585390723E-01  0.00000000000E+00 0. -1.
     999901    1    3    3    0    0 -0.61793213666E-01  0.10718114718E+00 -0.75208401313E-01  0.89183098354E+00  0.88000000000E+00 0.  1.
        -11    1    4    4    0    0  0.35569214246E-01 -0.58704132330E-01  0.61820935513E-01  0.92376584389E-01  0.51100000000E-03 0.  1.
         11    1    4    4    0    0  0.10778922048E-01 -0.29495632838E-01  0.15753508718E-01  0.35137041352E-01  0.51100000000E-03 0. -1.
</event>
<event>
 8    1  0.1161093E+005  0.1043930E+01  0.7957747E-01            NaN
         13   -1    0    0    0    0  0.00000000000E+00  0.00000000000E+00  0.74505805969E-08  0.10566000000E+00  0.10566000000E+00 0.  1.
     999900   -1    0    0    0    0 -0.00000000000E+00 -0.00000000000E+00 -0.74505805969E-08  0.93827000000E+00  0.93827000000E+00 0. -1.
     999902    2    1    2    0    0 -0.15152523123E-01 -0.11166136684E-01  0.11902967579E-01  0.10216597911E+01  0.10214170385E+01 0.  0.
     999903    2    3    3    0    0  0.61109636138E-01 -0.11382545332E+00  0.21190391231E-01  0.13236731481E+00  0.19530793515E-01 0.  0.
         14    1    1    2    0    0  0.15152523123E-01  0.11166136684E-01 -0.11902967579E-01  0.22270208859E-01  0.00000000000E+00 0. -1.
     999901    1    3    3    0    0 -0.76262159260E-01  0.10265931664E+00 -0.92874236515E-02  0.88929247633E+00  0.88000000000E+00 0. -1.
        -11    1    4    4    0    0  0.29642293254E-01 -0.64444553883E-01  0.28065131864E-02  0.70992279241E-01  0.51100000000E-03 0. -1.
         11    1    4    4    0    0  0.31467342883E-01 -0.49380899440E-01  0.18383878044E-01  0.61375035565E-01  0.51100000000E-03 0.  1.
</event>
<event>
 8    1  0.1161093E+005  0.1043930E+01  0.7957747E-01            NaN
         13   -1    0    0    0    0  0.00000000000E+00  0.00000000000E+00  0.74505805969E-08  0.10566000000E+00  0.10566000000E+00 0.  1.
     999900   -1    0    0    0    0 -0.00000000000E+00 -0.00000000000E+00 -0.74505805969E-08  0.93827000000E+00  0.93827000000E+00 0.  1.
     999902    2    1    2    0    0 -0.76756029094E-02  0.26366173624E-02  0.29331575099E-01  0.10134963356E+01  0.10130392956E+01 0.  0.
     999903    2    3    3    0    0  0.25356568945E-01 -0.10032378143E+00  0.68979992088E-01  0.12599198909E+00  0.20197160623E-01 0.  0.
         14    1    1    2    0    0  0.76756029094E-02 -0.26366173624E-02 -0.29331575099E-01  0.30433664402E-01  0.00000000000E+00 0. -1.
     999901    1    3    3    0    0 -0.33032171854E-01  0.10296039880E+00 -0.39648416990E-01  0.88750434651E+00  0.88000000000E+00 0.  1.
        -11    1    4    4    0    0  0.20358686461E-01 -0.79546081713E-01  0.63832915035E-01  0.10400460275E+00  0.51100000000E-03 0. -1.
         11    1    4    4    0    0  0.49978824842E-02 -0.20777699720E-01  0.51470770538E-02  0.21987386342E-01  0.51100000000E-03 0.  1.
</event>
<event>
 8    1  0.1161093E+005  0.1043930E+01  0.7957747E-01            NaN
         13   -1    0    0    0    0  0.00000000000E+00  0.00000000000E+00  0.74505805969E-08  0.10566000000E+00  0.10566000000E+00 0. -1.
     999900   -1    0    0    0    0 -0.00000000000E+00 -0.00000000000E+00 -0.74505805969E-08  0.93827000000E+00  0.93827000000E+00 0.  1.
     999902    2    1    2    0    0 -0.18963263388E-01  0.25502300308E-02  0.16268665137E-01  0.10188146960E+01  0.10185050840E+01 0.  0.
     999903    2    3    3    0    0 -0.97165032535E-02  0.12300491144E+00 -0.34416673365E-01  0.12911596247E+00  0.16180410472E-01 0.  0.
         14    1    1    2    0    0  0.18963263388E-01 -0.25502300308E-02 -0.16268665137E-01  0.25115304037E-01  0.00000000000E+00 0.  1.
     999901    1    3    3    0    0 -0.92467601344E-02 -0.12045468141E+00  0.50685338502E-01  0.88969873350E+00  0.88000000000E+00 0. -1.
        -11    1    4    4    0    0  0.16594050799E-03  0.36723214831E-01 -0.17301151941E-01  0.40598189901E-01  0.51100000000E-03 0.  1.
         11    1    4    4    0    0 -0.98824437615E-02  0.86281696614E-01 -0.17115521425E-01  0.88517772565E-01  0.51100000000E-03 0. -1.
</event>
<event>
 8    1  0.1161093E+005  0.1043930E+01  0.7957747E-01            NaN
         13   -1    0    0    0    0  0.00000000000E+00  0.00000000000E+00  0.74505805969E-08  0.10566000000E+00  0.10566000000E+00 0.  1.
     999900   -1    0    0    0    0 -0.00000000000E+00 -0.00000000000E+00 -0.74505805969E-08  0.93827000000E+00  0.93827000000E+00 0. -1.
     999902    2    1    2    0    0  0.13812627791E-02 -0.22119238157E-01  0.11075819242E-01  0.10191541578E+01  0.10188529605E+01 0.  0.
     999903    2    3    3    0    0  0.82375287978E-01  0.89997716739E-01 -0.30712220505E-01  0.12737140179E+00  0.19873510478E-01 0.  0.
         14    1    1    2    0    0 -0.13812627791E-02  0.22119238157E-01 -0.11075819242E-01  0.24775842173E-01  0.00000000000E+00 0.  1.
     999901    1    3    3    0    0 -0.80994025199E-01 -0.11211695490E+00  0.41788039747E-01  0.89178275603E+00  0.88000000000E+00 0. -1.
        -11    1    4    4    0    0  0.76191160317E-01  0.88798831896E-01 -0.27145250554E-01  0.12011432556E+00  0.51100000000E-03 0. -1.
         11    1    4    4    0    0  0.61841276610E-02  0.11988848430E-02 -0.35669699511E-02  0.72570762312E-02  0.51100000000E-03 0.  1.
</event>
<event>
 8    1  0.1161093E+005  0.1043930E+01  0.7957747E-01            NaN
         13   -1    0    0    0    0  0.00000000000E+00  0.00000000000E+00  0.74505805969E-08  0.10566000000E+00  0.10566000000E+00 0. -1.
     999900   -1    0    0    0    0 -0.00000000000E+00 -0.00000000000E+00 -0.74505805969E-08  0.93827000000E+00  0.93827000000E+00 0.  1.
     999902    2    1    2    0    0 -0.21472300392E-01 -0.97531611378E-02 -0.37791240782E-02  0.10200455780E+01  0.10197659121E+01 0.  0.
     999903    2    3    3    0    0 -0.10131909793E+00  0.70469554792E-01  0.42383736915E-01  0.13159625193E+00  0.17019829911E-01 0.  0.
         14    1    1    2    0    0  0.21472300392E-01  0.97531611378E-02  0.37791240782E-02  0.23884422017E-01  0.00000000000E+00 0.  1.
     999901    1    3    3    0    0  0.79846797534E-01 -0.80222715930E-01 -0.46162860993E-01  0.88844932605E+00  0.88000000000E+00 0. -1.
        -11    1    4    4    0    0 -0.39948716799E-01  0.36775025971E-01  0.22818157074E-01  0.58900186097E-01  0.51100000000E-03 0. -1.
         11    1    4    4    0    0 -0.61370381127E-01  0.33694528822E-01  0.19565579841E-01  0.72696065833E-01  0.51100000000E-03 0.  1.
</event>
<event>
 8    1  0.1161093E+005  0.1043930E+01  0.7957747E-01            NaN
         13   -1    0    0    0    0  0.00000000000E+00  0.00000000000E+00  0.74505805969E-08  0.10566000000E+00  0.10566000000E+00 0.  1.
     999900   -1    0    0    0    0 -0.00000000000E+00 -0.00000000000E+00 -0.74505805969E-08  0.93827000000E+00  0.93827000000E+00 0.  1.
     999902    2    1    2    0    0  0.78726344250E-02  0.29526490649E-01  0.39766952716E-02  0.10131143201E+01  0.10126455547E+01 0.  0.
     999903    2    3    3    0    0 -0.37256274547E-02 -0.56673504570E-01  0.10707875287E+00  0.12283627749E+00  0.19928003701E-01 0.  0.
         14    1    1    2    0    0 -0.78726344250E-02 -0.29526490649E-01 -0.39766952716E-02  0.30815679906E-01  0.00000000000E+00 0.  1.
     999901    1    3    3    0    0  0.11598261880E-01  0.86199995219E-01 -0.10310205760E+00  0.89027804260E+00  0.88000000000E+00 0.  1.
        -11    1    4    4    0    0 -0.20381010218E-02 -0.16886853412E-01  0.15688394479E-01  0.23145334654E-01  0.51100000000E-03 0.  1.
         11    1    4    4    0    0 -0.16875264329E-02 -0.39786651159E-01  0.91390358394E-01  0.99690942839E-01  0.51100000000E-03 0. -1.
</event>
<event>
 8    1  0.1161093E+005  0.1043930E+01  0.7957747E-01            NaN
         13   -1    0    0    0    0  0.00000000000E+00  0.00000000000E+00  0.74505805969E-08  0.10566000000E+00  0.10566000000E+00 0.  1.
     999900   -1    0    0    0    0 -0.00000000000E+00 -0.00000000000E+00 -0.74505805969E-08  0.93827000000E+00  0.93827000000E+00 0.  1.
     999902    2    1    2    0    0  0.56474426482E-02  0.14622675022E-01  0.16268497665E-01  0.10213384031E+01  0.10210885140E+01 0.  0.
     999903    2    3    3    0    0 -0.10586340209E+00  0.47932338269E-02  0.76609096923E-01  0.13219709021E+00  0.19418597669E-01 0.  0.
         14    1    1    2    0    0 -0.56474426482E-02 -0.14622675022E-01 -0.16268497665E-01  0.22591596879E-01  0.00000000000E+00 0. -1.
     999901    1    3    3    0    0  0.11151084474E+00  0.98294411951E-02 -0.60340599258E-01  0.88914131291E+00  0.88000000000E+00 0.  1.
        -11    1    4    4    0    0 -0.21733355765E-01 -0.14278926836E-02  0.71781008244E-02  0.22938262418E-01  0.51100000000E-03 0. -1.
         11    1    4    4    0    0 -0.84130046327E-01  0.62211265105E-02  0.69430996099E-01  0.10925882779E+00  0.51100000000E-03 0.  1.
</event>
<event>
 8    1  0.1161093E+005  0.1043930E+01  0.7957747E-01            NaN
         13   -1    0    0    0    0  0.00000000000E+00  0.00000000000E+00  0.74505805969E-08  0.10566000000E+00  0.10566000000E+00 0. -1.
     999900   -1    0    0    0    0 -0.00000000000E+00 -0.00000000000E+00 -0.74505805969E-08  0.93827000000E+00  0.93827000000E+00 0. -1.
     999902    2    1    2    0    0  0.96237578669E-02  0.23623978402E-02 -0.15177511245E-01  0.10258039280E+01  0.10256437706E+01 0.  0.
     999903    2    3    3    0    0  0.91125911123E-02 -0.14746959835E-02 -0.13576684951E+00  0.13757154112E+00  0.20200927100E-01 0.  0.
         14    1    1    2    0    0 -0.96237578669E-02 -0.23623978402E-02  0.15177511245E-01  0.18126072013E-01  0.00000000000E+00 0. -1.
     999901    1    3    3    0    0  0.51116675455E-03  0.38370938236E-02  0.12058933826E+00  0.88823238687E+00  0.88000000000E+00 0.  1.
        -11    1    4    4    0    0  0.40101859356E-02  0.83280865395E-02 -0.90507489639E-01  0.90979697837E-01  0.51100000000E-03 0. -1.
         11    1    4    4    0    0  0.51024051767E-02 -0.98027825229E-02 -0.45259359867E-01  0.46591843281E-01  0.51100000000E-03 0.  1.
</event>
<event>
 8    1  0.1161093E+005  0.1043930E+01  0.7957747E-01            NaN
         13   -1    0    0    0    0  0.00000000000E+00  0.00000000000E+00  0.74505805969E-08  0.10566000000E+00  0.10566000000E+00 0. -1.
     999900   -1    0    0    0    0 -0.00000000000E+00 -0.00000000000E+00 -0.74505805969E-08  0.93827000000E+00  0.93827000000E+00 0.  1.
     999902    2    1    2    0    0  0.59501557605E-02 -0.60914442647E-02 -0.22324588452E-01  0.10200365428E+01  0.10197566628E+01 0.  0.
     999903    2    3    3    0    0  0.83841608311E-02 -0.16519730963E-01  0.12529113821E+00  0.12767726746E+00  0.16137523005E-01 0.  0.
         14    1    1    2    0    0 -0.59501557605E-02  0.60914442647E-02  0.22324588452E-01  0.23893457187E-01  0.00000000000E+00 0. -1.
     999901    1    3    3    0    0 -0.24340050707E-02  0.10428286699E-01 -0.14761572666E+00  0.89235927535E+00  0.88000000000E+00 0.  1.
        -11    1    4    4    0    0  0.20536052633E-02 -0.13880193348E-01  0.11022289753E+00  0.11111356948E+00  0.51100000000E-03 0.  1.
         11    1    4    4    0    0  0.63305555678E-02 -0.26395376157E-02  0.15068240681E-01  0.16563697982E-01  0.51100000000E-03 0. -1.
</event>
<event>
 8    1  0.1161093E+005  0.1043930E+01  0.7957747E-01            NaN
         13   -1    0    0    0    0  0.00000000000E+00  0.00000000000E+00  0.74505805969E-08  0.10566000000E+00  0.10566000000E+00 0.  1.
     999900   -1    0    0    0    0 -0.00000000000E+00 -0.00000000000E+00 -0.74505805969E-08  0.93827000000E+00  0.93827000000E+00 0. -1.
     999902    2    1    2    0    0  0.12327109980E-01 -0.18384652167E-01 -0.53353519539E-02  0.10211611824E+01  0.10209073128E+01 0.  0.
     999903    2    3    3    0    0  0.11389112764E-02 -0.11151076259E+00  0.70629931684E-01  0.13292226600E+00  0.15613912319E-01 0.  0.
         14    1    1    2    0    0 -0.12327109980E-01  0.18384652167E-01  0.53353519539E-02  0.22768817629E-01  0.00000000000E+00 0.  1.
     999901    1    3    3    0    0  0.11188198704E-01  0.93126110421E-01 -0.75965283638E-01  0.88823891637E+00  0.88000000000E+00 0. -1.
        -11    1    4    4    0    0 -0.63177638791E-02 -0.71231040771E-01  0.47892114920E-01  0.86067944684E-01  0.51100000000E-03 0.  1.
         11    1    4    4    0    0  0.74566751555E-02 -0.40279721817E-01  0.22737816764E-01  0.46854321319E-01  0.51100000000E-03 0. -1.
</event>
<event>
 8    1  0.1161093E+005  0.1043930E+01  0.7957747E-01            NaN
         13   -1    0    0    0    0  0.00000000000E+00  0.00000000000E+00  0.74505805969E-08  0.10566000000E+00  0.10566000000E+00 0.  1.
     999900   -1    0    0    0    0 -0.00000000000E+00 -0.00000000000E+00 -0.74505805969E-08  0.93827000000E+00  0.93827000000E+00 0.  1.
     999902    2    1    2    0    0  0.18746050944E-01 -0.13712346951E-01  0.78955721051E-03  0.10206906737E+01  0.10204260802E+01 0.  0.
     999903    2    3    3    0    0  0.30696142171E-01  0.35022163279E-01  0.12088775658E+00  0.13111693611E+00  0.20223653986E-01 0.  0.
         14    1    1    2    0    0 -0.18746050944E-01  0.13712346951E-01 -0.78955721051E-03  0.23239326270E-01  0.00000000000E+00 0.  1.
     999901    1    3    3    0    0 -0.11950091227E-01 -0.48734510230E-01 -0.12009819937E+00  0.88957373762E+00  0.88000000000E+00 0.  1.
        -11    1    4    4    0    0  0.28197796225E-01  0.29756266084E-01  0.80816043886E-01  0.90620335210E-01  0.51100000000E-03 0.  1.
         11    1    4    4    0    0  0.24983459463E-02  0.52658971955E-02  0.40071712690E-01  0.40496600902E-01  0.51100000000E-03 0. -1.
</event>
<event>
 8    1  0.1161093E+005  0.1043930E+01  0.7957747E-01            NaN
         13   -1    0    0    0    0  0.00000000000E+00  0.00000000000E+00  0.74505805969E-08  0.10566000000E+00  0.10566000000E+00 0. -1.
     999900   -1    0    0    0    0 -0.00000000000E+00 -0.00000000000E+00 -0.74505805969E-08  0.93827000000E+00  0.93827000000E+00 0.  1.
     999902    2    1    2    0    0  0.11973765187E-01  0.21436800179E-01  0.61772833156E-02  0.10186107132E+01  0.10182959878E+01 0.  0.
     999903    2    3    3    0    0 -0.45056656409E-01 -0.78706698422E-01 -0.86137737506E-01  0.12630849289E+00  0.17586326830E-01 0.  0.
         14    1    1    2    0    0 -0.11973765187E-01 -0.21436800179E-01 -0.61772833156E-02  0.25319286796E-01  0.00000000000E+00 0.  1.
     999901    1    3    3    0    0  0.57030421597E-01  0.10014349860E+00  0.92315020821E-01  0.89230222031E+00  0.88000000000E+00 0. -1.
        -11    1    4    4    0    0 -0.36465569087E-01 -0.46827184689E-01 -0.54625569491E-01  0.80664347255E-01  0.51100000000E-03 0. -1.
         11    1    4    4    0    0 -0.85910873220E-02 -0.31879513733E-01 -0.31512168014E-01  0.45644145640E-01  0.51100000000E-03 0.  1.
</event>
<event>
 8    1  0.1161093E+005  0.1043930E+01  0.7957747E-01            NaN
         13   -1    0    0    0    0  0.00000000000E+00  0.00000000000E+00  0.74505805969E-08  0.10566000000E+00  0.10566000000E+00 0. -1.
     999900   -1    0    0    0    0 -0.00000000000E+00 -0.00000000000E+00 -0.74505805969E-08  0.93827000000E+00  0.93827000000E+00 0. -1.
     999902    2    1    2    0    0 -0.71376918413E-02  0.20438006481E-01 -0.97356592966E-02  0.10201930706E+01  0.10199168886E+01 0.  0.
     999903    2    3    3    0    0 -0.78090952938E-01 -0.40388274245E-01  0.92778441955E-01  0.12932644614E+00  0.19699765272E-01 0.  0.
         14    1    1    2    0    0  0.71376918413E-02 -0.20438006481E-01  0.97356592966E-02  0.23736929365E-01  0.00000000000E+00 0. -1.
     999901    1    3    3    0    0  0.70953261097E-01  0.60826280726E-01 -0.10251410125E+00  0.89086662450E+00  0.88000000000E+00 0. -1.
        -11    1    4    4    0    0 -0.26828892691E-01 -0.24610602356E-01  0.35433683423E-01  0.50806281829E-01  0.51100000000E-03 0.  1.
         11    1    4    4    0    0 -0.51262060247E-01 -0.15777671889E-01  0.57344758532E-01  0.78520164309E-01  0.51100000000E-03 0. -1.
</event>
<event>
 8    1  0.1161093E+005  0.1043930E+01  0.7957747E-01            NaN
         13   -1    0    0    0    0  0.00000000000E+00  0.00000000000E+00  0.74505805969E-08  0.10566000000E+00  0.10566000000E+00 0.  1.
     999900   -1    0    0    0    0 -0.00000000000E+00 -0.00000000000E+00 -0.74505805969E-08  0.93827000000E+00  0.93827000000E+00 0.  1.
     999902    2    1    2    0    0 -0.21714724890E-01 -0.92414672554E-02 -0.47470887246E-02  0.10198578409E+01  0.10195737083E+01 0.  0.
     999903    2    3    3    0    0  0.61988195129E-01  0.59872954948E-01 -0.92499628070E-01  0.12885644337E+00  0.24909731738E-01 0.  0.
         14    1    1    2    0    0  0.21714724890E-01  0.92414672554E-02  0.47470887246E-02  0.24072159135E-01  0.00000000000E+00 0.  1.
     999901    1    3    3    0    0 -0.83702920019E-01 -0.69114422203E-01  0.87752539346E-01  0.89100139749E+00  0.88000000000E+00 0. -1.
        -11    1    4    4    0    0  0.23439548489E-01  0.21956174085E-01 -0.52691429360E-01  0.61710079102E-01  0.51100000000E-03 0.  1.
         11    1    4    4    0    0  0.38548646640E-01  0.37916780863E-01 -0.39808198710E-01  0.67146364268E-01  0.51100000000E-03 0. -1.
</event>
<event>
 8    1  0.1161093E+005  0.1043930E+01  0.7957747E-01            NaN
         13   -1    0    0    0    0  0.00000000000E+00  0.00000000000E+00  0.74505805969E-08  0.10566000000E+00  0.10566000000E+00 0. -1.
     999900   -1    0    0    0    0 -0.00000000000E+00 -0.00000000000E+00 -0.74505805969E-08  0.93827000000E+00  0.93827000000E+00 0. -1.
     999902    2    1    2    0    0  0.70276238179E-02 -0.22674298826E-01 -0.39727278237E-02  0.10198614751E+01  0.10195774294E+01 0.  0.
     999903    2    3    3    0    0 -0.87888732070E-01 -0.93402522627E-01 -0.22274774786E-01  0.13174742772E+00  0.20316462812E-01 0.  0.
         14    1    1    2    0    0 -0.70276238179E-02  0.22674298826E-01  0.39727278237E-02  0.24068524885E-01  0.00000000000E+00 0. -1.
     999901    1    3    3    0    0  0.94916355888E-01  0.70728223801E-01  0.18302046962E-01  0.88811404739E+00  0.88000000000E+00 0. -1.
        -11    1    4    4    0    0 -0.72052605947E-01 -0.67610028922E-01 -0.23075609484E-01  0.10146644228E+00  0.51100000000E-03 0. -1.
         11    1    4    4    0    0 -0.15836126123E-01 -0.25792493705E-01  0.80083469858E-03  0.30280985442E-01  0.51100000000E-03 0.  1.
</event>
<event>
 8    1  0.1161093E+005  0.1043930E+01  0.7957747E-01            NaN
         13   -1    0    0    0    0  0.00000000000E+00  0.00000000000E+00  0.74505805969E-08  0.10566000000E+00  0.10566000000E+00 0.  1.
     999900   -1    0    0    0    0 -0.00000000000E+00 -0.00000000000E+00 -0.74505805969E-08  0.93827000000E+00  0.93827000000E+00 0.  1.
     999902    2    1    2    0    0  0.77863161299E-02 -0.64037234274E-02  0.22204264171E-01  0.10195442718E+01  0.10192525979E+01 0.  0.
     999903    2    3    3    0    0  0.20173664957E-01  0.11342927933E+00 -0.52577467041E-01  0.12819377828E+00  0.19901672859E-01 0.  0.
         14    1    1    2    0    0 -0.77863161299E-02  0.64037234274E-02 -0.22204264171E-01  0.24385728203E-01  0.00000000000E+00 0. -1.
     999901    1    3    3    0    0 -0.12387348827E-01 -0.11983300276E+00  0.74781731212E-01  0.89135049351E+00  0.88000000000E+00 0.  1.
        -11    1    4    4    0    0  0.30566174822E-02  0.40044457873E-01 -0.27884215546E-01  0.48894704359E-01  0.51100000000E-03 0.  1.
         11    1    4    4    0    0  0.17117047474E-01  0.73384821461E-01 -0.24693251495E-01  0.79299073926E-01  0.51100000000E-03 0. -1.
</event>
<event>
 8    1  0.1161093E+005  0.1043930E+01  0.7957747E-01            NaN
         13   -1    0    0    0    0  0.00000000000E+00  0.00000000000E+00  0.74505805969E-08  0.10566000000E+00  0.10566000000E+00 0.  1.
     999900   -1    0    0    0    0 -0.00000000000E+00 -0.00000000000E+00 -0.74505805969E-08  0.93827000000E+00  0.93827000000E+00 0. -1.
     999902    2    1    2    0    0  0.15300606204E-01  0.31756090369E-02  0.16199645889E-01  0.10214217444E+01  0.10211737161E+01 0.  0.
     999903    2    3    3    0    0 -0.96801833778E-02 -0.11343597849E+00  0.63850498365E-01  0.13210014569E+00  0.20301112920E-01 0.  0.
         14    1    1    2    0    0 -0.15300606204E-01 -0.31756090369E-02 -0.16199645889E-01  0.22508255594E-01  0.00000000000E+00 0. -1.
     999901    1    3    3    0    0  0.24980789581E-01  0.11661158752E+00 -0.47650852477E-01  0.88932159871E+00  0.88000000000E+00 0.  1.
        -11    1    4    4    0    0 -0.19616504500E-02 -0.68415026122E-01  0.48586614905E-01  0.83936786576E-01  0.51100000000E-03 0. -1.
         11    1    4    4    0    0 -0.77185329278E-02 -0.45020952365E-01  0.15263883460E-01  0.48163359119E-01  0.51100000000E-03 0.  1.
</event>
<event>
 8    1  0.1161093E+005  0.1043930E+01  0.7957747E-01            NaN
         13   -1    0    0    0    0  0.00000000000E+00  0.00000000000E+00  0.74505805969E-08  0.10566000000E+00  0.10566000000E+00 0. -1.
     999900   -1    0    0    0    0 -0.00000000000E+00 -0.00000000000E+00 -0.74505805969E-08  0.93827000000E+00  0.93827000000E+00 0. -1.
     999902    2    1    2    0    0  0.13835637431E-01  0.17829693173E-01  0.74376594188E-02  0.10201678116E+01  0.10198910344E+01 0.  0.
     999903    2    3    3    0    0  0.51974966747E-01 -0.16606394519E-01 -0.11633231993E+00  0.13002205925E+00  0.19883604387E-01 0.  0.
         14    1    1    2    0    0 -0.13835637431E-01 -0.17829693173E-01 -0.74376594188E-02  0.23762188439E-01  0.00000000000E+00 0. -1.
     999901    1    3    3    0    0 -0.38139329316E-01  0.34436087692E-01  0.12376997935E+00  0.89014575231E+00  0.88000000000E+00 0.  1.
        -11    1    4    4    0    0  0.20012390368E-01 -0.10127472700E-01 -0.28121101454E-01  0.35973864673E-01  0.51100000000E-03 0. -1.
         11    1    4    4    0    0  0.31962576379E-01 -0.64789218193E-02 -0.88211218475E-01  0.94048194574E-01  0.51100000000E-03 0.  1.
</event>
<event>
 8    1  0.1161093E+005  0.1043930E+01  0.7957747E-01            NaN
         13   -1    0    0    0    0  0.00000000000E+00  0.00000000000E+00  0.74505805969E-08  0.10566000000E+00  0.10566000000E+00 0.  1.
     999900   -1    0    0    0    0 -0.00000000000E+00 -0.00000000000E+00 -0.74505805969E-08  0.93827000000E+00  0.93827000000E+00 0.  1.
     999902    2    1    2    0    0  0.20910281541E-01 -0.10803001935E-01  0.12966429482E-02  0.10203582795E+01  0.10200859731E+01 0.  0.
     999903    2    3    3    0    0  0.15396762085E-01 -0.11154145134E+00 -0.65960449716E-01  0.13204406110E+00  0.20156822518E-01 0.  0.
         14    1    1    2    0    0 -0.20910281541E-01  0.10803001935E-01 -0.12966429482E-02  0.23571720511E-01  0.00000000000E+00 0. -1.
     999901    1    3    3    0    0  0.55135194560E-02  0.10073844941E+00  0.67257092664E-01  0.88831421839E+00  0.88000000000E+00 0.  1.
        -11    1    4    4    0    0  0.35392733619E-02 -0.77099323064E-01 -0.51828848316E-01  0.92969471934E-01  0.51100000000E-03 0.  1.
         11    1    4    4    0    0  0.11857488723E-01 -0.34442128276E-01 -0.14131601399E-01  0.39074589161E-01  0.51100000000E-03 0. -1.
</event>
<event>
 8    1  0.1161093E+005  0.1043930E+01  0.7957747E-01            NaN
         13   -1    0    0    0    0  0.00000000000E+00  0.00000000000E+00  0.74505805969E-08  0.10566000000E+00  0.10566000000E+00 0.  1.
     999900   -1    0    0    0    0 -0.00000000000E+00 -0.00000000000E+00 -0.74505805969E-08  0.93827000000E+00  0.93827000000E+00 0. -1.
     999902    2    1    2    0    0 -0.15224752307E-01  0.11730715280E-02  0.17372611707E-01  0.10208004341E+01  0.10205383626E+01 0.  0.
     999903    2    3    3    0    0 -0.35674754021E-01  0.92858835191E-01 -0.81665245702E-01  0.13027644286E+00  0.20181374135E-01 0.  0.
         14    1    1    2    0    0  0.15224752307E-01 -0.11730715280E-02 -0.17372611707E-01  0.23129565866E-01  0.00000000000E+00 0. -1.
     999901    1    3    3    0    0  0.20450001714E-01 -0.91685763663E-01  0.99037857409E-01  0.89052399127E+00  0.88000000000E+00 0.  1.
        -11    1    4    4    0    0 -0.99406792644E-02  0.49741150491E-01 -0.47865057096E-01  0.69744705665E-01  0.51100000000E-03 0. -1.
         11    1    4    4    0    0 -0.25734074757E-01  0.43117684700E-01 -0.33800188605E-01  0.60531737198E-01  0.51100000000E-03 0.  1.
</event>
<event>
 8    1  0.1161093E+005  0.1043930E+01  0.7957747E-01            NaN
         13   -1    0    0    0    0  0.00000000000E+00  0.00000000000E+00  0.74505805969E-08  0.10566000000E+00  0.10566000000E+00 0.  1.
     999900   -1    0    0    0    0 -0.00000000000E+00 -0.00000000000E+00 -0.74505805969E-08  0.93827000000E+00  0.93827000000E+00 0. -1.
     999902    2    1    2    0    0  0.17469844026E-01 -0.93057236877E-02 -0.12210710412E-01  0.10206728851E+01  0.10204078817E+01 0.  0.
     999903    2    3    3    0    0 -0.42880827441E-01 -0.12051402538E+00 -0.38800701926E-03  0.13154451069E+00  0.30682439063E-01 0.  0.
         14    1    1    2    0    0 -0.17469844026E-01  0.93057236877E-02  0.12210710412E-01  0.23257114877E-01  0.00000000000E+00 0.  1.
     999901    1    3    3    0    0  0.60350671467E-01  0.11120830169E+00 -0.11822703393E-01  0.88912837444E+00  0.88000000000E+00 0.  1.
        -11    1    4    4    0    0 -0.19645290223E-01 -0.83549641715E-01 -0.11212773498E-01  0.86559040367E-01  0.51100000000E-03 0. -1.
         11    1    4    4    0    0 -0.23235537218E-01 -0.36964383666E-01  0.10824766479E-01  0.44985470321E-01  0.51100000000E-03 0.  1.
</event>
<event>
 8    1  0.1161093E+005  0.1043930E+01  0.7957747E-01            NaN
         13   -1    0    0    0    0  0.00000000000E+00  0.00000000000E+00  0.74505805969E-08  0.10566000000E+00  0.10566000000E+00 0. -1.
     999900   -1    0    0    0    0 -0.00000000000E+00 -0.00000000000E+00 -0.74505805969E-08  0.93827000000E+00  0.93827000000E+00 0.  1.
     999902    2    1    2    0    0  0.13456753500E-01 -0.18497707758E-01 -0.38170694034E-02  0.10207390659E+01  0.10204755858E+01 0.  0.
     999903    2    3    3    0    0  0.22434965261E-01 -0.86433747840E-01 -0.96711466806E-01  0.13320017495E+00  0.20372981187E-01 0.  0.
         14    1    1    2    0    0 -0.13456753500E-01  0.18497707758E-01  0.38170694034E-02  0.23190934131E-01  0.00000000000E+00 0.  1.
     999901    1    3    3    0    0 -0.89782117615E-02  0.67936040083E-01  0.92894397402E-01  0.88753889092E+00  0.88000000000E+00 0.  1.
        -11    1    4    4    0    0  0.14129552269E-01 -0.20178915025E-01 -0.29836854875E-01  0.38695372963E-01  0.51100000000E-03 0. -1.
         11    1    4    4    0    0  0.83054129927E-02 -0.66254832816E-01 -0.66874611931E-01  0.94504801985E-01  0.51100000000E-03 0.  1.
</event>
<event>
 8    1  0.1161093E+005  0.1043930E+01  0.7957747E-01            NaN
         13   -1    0    0    0    0  0.00000000000E+00  0.00000000000E+00  0.74505805969E-08  0.10566000000E+00  0.10566000000E+00 0.  1.
     999900   -1    0    0    0    0 -0.00000000000E+00 -0.00000000000E+00 -0.74505805969E-08  0.93827000000E+00  0.93827000000E+00 0. -1.
     999902    2    1    2    0    0 -0.10257011089E-01 -0.97843752446E-02 -0.10092933068E-01  0.10265286330E+01  0.10263811314E+01 0.  0.
     999903    2    3    3    0    0  0.37998863223E-01  0.12471048862E+00 -0.24358987842E-01  0.13488912169E+00  0.24598684611E-01 0.  0.
         14    1    1    2    0    0  0.10257011089E-01  0.97843752446E-02  0.10092933068E-01  0.17401366996E-01  0.00000000000E+00 0.  1.
     999901    1    3    3    0    0 -0.48255874312E-01 -0.13449486386E+00  0.14266054774E-01  0.89163951131E+00  0.88000000000E+00 0. -1.
        -11    1    4    4    0    0  0.24722179639E-01  0.45651772539E-01 -0.34132198008E-02  0.52030584203E-01  0.51100000000E-03 0. -1.
         11    1    4    4    0    0  0.13276683584E-01  0.79058716080E-01 -0.20945768042E-01  0.82858537491E-01  0.51100000000E-03 0.  1.
</event>
<event>
 8    1  0.1161093E+005  0.1043930E+01  0.7957747E-01            NaN
         13   -1    0    0    0    0  0.00000000000E+00  0.00000000000E+00  0.74505805969E-08  0.10566000000E+00  0.10566000000E+00 0.  1.
     999900   -1    0    0    0    0 -0.00000000000E+00 -0.00000000000E+00 -0.74505805969E-08  0.93827000000E+00  0.93827000000E+00 0.  1.
     999902    2    1    2    0    0 -0.64324590649E-02 -0.46023062214E-03 -0.21504527149E-01  0.10214793201E+01  0.10212325731E+01 0.  0.
     999903    2    3    3    0    0 -0.76186315189E-01 -0.96944157279E-01  0.40467600907E-01  0.13130220667E+00  0.20002962297E-01 0.  0.
         14    1    1    2    0    0  0.64324590649E-02  0.46023062214E-03  0.21504527149E-01  0.22450679939E-01  0.00000000000E+00 0.  1.
     999901    1    3    3    0    0  0.69753856124E-01  0.96483926657E-01 -0.61972128056E-01  0.89017711339E+00  0.88000000000E+00 0.  1.
        -11    1    4    4    0    0 -0.28480706496E-02 -0.78492089359E-02 -0.15210287940E-02  0.85027193848E-02  0.51100000000E-03 0. -1.
         11    1    4    4    0    0 -0.73338244540E-01 -0.89094948344E-01  0.41988629701E-01  0.12279948729E+00  0.51100000000E-03 0.  1.
</event>
<event>
 8    1  0.1161093E+005  0.1043930E+01  0.7957747E-01            NaN
         13   -1    0    0    0    0  0.00000000000E+00  0.00000000000E+00  0.74505805969E-08  0.10566000000E+00  0.10566000000E+00 0.  1.
     999900   -1    0    0    0    0 -0.00000000000E+00 -0.00000000000E+00 -0.74505805969E-08  0.93827000000E+00  0.93827000000E+00 0. -1.
     999902    2    1    2    0    0 -0.71775179226E-02 -0.14280745800E-02 -0.22475747181E-01  0.10202928392E+01  0.10200190010E+01 0.  0.
     999903    2    3    3    0    0  0.19471217745E-02  0.11127530083E+00 -0.67895177007E-01  0.13189639924E+00  0.20023017135E-01 0.  0.
         14    1    1    2    0    0  0.71775179226E-02  0.14280745800E-02  0.22475747181E-01  0.23637160825E-01  0.00000000000E+00 0.  1.
     999901    1    3    3    0    0 -0.91246396972E-02 -0.11270337541E+00  0.45419429826E-01  0.88839643993E+00  0.88000000000E+00 0.  1.
        -11    1    4    4    0    0  0.65297120628E-02  0.31514710546E-01 -0.11828531647E-01  0.34292701881E-01  0.51100000000E-03 0. -1.
         11    1    4    4    0    0 -0.45825902883E-02  0.79760590281E-01 -0.56066645360E-01  0.97603697362E-01  0.51100000000E-03 0.  1.
</event>
<event>
 8    1  0.1161093E+005  0.1043930E+01  0.7957747E-01            NaN
         13   -1    0    0    0    0  0.00000000000E+00  0.00000000000E+00  0.74505805969E-08  0.10566000000E+00  0.10566000000E+00 0.  1.
     999900   -1    0    0    0    0 -0.00000000000E+00 -0.00000000000E+00 -0.74505805969E-08  0.93827000000E+00  0.93827000000E+00 0.  1.
     999902    2    1    2    0    0  0.68382232404E-02 -0.18304754522E-01  0.13424273119E-01  0.10202226922E+01  0.10199472071E+01 0.  0.
     999903    2    3    3    0    0 -0.12329222370E+00 -0.57787238092E-02 -0.33280748337E-01  0.12933987514E+00  0.19667969319E-01 0.  0.
         14    1    1    2    0    0 -0.68382232404E-02  0.18304754522E-01 -0.13424273119E-01  0.23707307817E-01  0.00000000000E+00 0. -1.
     999901    1    3    3    0    0  0.13013044695E+00 -0.12526030712E-01  0.46705021456E-01  0.89088281704E+00  0.88000000000E+00 0. -1.
        -11    1    4    4    0    0 -0.76717810630E-01  0.31369944852E-02 -0.13520876533E-01  0.77964982046E-01  0.51100000000E-03 0.  1.
         11    1    4    4    0    0 -0.46574413075E-01 -0.89157182944E-02 -0.19759871804E-01  0.51374893097E-01  0.51100000000E-03 0. -1.
</event>
<event>
 8    1  0.1161093E+005  0.1043930E+01  0.7957747E-01            NaN
         13   -1    0    0    0    0  0.00000000000E+00  0.00000000000E+00  0.74505805969E-08  0.10566000000E+00  0.10566000000E+00 0. -1.
     999900   -1    0    0    0    0 -0.00000000000E+00 -0.00000000000E+00 -0.74505805969E-08  0.93827000000E+00  0.93827000000E+00 0.  1.
     999902    2    1    2    0    0  0.46076908298E-02  0.20255441920E-01 -0.76457725861E-02  0.10217946983E+01  0.10215549099E+01 0.  0.
     999903    2    3    3    0    0  0.12770072876E+00  0.28723919405E-01 -0.14055070589E-01  0.13316390311E+00  0.20063409680E-01 0.  0.
         14    1    1    2    0    0 -0.46076908298E-02 -0.20255441920E-01  0.76457725861E-02  0.22135301683E-01  0.00000000000E+00 0.  1.
     999901    1    3    3    0    0 -0.12309303793E+00 -0.84684774856E-02  0.64092980031E-02  0.88863079521E+00  0.88000000000E+00 0. -1.
        -11    1    4    4    0    0  0.97188120497E-01  0.13014467415E-01 -0.11845793571E-01  0.98769889511E-01  0.51100000000E-03 0.  1.
         11    1    4    4    0    0  0.30512608268E-01  0.15709451991E-01 -0.22092770184E-02  0.34394013594E-01  0.51100000000E-03 0. -1.
</event>
<event>
 8    1  0.1161093E+005  0.1043930E+01  0.7957747E-01            NaN
         13   -1    0    0    0    0  0.00000000000E+00  0.00000000000E+00  0.74505805969E-08  0.10566000000E+00  0.10566000000E+00 0.  1.
     999900   -1    0    0    0    0 -0.00000000000E+00 -0.00000000000E+00 -0.74505805969E-08  0.93827000000E+00  0.93827000000E+00 0. -1.
     999902    2    1    2    0    0  0.24963111280E-02 -0.22600136098E-01 -0.63196492499E-02  0.10203305151E+01  0.10200575593E+01 0.  0.
     999903    2    3    3    0    0  0.27192446021E-01  0.10111017560E+00  0.69864971555E-01  0.12807593442E+00  0.23656584651E-01 0.  0.
         14    1    1    2    0    0 -0.24963111280E-02  0.22600136098E-01  0.63196492499E-02  0.23599484900E-01  0.00000000000E+00 0. -1.
     999901    1    3    3    0    0 -0.24696134893E-01 -0.12371031169E+00 -0.76184620805E-01  0.89225458068E+00  0.88000000000E+00 0. -1.
        -11    1    4    4    0    0  0.21003199083E-01  0.54103811456E-01  0.26431912788E-01  0.63775104237E-01  0.51100000000E-03 0. -1.
         11    1    4    4    0    0  0.61892469382E-02  0.47006364140E-01  0.43433058767E-01  0.64300830182E-01  0.51100000000E-03 0.  1.
</event>
<event>
 8    1  0.1161093E+005  0.1043930E+01  0.7957747E-01            NaN
         13   -1    0    0    0    0  0.00000000000E+00  0.00000000000E+00  0.74505805969E-08  0.10566000000E+00  0.10566000000E+00 0. -1.
     999900   -1    0    0    0    0 -0.00000000000E+00 -0.00000000000E+00 -0.74505805969E-08  0.93827000000E+00  0.93827000000E+00 0. -1.
     999902    2    1    2    0    0 -0.18945432301E-01  0.10797082272E-01  0.10767188682E-01  0.10196104864E+01  0.10193204134E+01 0.  0.
     999903    2    3    3    0    0  0.24623951943E-01  0.54835758422E-02  0.12697362247E+00  0.13088642355E+00  0.19301462461E-01 0.  0.
         14    1    1    2    0    0  0.18945432301E-01 -0.10797082272E-01 -0.10767188682E-01  0.24319513621E-01  0.00000000000E+00 0.  1.
     999901    1    3    3    0    0 -0.43569384245E-01  0.53135064301E-02 -0.11620643379E+00  0.88872406283E+00  0.88000000000E+00 0. -1.
        -11    1    4    4    0    0  0.18274079340E-01 -0.35644994792E-02  0.10019614402E+00  0.10191259015E+00  0.51100000000E-03 0. -1.
         11    1    4    4    0    0  0.63498726035E-02  0.90480753214E-02  0.26777478447E-01  0.28973833403E-01  0.51100000000E-03 0.  1.
</event>
<event>
 8    1  0.1161093E+005  0.1043930E+01  0.7957747E-01            NaN
         13   -1    0    0    0    0  0.00000000000E+00  0.00000000000E+00  0.74505805969E-08  0.10566000000E+00  0.10566000000E+00 0. -1.
     999900   -1    0    0    0    0 -0.00000000000E+00 -0.00000000000E+00 -0.74505805969E-08  0.93827000000E+00  0.93827000000E+00 0. -1.
     999902    2    1    2    0    0 -0.21173384508E-01  0.66909792369E-02 -0.65910609802E-02  0.10207670231E+01  0.10205041852E+01 0.  0.
     999903    2    3    3    0    0 -0.51465494920E-01  0.11151110272E+00  0.45420121955E-01  0.13250465566E+00  0.20274937620E-01 0.  0.
         14    1    1    2    0    0  0.21173384508E-01 -0.66909792369E-02  0.65910609802E-02  0.23162976914E-01  0.00000000000E+00 0. -1.
     999901    1    3    3    0    0  0.30292110412E-01 -0.10482012348E+00 -0.52011182936E-01  0.88826236743E+00  0.88000000000E+00 0. -1.
        -11    1    4    4    0    0 -0.40278689657E-01  0.63711023486E-01  0.26906369113E-01  0.80035499461E-01  0.51100000000E-03 0. -1.
         11    1    4    4    0    0 -0.11186805263E-01  0.47800079232E-01  0.18513752843E-01  0.52469156196E-01  0.51100000000E-03 0.  1.
</event>
<event>
 8    1  0.1161093E+005  0.1043930E+01  0.7957747E-01            NaN
         13   -1    0    0    0    0  0.00000000000E+00  0.00000000000E+00  0.74505805969E-08  0.10566000000E+00  0.10566000000E+00 0.  1.
     999900   -1    0    0    0    0 -0.00000000000E+00 -0.00000000000E+00 -0.74505805969E-08  0.93827000000E+00  0.93827000000E+00 0.  1.
     999902    2    1    2    0    0 -0.43244703523E-02 -0.54163163749E-02 -0.27248439465E-01  0.10158139018E+01  0.10154247230E+01 0.  0.
     999903    2    3    3    0    0  0.64315721267E-01  0.83723776420E-01  0.62294700329E-01  0.12414389221E+00  0.19618703926E-01 0.  0.
         14    1    1    2    0    0  0.43244703523E-02  0.54163163749E-02  0.27248439465E-01  0.28116098239E-01  0.00000000000E+00 0.  1.
     999901    1    3    3    0    0 -0.68640191619E-01 -0.89140092795E-01 -0.89543139795E-01  0.89167000955E+00  0.88000000000E+00 0.  1.
        -11    1    4    4    0    0  0.56814878539E-01  0.61514662697E-01  0.45497189808E-01  0.95300784632E-01  0.51100000000E-03 0.  1.
         11    1    4    4    0    0  0.75008427275E-02  0.22209113723E-01  0.16797510522E-01  0.28843107577E-01  0.51100000000E-03 0. -1.
</event>
<event>
 8    1  0.1161093E+005  0.1043930E+01  0.7957747E-01            NaN
         13   -1    0    0    0    0  0.00000000000E+00  0.00000000000E+00  0.74505805969E-08  0.10566000000E+00  0.10566000000E+00 0. -1.
     999900   -1    0    0    0    0 -0.00000000000E+00 -0.00000000000E+00 -0.74505805969E-08  0.93827000000E+00  0.93827000000E+00 0.  1.
     999902    2    1    2    0    0  0.20491575017E-01  0.86910788445E-02 -0.81863719977E-02  0.10202138413E+01  0.10199381480E+01 0.  0.
     999903    2    3    3    0    0  0.46045142740E-02 -0.31963889133E-02 -0.13001129277E+00  0.13159973948E+00  0.19599406358E-01 0.  0.
         14    1    1    2    0    0 -0.20491575017E-01 -0.86910788445E-02  0.81863719977E-02  0.23716158725E-01  0.00000000000E+00 0.  1.
     999901    1    3    3    0    0  0.15887060743E-01  0.11887467758E-01  0.12182492077E+00  0.88861410180E+00  0.88000000000E+00 0. -1.
        -11    1    4    4    0    0  0.11261206391E-01  0.20067272658E-02 -0.60398301766E-01  0.61474040870E-01  0.51100000000E-03 0. -1.
         11    1    4    4    0    0 -0.66566921174E-02 -0.52031161791E-02 -0.69612991004E-01  0.70125698610E-01  0.51100000000E-03 0.  1.
</event>
<event>
 8    1  0.1764060E+005  0.1043930E+01  0.7957747E-01            NaN
         13   -1    0    0    0    0  0.00000000000E+00  0.00000000000E+00  0.74505805969E-08  0.10566000000E+00  0.10566000000E+00 0.  1.
     999900   -1    0    0    0    0 -0.00000000000E+00 -0.00000000000E+00 -0.74505805969E-08  0.93827000000E+00  0.93827000000E+00 0. -1.
     999902    2    1    2    0    0 -0.21911776780E-01 -0.58409254913E-02 -0.68803096623E-02  0.10202322990E+01  0.10199570397E+01 0.  0.
     999903    2    3    3    0    0  0.61240831567E-01  0.26698440597E-01  0.10769163578E+00  0.12832428955E+00  0.20159084548E-01 0.  0.
         14    1    1    2    0    0  0.21911776780E-01  0.58409254913E-02  0.68803096623E-02  0.23697701013E-01  0.00000000000E+00 0.  1.
     999901    1    3    3    0    0 -0.83152608347E-01 -0.32539366088E-01 -0.11457194544E+00  0.89190800944E+00  0.88000000000E+00 0. -1.
        -11    1    4    4    0    0  0.44491544520E-01  0.93451169483E-02  0.65714435346E-01  0.79909178937E-01  0.51100000000E-03 0. -1.
         11    1    4    4    0    0  0.16749287047E-01  0.17353323649E-01  0.41977200433E-01  0.48415110611E-01  0.51100000000E-03 0.  1.
</event>
<event>
 8    1  0.1161093E+005  0.1043930E+01  0.7957747E-01            NaN
         13   -1    0    0    0    0  0.00000000000E+00  0.00000000000E+00  0.74505805969E-08  0.10566000000E+00  0.10566000000E+00 0. -1.
     999900   -1    0    0    0    0 -0.00000000000E+00 -0.00000000000E+00 -0.74505805969E-08  0.93827000000E+00  0.93827000000E+00 0. -1.
     999902    2    1    2    0    0  0.70384806674E-02  0.23411192029E-01  0.17348355233E-02  0.10194221691E+01  0.10191275313E+01 0.  0.
     999903    2    3    3    0    0 -0.91600358413E-02 -0.90391363070E-02  0.12869884925E+00  0.12957090256E+00  0.77209292818E-02 0.  0.
         14    1    1    2    0    0 -0.70384806674E-02 -0.23411192029E-01 -0.17348355233E-02  0.24507830924E-01  0.00000000000E+00 0.  1.
     999901    1    3    3    0    0  0.16198516509E-01  0.32450328336E-01 -0.12696401373E+00  0.88985126652E+00  0.88000000000E+00 0. -1.
        -11    1    4    4    0    0 -0.12992426802E-02 -0.19868895671E-02  0.61274887971E-01  0.61322987358E-01  0.51100000000E-03 0. -1.
         11    1    4    4    0    0 -0.78607931611E-02 -0.70522467399E-02  0.67423961279E-01  0.68247915198E-01  0.51100000000E-03 0.  1.
</event>
<event>
 8    1  0.1161093E+005  0.1043930E+01  0.7957747E-01            NaN
         13   -1    0    0    0    0  0.00000000000E+00  0.00000000000E+00  0.74505805969E-08  0.10566000000E+00  0.10566000000E+00 0.  1.
     999900   -1    0    0    0    0 -0.00000000000E+00 -0.00000000000E+00 -0.74505805969E-08  0.93827000000E+00  0.93827000000E+00 0.  1.
     999902    2    1    2    0    0 -0.87992764451E-02  0.91277340016E-02 -0.18345789886E-01  0.10216295336E+01  0.10213861137E+01 0.  0.
     999903    2    3    3    0    0  0.56937530173E-01  0.10351121110E+00 -0.58700812327E-01  0.13322754335E+00  0.18637053797E-01 0.  0.
         14    1    1    2    0    0  0.87992764451E-02 -0.91277340016E-02  0.18345789886E-01  0.22300466374E-01  0.00000000000E+00 0.  1.
     999901    1    3    3    0    0 -0.65736806618E-01 -0.94383477094E-01  0.40355022441E-01  0.88840199028E+00  0.88000000000E+00 0. -1.
        -11    1    4    4    0    0  0.47971091075E-01  0.75321884091E-01 -0.37634650657E-01  0.96908409609E-01  0.51100000000E-03 0. -1.
         11    1    4    4    0    0  0.89664390976E-02  0.28189327005E-01 -0.21066161670E-01  0.36319133740E-01  0.51100000000E-03 0.  1.
</event>
<event>
 8    1  0.1161093E+005  0.1043930E+01  0.7957747E-01            NaN
         13   -1    0    0    0    0  0.00000000000E+00  0.00000000000E+00  0.74505805969E-08  0.10566000000E+00  0.10566000000E+00 0.  1.
     999900   -1    0    0    0    0 -0.00000000000E+00 -0.00000000000E+00 -0.74505805969E-08  0.93827000000E+00  0.93827000000E+00 0.  1.
     999902    2    1    2    0    0  0.84889904417E-02 -0.21455858022E-01  0.22932523854E-03  0.10208547017E+01  0.10205938725E+01 0.  0.
     999903    2    3    3    0    0  0.27685721780E-01  0.43280300960E-01  0.11803312273E+00  0.13044074207E+00  0.21054346085E-01 0.  0.
         14    1    1    2    0    0 -0.84889904417E-02  0.21455858022E-01 -0.22932523854E-03  0.23075298314E-01  0.00000000000E+00 0. -1.
     999901    1    3    3    0    0 -0.19196731339E-01 -0.64736158982E-01 -0.11780379749E+00  0.89041395962E+00  0.88000000000E+00 0. -1.
        -11    1    4    4    0    0  0.22545648471E-01  0.18198699072E-01  0.50623726568E-01  0.58331138558E-01  0.51100000000E-03 0. -1.
         11    1    4    4    0    0  0.51400733097E-02  0.25081601888E-01  0.67409396162E-01  0.72109603513E-01  0.51100000000E-03 0.  1.
</event>
<event>
 8    1  0.1161093E+005  0.1043930E+01  0.7957747E-01            NaN
         13   -1    0    0    0    0  0.00000000000E+00  0.00000000000E+00  0.74505805969E-08  0.10566000000E+00  0.10566000000E+00 0.  1.
     999900   -1    0    0    0    0 -0.00000000000E+00 -0.00000000000E+00 -0.74505805969E-08  0.93827000000E+00  0.93827000000E+00 0. -1.
     999902    2    1    2    0    0 -0.21265986279E-01 -0.38378465362E-02 -0.92397581632E-02  0.10204279922E+01  0.10201573128E+01 0.  0.
     999903    2    3    3    0    0  0.77433677432E-01 -0.89234889870E-01 -0.50115347768E-01  0.12986351256E+00  0.19853056205E-01 0.  0.
         14    1    1    2    0    0  0.21265986279E-01  0.38378465362E-02  0.92397581632E-02  0.23502007773E-01  0.00000000000E+00 0.  1.
     999901    1    3    3    0    0 -0.98699663711E-01  0.85397043334E-01  0.40875589605E-01  0.89056447967E+00  0.88000000000E+00 0.  1.
        -11    1    4    4    0    0  0.49138446867E-01 -0.63153015149E-01 -0.42593685497E-01  0.90649729443E-01  0.51100000000E-03 0.  1.
         11    1    4    4    0    0  0.28295230565E-01 -0.26081874720E-01 -0.75216622713E-02  0.39213783112E-01  0.51100000000E-03 0. -1.
</event>
<event>
 8    1  0.1161093E+005  0.1043930E+01  0.7957747E-01            NaN
         13   -1    0    0    0    0  0.00000000000E+00  0.00000000000E+00  0.74505805969E-08  0.10566000000E+00  0.10566000000E+00 0.  1.
     999900   -1    0    0    0    0 -0.00000000000E+00 -0.00000000000E+00 -0.74505805969E-08  0.93827000000E+00  0.93827000000E+00 0. -1.
     999902    2    1    2    0    0  0.11559786362E-01  0.23043396673E-02  0.20240566742E-01  0.10205073788E+01  0.10202385461E+01 0.  0.
     999903    2    3    3    0    0  0.75052431510E-01 -0.72061543838E-01  0.80687037101E-01  0.13303040648E+00  0.18998881951E-01 0.  0.
         14    1    1    2    0    0 -0.11559786362E-01 -0.23043396673E-02 -0.20240566742E-01  0.23422621205E-01  0.00000000000E+00 0. -1.
     999901    1    3    3    0    0 -0.63492645148E-01  0.74365883505E-01 -0.60446470358E-01  0.88747697232E+00  0.88000000000E+00 0. -1.
        -11    1    4    4    0    0  0.43557725488E-01 -0.46604325842E-01  0.38308001534E-01  0.74411039096E-01  0.51100000000E-03 0. -1.
         11    1    4    4    0    0  0.31494706023E-01 -0.25457217996E-01  0.42379035567E-01  0.58619367381E-01  0.51100000000E-03 0.  1.
</event>
<event>
 8    1  0.1161093E+005  0.1043930E+01  0.7957747E-01            NaN
         13   -1    0    0    0    0  0.00000000000E+00  0.00000000000E+00  0.74505805969E-08  0.10566000000E+00  0.10566000000E+00 0. -1.
     999900   -1    0    0    0    0 -0.00000000000E+00 -0.00000000000E+00 -0.74505805969E-08  0.93827000000E+00  0.93827000000E+00 0.  1.
     999902    2    1    2    0    0  0.13994596293E-01  0.16980599816E-01 -0.73264829931E-02  0.10207380435E+01  0.10204745399E+01 0.  0.
     999903    2    3    3    0    0 -0.85804842155E-01 -0.82462064406E-01  0.43145810501E-01  0.12810361448E+00  0.19659910342E-01 0.  0.
         14    1    1    2    0    0 -0.13994596293E-01 -0.16980599816E-01  0.73264829931E-02  0.23191956549E-01  0.00000000000E+00 0. -1.
     999901    1    3    3    0    0  0.99799438448E-01  0.99442664222E-01 -0.50472293494E-01  0.89263442898E+00  0.88000000000E+00 0.  1.
        -11    1    4    4    0    0 -0.52030693134E-01 -0.57574557205E-01  0.35984341897E-01  0.85540380220E-01  0.51100000000E-03 0. -1.
         11    1    4    4    0    0 -0.33774149021E-01 -0.24887507201E-01  0.71614686037E-02  0.42563234256E-01  0.51100000000E-03 0.  1.
</event>
<event>
 8    1  0.1161093E+005  0.1043930E+01  0.7957747E-01            NaN
         13   -1    0    0    0    0  0.00000000000E+00  0.00000000000E+00  0.74505805969E-08  0.10566000000E+00  0.10566000000E+00 0.  1.
     999900   -1    0    0    0    0 -0.00000000000E+00 -0.00000000000E+00 -0.74505805969E-08  0.93827000000E+00  0.93827000000E+00 0.  1.
     999902    2    1    2    0    0  0.73073415622E-02  0.22359140565E-01 -0.85485229258E-03  0.10203915383E+01  0.10201200087E+01 0.  0.
     999903    2    3    3    0    0  0.84124623211E-01 -0.71912974006E-01 -0.64625624144E-01  0.12974298937E+00  0.20207521695E-01 0.  0.
         14    1    1    2    0    0 -0.73073415622E-02 -0.22359140565E-01  0.85485229258E-03  0.23538461716E-01  0.00000000000E+00 0.  1.
     999901    1    3    3    0    0 -0.76817281649E-01  0.94272114571E-01  0.63770771851E-01  0.89064854892E+00  0.88000000000E+00 0. -1.
        -11    1    4    4    0    0  0.38112988912E-01 -0.36624242063E-01 -0.19790191549E-01  0.56443315220E-01  0.51100000000E-03 0.  1.
         11    1    4    4    0    0  0.46011634300E-01 -0.35288731943E-01 -0.44835432595E-01  0.73299674147E-01  0.51100000000E-03 0. -1.
</event>
<event>
 8    1  0.1161093E+005  0.1043930E+01  0.7957747E-01            NaN
         13   -1    0    0    0    0  0.00000000000E+00  0.00000000000E+00  0.74505805969E-08  0.10566000000E+00  0.10566000000E+00 0. -1.
     999900   -1    0    0    0    0 -0.00000000000E+00 -0.00000000000E+00 -0.74505805969E-08  0.93827000000E+00  0.93827000000E+00 0.  1.
     999902    2    1    2    0    0 -0.41696747538E-02  0.23539757918E-01  0.46416245616E-03  0.10200192945E+01  0.10197390055E+01 0.  0.
     999903    2    3    3    0    0 -0.23359982485E-01  0.12580812066E+00 -0.31536272784E-01  0.13331127391E+00  0.20099433967E-01 0.  0.
         14    1    1    2    0    0  0.41696747538E-02 -0.23539757918E-01 -0.46416245616E-03  0.23910705493E-01  0.00000000000E+00 0. -1.
     999901    1    3    3    0    0  0.19190307731E-01 -0.10226836274E+00  0.32000435240E-01  0.88670802059E+00  0.88000000000E+00 0. -1.
        -11    1    4    4    0    0 -0.19964406027E-01  0.98277625076E-01 -0.16124681046E-01  0.10157428591E+00  0.51100000000E-03 0.  1.
         11    1    4    4    0    0 -0.33955764576E-02  0.27530495584E-01 -0.15411591738E-01  0.31736988003E-01  0.51100000000E-03 0. -1.
</event>
<event>
 8    1  0.1161093E+005  0.1043930E+01  0.7957747E-01            NaN
         13   -1    0    0    0    0  0.00000000000E+00  0.00000000000E+00  0.74505805969E-08  0.10566000000E+00  0.10566000000E+00 0.  1.
     999900   -1    0    0    0    0 -0.00000000000E+00 -0.00000000000E+00 -0.74505805969E-08  0.93827000000E+00  0.93827000000E+00 0. -1.
     999902    2    1    2    0    0 -0.14036397635E-01  0.18792730107E-01  0.47678789096E-02  0.10199942562E+01  0.10197133729E+01 0.  0.
     999903    2    3    3    0    0 -0.21155847512E-01  0.86969618221E-01  0.95989767272E-01  0.13262724779E+00  0.19096257714E-01 0.  0.
         14    1    1    2    0    0  0.14036397635E-01 -0.18792730107E-01 -0.47678789096E-02  0.23935743831E-01  0.00000000000E+00 0. -1.
     999901    1    3    3    0    0  0.71194498773E-02 -0.68176888114E-01 -0.91221888362E-01  0.88736700838E+00  0.88000000000E+00 0. -1.
        -11    1    4    4    0    0 -0.37251275480E-02  0.26454780633E-01  0.41449813129E-01  0.49316124372E-01  0.51100000000E-03 0.  1.
         11    1    4    4    0    0 -0.17430719964E-01  0.60514837588E-01  0.54539954142E-01  0.83311123421E-01  0.51100000000E-03 0. -1.
</event>
<event>
 8    1  0.1296742E+005  0.1043930E+01  0.7957747E-01            NaN
         13   -1    0    0    0    0  0.00000000000E+00  0.00000000000E+00  0.74505805969E-08  0.10566000000E+00  0.10566000000E+00 0. -1.
     999900   -1    0    0    0    0 -0.00000000000E+00 -0.00000000000E+00 -0.74505805969E-08  0.93827000000E+00  0.93827000000E+00 0. -1.
     999902    2    1    2    0    0 -0.16941472943E-01  0.13268333420E-01 -0.45080256666E-02  0.10219439937E+01  0.10217074639E+01 0.  0.
     999903    2    3    3    0    0  0.45638417534E-01  0.69354907159E-01  0.10024900819E+00  0.13175525946E+00  0.20411184410E-01 0.  0.
         14    1    1    2    0    0  0.16941472943E-01 -0.13268333420E-01  0.45080256666E-02  0.21986006291E-01  0.00000000000E+00 0.  1.
     999901    1    3    3    0    0 -0.62579890477E-01 -0.56086573739E-01 -0.10475703386E+00  0.89018873425E+00  0.88000000000E+00 0. -1.
        -11    1    4    4    0    0  0.27552025825E-01  0.23563724077E-01  0.42061217453E-01  0.55531705845E-01  0.51100000000E-03 0.  1.
         11    1    4    4    0    0  0.18086391709E-01  0.45791183083E-01  0.58187790739E-01  0.76223553612E-01  0.51100000000E-03 0. -1.
</event>
<event>
 8    1  0.1161093E+005  0.1043930E+01  0.7957747E-01            NaN
         13   -1    0    0    0    0  0.00000000000E+00  0.00000000000E+00  0.74505805969E-08  0.10566000000E+00  0.10566000000E+00 0.  1.
     999900   -1    0    0    0    0 -0.00000000000E+00 -0.00000000000E+00 -0.74505805969E-08  0.93827000000E+00  0.93827000000E+00 0.  1.
     999902    2    1    2    0    0 -0.17406947330E-01 -0.16341587945E-01 -0.41837916275E-02  0.10196904987E+01  0.10194023542E+01 0.  0.
     999903    2    3    3    0    0  0.82245507166E-01 -0.97561371445E-01 -0.17277514313E-01  0.13025319876E+00  0.19617304563E-01 0.  0.
         14    1    1    2    0    0  0.17406947330E-01  0.16341587945E-01  0.41837916275E-02  0.24239501322E-01  0.00000000000E+00 0. -1.
     999901    1    3    3    0    0 -0.99652454496E-01  0.81219783499E-01  0.13093722686E-01  0.88943729992E+00  0.88000000000E+00 0. -1.
        -11    1    4    4    0    0  0.45854388647E-01 -0.43006874067E-01 -0.19163895966E-02  0.62897931963E-01  0.51100000000E-03 0. -1.
         11    1    4    4    0    0  0.36391118518E-01 -0.54554497378E-01 -0.15361124716E-01  0.67355266793E-01  0.51100000000E-03 0.  1.
</event>
<event>
 8    1  0.1161093E+005  0.1043930E+01  0.7957747E-01            NaN
         13   -1    0    0    0    0  0.00000000000E+00  0.00000000000E+00  0.74505805969E-08  0.10566000000E+00  0.10566000000E+00 0.  1.
     999900   -1    0    0    0    0 -0.00000000000E+00 -0.00000000000E+00 -0.74505805969E-08  0.93827000000E+00  0.93827000000E+00 0.  1.
     999902    2    1    2    0    0 -0.19446014072E-01 -0.11846550497E-01  0.66870440594E-02  0.10201980641E+01  0.10199219996E+01 0.  0.
     999903    2    3    3    0    0 -0.10801008634E+00 -0.64108060303E-01 -0.38883546967E-01  0.13303881176E+00  0.20282333701E-01 0.  0.
         14    1    1    2    0    0  0.19446014072E-01  0.11846550497E-01 -0.66870440594E-02  0.23731935872E-01  0.00000000000E+00 0. -1.
     999901    1    3    3    0    0  0.88564072273E-01  0.52261509806E-01  0.45570591027E-01  0.88715925237E+00  0.88000000000E+00 0. -1.
        -11    1    4    4    0    0 -0.63014860473E-01 -0.28032874295E-01 -0.14812606433E-01  0.70543526365E-01  0.51100000000E-03 0. -1.
         11    1    4    4    0    0 -0.44995225872E-01 -0.36075186008E-01 -0.24070940535E-01  0.62495285390E-01  0.51100000000E-03 0.  1.
</event>
<event>
 8    1  0.1161093E+005  0.1043930E+01  0.7957747E-01            NaN
         13   -1    0    0    0    0  0.00000000000E+00  0.00000000000E+00  0.74505805969E-08  0.10566000000E+00  0.10566000000E+00 0.  1.
     999900   -1    0    0    0    0 -0.00000000000E+00 -0.00000000000E+00 -0.74505805969E-08  0.93827000000E+00  0.93827000000E+00 0.  1.
     999902    2    1    2    0    0  0.22276557312E-01 -0.38511629123E-02 -0.75086016593E-02  0.10201086743E+01  0.10198305015E+01 0.  0.
     999903    2    3    3    0    0  0.11743675374E+00 -0.43971217918E-01  0.38908446304E-01  0.13285469475E+00  0.20289001719E-01 0.  0.
         14    1    1    2    0    0 -0.22276557312E-01  0.38511629123E-02  0.75086016593E-02  0.23821325747E-01  0.00000000000E+00 0. -1.
     999901    1    3    3    0    0 -0.95160196425E-01  0.40120055006E-01 -0.46417047963E-01  0.88725397950E+00  0.88000000000E+00 0.  1.
        -11    1    4    4    0    0  0.93284697997E-01 -0.42550582940E-01  0.35003364418E-01  0.10834243689E+00  0.51100000000E-03 0.  1.
         11    1    4    4    0    0  0.24152055739E-01 -0.14206349784E-02  0.39050818863E-02  0.24512257867E-01  0.51100000000E-03 0. -1.
</event>
<event>
 8    1  0.1161093E+005  0.1043930E+01  0.7957747E-01            NaN
         13   -1    0    0    0    0  0.00000000000E+00  0.00000000000E+00  0.74505805969E-08  0.10566000000E+00  0.10566000000E+00 0.  1.
     999900   -1    0    0    0    0 -0.00000000000E+00 -0.00000000000E+00 -0.74505805969E-08  0.93827000000E+00  0.93827000000E+00 0.  1.
     999902    2    1    2    0    0 -0.23402505911E-01 -0.32410286289E-02 -0.40727085766E-03  0.10203006238E+01  0.10200269680E+01 0.  0.
     999903    2    3    3    0    0 -0.90773949599E-01 -0.22525681411E-01  0.91921974468E-01  0.13269964432E+00  0.20303447070E-01 0.  0.
         14    1    1    2    0    0  0.23402505911E-01  0.32410286289E-02  0.40727085766E-03  0.23629376188E-01  0.00000000000E+00 0. -1.
     999901    1    3    3    0    0  0.67371443689E-01  0.19284652782E-01 -0.92329245326E-01  0.88760097949E+00  0.88000000000E+00 0.  1.
        -11    1    4    4    0    0 -0.59470578000E-01 -0.24530301354E-01  0.62040556171E-01  0.89374364687E-01  0.51100000000E-03 0.  1.
         11    1    4    4    0    0 -0.31303371600E-01  0.20046199430E-02  0.29881418297E-01  0.43325279630E-01  0.51100000000E-03 0. -1.
</event>
<event>
 8    1  0.1161093E+005  0.1043930E+01  0.7957747E-01            NaN
         13   -1    0    0    0    0  0.00000000000E+00  0.00000000000E+00  0.74505805969E-08  0.10566000000E+00  0.10566000000E+00 0. -1.
     999900   -1    0    0    0    0 -0.00000000000E+00 -0.00000000000E+00 -0.74505805969E-08  0.93827000000E+00  0.93827000000E+00 0. -1.
     999902    2    1    2    0    0  0.22795455060E-02 -0.22226566038E-01  0.74947177257E-02  0.10203633422E+01  0.10200911541E+01 0.  0.
     999903    2    3    3    0    0  0.84523255319E-02 -0.13129398696E+00 -0.88724582895E-02  0.13345765953E+00  0.20559026088E-01 0.  0.
         14    1    1    2    0    0 -0.22795455060E-02  0.22226566038E-01 -0.74947177257E-02  0.23566657789E-01  0.00000000000E+00 0.  1.
     999901    1    3    3    0    0 -0.61727800259E-02  0.10906742092E+00  0.16367176015E-01  0.88690568268E+00  0.88000000000E+00 0. -1.
        -11    1    4    4    0    0 -0.28093425104E-04 -0.10486200895E+00 -0.11868131474E-01  0.10553272183E+00  0.51100000000E-03 0.  1.
         11    1    4    4    0    0  0.84804189570E-02 -0.26431978002E-01  0.29956731849E-02  0.27924937701E-01  0.51100000000E-03 0. -1.
</event>
<event>
 8    1  0.1161093E+005  0.1043930E+01  0.7957747E-01            NaN
         13   -1    0    0    0    0  0.00000000000E+00  0.00000000000E+00  0.74505805969E-08  0.10566000000E+00  0.10566000000E+00 0.  1.
     999900   -1    0    0    0    0 -0.00000000000E+00 -0.00000000000E+00 -0.74505805969E-08  0.93827000000E+00  0.93827000000E+00 0. -1.
     999902    2    1    2    0    0  0.14771950611E-01  0.20551726367E-01  0.62009471703E-02  0.10178716860E+01  0.10175380747E+01 0.  0.
     999903    2    3    3    0    0 -0.10621982978E+00 -0.40944335978E-01 -0.48629020571E-01  0.12578026584E+00  0.22289072313E-01 0.  0.
         14    1    1    2    0    0 -0.14771950611E-01 -0.20551726367E-01 -0.62009471703E-02  0.26058313978E-01  0.00000000000E+00 0. -1.
     999901    1    3    3    0    0  0.12099178039E+00  0.61496062346E-01  0.54829967741E-01  0.89209142019E+00  0.88000000000E+00 0.  1.
        -11    1    4    4    0    0 -0.74938739434E-01 -0.17888619051E-01 -0.34658083062E-01  0.84482312954E-01  0.51100000000E-03 0. -1.
         11    1    4    4    0    0 -0.31281090348E-01 -0.23055716928E-01 -0.13970937508E-01  0.41297952883E-01  0.51100000000E-03 0.  1.
</event>
<event>
 8    1  0.1161093E+005  0.1043930E+01  0.7957747E-01            NaN
         13   -1    0    0    0    0  0.00000000000E+00  0.00000000000E+00  0.74505805969E-08  0.10566000000E+00  0.10566000000E+00 0.  1.
     999900   -1    0    0    0    0 -0.00000000000E+00 -0.00000000000E+00 -0.74505805969E-08  0.93827000000E+00  0.93827000000E+00 0. -1.
     999902    2    1    2    0    0 -0.48976809929E-02 -0.19449134327E-01 -0.13111004961E-01  0.10199684776E+01  0.10196869817E+01 0.  0.
     999903    2    3    3    0    0  0.14508774952E-01 -0.13017765646E+00  0.56067648542E-02  0.13261974623E+00  0.19995861718E-01 0.  0.
         14    1    1    2    0    0  0.48976809929E-02  0.19449134327E-01  0.13111004961E-01  0.23961522411E-01  0.00000000000E+00 0.  1.
     999901    1    3    3    0    0 -0.19406455945E-01  0.11072852213E+00 -0.18717769816E-01  0.88734873136E+00  0.88000000000E+00 0. -1.
        -11    1    4    4    0    0 -0.37653999877E-02 -0.31482841631E-01 -0.31361215229E-02  0.31866031028E-01  0.51100000000E-03 0.  1.
         11    1    4    4    0    0  0.18274174940E-01 -0.98694814824E-01  0.87428863771E-02  0.10075371520E+00  0.51100000000E-03 0. -1.
</event>
<event>
 8    1  0.1161093E+005  0.1043930E+01  0.7957747E-01            NaN
         13   -1    0    0    0    0  0.00000000000E+00  0.00000000000E+00  0.74505805969E-08  0.10566000000E+00  0.10566000000E+00 0.  1.
     999900   -1    0    0    0    0 -0.00000000000E+00 -0.00000000000E+00 -0.74505805969E-08  0.93827000000E+00  0.93827000000E+00 0. -1.
     999902    2    1    2    0    0 -0.68524789604E-02  0.17869009612E-02 -0.22463388543E-01  0.10203767984E+01  0.10201049247E+01 0.  0.
     999903    2    3    3    0    0  0.57094361785E-01 -0.94978249880E-01 -0.67867897268E-01  0.13160558917E+00  0.20816952795E-01 0.  0.
         14    1    1    2    0    0  0.68524789604E-02 -0.17869009612E-02  0.22463388543E-01  0.23553201646E-01  0.00000000000E+00 0.  1.
     999901    1    3    3    0    0 -0.63946840746E-01  0.96765150841E-01  0.45404508725E-01  0.88877120918E+00  0.88000000000E+00 0. -1.
        -11    1    4    4    0    0  0.50328320272E-01 -0.91027624930E-01 -0.58339756686E-01  0.11925919945E+00  0.51100000000E-03 0. -1.
         11    1    4    4    0    0  0.67660415132E-02 -0.39506249500E-02 -0.95281405817E-02  0.12346389723E-01  0.51100000000E-03 0.  1.
</event>
<event>
 8    1  0.1161093E+005  0.1043930E+01  0.7957747E-01            NaN
         13   -1    0    0    0    0  0.00000000000E+00  0.00000000000E+00  0.74505805969E-08  0.10566000000E+00  0.10566000000E+00 0. -1.
     999900   -1    0    0    0    0 -0.00000000000E+00 -0.00000000000E+00 -0.74505805969E-08  0.93827000000E+00  0.93827000000E+00 0.  1.
     999902    2    1    2    0    0  0.19867948946E-01 -0.12204967705E-01  0.48177896650E-02  0.10201201758E+01  0.10198422747E+01 0.  0.
     999903    2    3    3    0    0 -0.66630930313E-01 -0.99153714901E-01 -0.47152639539E-01  0.13009598158E+00  0.20747360191E-01 0.  0.
         14    1    1    2    0    0 -0.19867948946E-01  0.12204967705E-01 -0.48177896650E-02  0.23809824218E-01  0.00000000000E+00 0.  1.
     999901    1    3    3    0    0  0.86498879259E-01  0.86948747196E-01  0.51970429204E-01  0.89002419420E+00  0.88000000000E+00 0. -1.
        -11    1    4    4    0    0 -0.40572157603E-01 -0.75522443792E-01 -0.37778179730E-01  0.93686666467E-01  0.51100000000E-03 0. -1.
         11    1    4    4    0    0 -0.26058772710E-01 -0.23631271109E-01 -0.93744598090E-02  0.36409315114E-01  0.51100000000E-03 0.  1.
</event>
<event>
 8    1  0.1403161E+005  0.1043930E+01  0.7957747E-01            NaN
         13   -1    0    0    0    0  0.00000000000E+00  0.00000000000E+00  0.74505805969E-08  0.10566000000E+00  0.10566000000E+00 0.  1.
     999900   -1    0    0    0    0 -0.00000000000E+00 -0.00000000000E+00 -0.74505805969E-08  0.93827000000E+00  0.93827000000E+00 0. -1.
     999902    2    1    2    0    0 -0.39501107933E-02  0.19280709005E-01 -0.12476458581E-01  0.10206274007E+01  0.10203613477E+01 0.  0.
     999903    2    3    3    0    0 -0.15481070474E-01  0.78783107573E-01  0.10125532727E+00  0.13124086068E+00  0.22914637904E-01 0.  0.
         14    1    1    2    0    0  0.39501107933E-02 -0.19280709005E-01  0.12476458581E-01  0.23302599292E-01  0.00000000000E+00 0.  1.
     999901    1    3    3    0    0  0.11530959681E-01 -0.59502398568E-01 -0.11373178585E+00  0.88938654003E+00  0.88000000000E+00 0. -1.
        -11    1    4    4    0    0 -0.17994936146E-01  0.52186696743E-01  0.55663521388E-01  0.78396159206E-01  0.51100000000E-03 0.  1.
         11    1    4    4    0    0  0.25138656718E-02  0.26596410830E-01  0.45591805881E-01  0.52844701477E-01  0.51100000000E-03 0. -1.
</event>
<event>
 8    1  0.1161093E+005  0.1043930E+01  0.7957747E-01            NaN
         13   -1    0    0    0    0  0.00000000000E+00  0.00000000000E+00  0.74505805969E-08  0.10566000000E+00  0.10566000000E+00 0. -1.
     999900   -1    0    0    0    0 -0.00000000000E+00 -0.00000000000E+00 -0.74505805969E-08  0.93827000000E+00  0.93827000000E+00 0.  1.
     999902    2    1    2    0    0 -0.11392551709E-01 -0.21398396316E-01 -0.63128253556E-02  0.10188793840E+01  0.10185713847E+01 0.  0.
     999903    2    3    3    0    0  0.36947696912E-01  0.31844840279E-01 -0.11784385667E+00  0.12892950178E+00  0.18878975453E-01 0.  0.
         14    1    1    2    0    0  0.11392551709E-01  0.21398396316E-01  0.63128253556E-02  0.25050616026E-01  0.00000000000E+00 0.  1.
     999901    1    3    3    0    0 -0.48340248621E-01 -0.53243236594E-01  0.11153103131E+00  0.88994988220E+00  0.88000000000E+00 0. -1.
        -11    1    4    4    0    0  0.70844168665E-02  0.27842784001E-02 -0.39113132820E-01  0.39850212654E-01  0.51100000000E-03 0. -1.
         11    1    4    4    0    0  0.29863280046E-01  0.29060561879E-01 -0.78730723847E-01  0.89079289121E-01  0.51100000000E-03 0.  1.
</event>
<event>
 8    1  0.1161093E+005  0.1043930E+01  0.7957747E-01            NaN
         13   -1    0    0    0    0  0.00000000000E+00  0.00000000000E+00  0.74505805969E-08  0.10566000000E+00  0.10566000000E+00 0.  1.
     999900   -1    0    0    0    0 -0.00000000000E+00 -0.00000000000E+00 -0.74505805969E-08  0.93827000000E+00  0.93827000000E+00 0.  1.
     999902    2    1    2    0    0  0.25821577708E-01  0.19180155652E-02  0.14848036591E-01  0.10140821048E+01  0.10136427469E+01 0.  0.
     999903    2    3    3    0    0 -0.26133854872E-01  0.11584529584E+00  0.33396428629E-01  0.12502483158E+00  0.20316892646E-01 0.  0.
         14    1    1    2    0    0 -0.25821577708E-01 -0.19180155652E-02 -0.14848036591E-01  0.29847895230E-01  0.00000000000E+00 0. -1.
     999901    1    3    3    0    0  0.51955432580E-01 -0.11392728028E+00 -0.18548392038E-01  0.88905727319E+00  0.88000000000E+00 0. -1.
        -11    1    4    4    0    0  0.49562734614E-03  0.21077745225E-01  0.46636592960E-04  0.21089814750E-01  0.51100000000E-03 0. -1.
         11    1    4    4    0    0 -0.26629482218E-01  0.94767550618E-01  0.33349792036E-01  0.10393501683E+00  0.51100000000E-03 0.  1.
</event>
<event>
 8    1  0.1161093E+005  0.1043930E+01  0.7957747E-01            NaN
         13   -1    0    0    0    0  0.00000000000E+00  0.00000000000E+00  0.74505805969E-08  0.10566000000E+00  0.10566000000E+00 0.  1.
     999900   -1    0    0    0    0 -0.00000000000E+00 -0.00000000000E+00 -0.74505805969E-08  0.93827000000E+00  0.93827000000E+00 0. -1.
     999902    2    1    2    0    0  0.97647689904E-02  0.79673761566E-02  0.20059443840E-01  0.10202401059E+01  0.10199650301E+01 0.  0.
     999903    2    3    3    0    0 -0.10607455128E+00 -0.63987965391E-01  0.33251297751E-01  0.12963899185E+00  0.18824166991E-01 0.  0.
         14    1    1    2    0    0 -0.97647689904E-02 -0.79673761566E-02 -0.20059443840E-01  0.23689894120E-01  0.00000000000E+00 0. -1.
     999901    1    3    3    0    0  0.11583932027E+00  0.71955341547E-01 -0.13191853912E-01  0.89060111403E+00  0.88000000000E+00 0. -1.
        -11    1    4    4    0    0 -0.69306565075E-01 -0.46397930822E-01  0.30416592132E-01  0.88778365298E-01  0.51100000000E-03 0.  1.
         11    1    4    4    0    0 -0.36767986202E-01 -0.17590034569E-01  0.28347056195E-02  0.40860626555E-01  0.51100000000E-03 0. -1.
</event>
<event>
 8    1  0.1161093E+005  0.1043930E+01  0.7957747E-01            NaN
         13   -1    0    0    0    0  0.00000000000E+00  0.00000000000E+00  0.74505805969E-08  0.10566000000E+00  0.10566000000E+00 0.  1.
     999900   -1    0    0    0    0 -0.00000000000E+00 -0.00000000000E+00 -0.74505805969E-08  0.93827000000E+00  0.93827000000E+00 0.  1.
     999902    2    1    2    0    0 -0.21542692754E-01 -0.75604042586E-02  0.73051756771E-02  0.10199589150E+01  0.10196771918E+01 0.  0.
     999903    2    3    3    0    0  0.90765772676E-01  0.20218373180E-01 -0.85204914682E-01  0.12757840834E+00  0.19213658789E-01 0.  0.
         14    1    1    2    0    0  0.21542692754E-01  0.75604042586E-02 -0.73051756771E-02  0.23971084984E-01  0.00000000000E+00 0. -1.
     999901    1    3    3    0    0 -0.11230846543E+00 -0.27778777438E-01  0.92510090359E-01  0.89238050668E+00  0.88000000000E+00 0. -1.
        -11    1    4    4    0    0  0.70350444407E-01  0.10736365466E-01 -0.73074724746E-01  0.10200309353E+00  0.51100000000E-03 0.  1.
         11    1    4    4    0    0  0.20415328269E-01  0.94820077139E-02 -0.12130189936E-01  0.25575314807E-01  0.51100000000E-03 0. -1.
</event>
<event>
 8    1  0.1161093E+005  0.1043930E+01  0.7957747E-01            NaN
         13   -1    0    0    0    0  0.00000000000E+00  0.00000000000E+00  0.74505805969E-08  0.10566000000E+00  0.10566000000E+00 0.  1.
     999900   -1    0    0    0    0 -0.00000000000E+00 -0.00000000000E+00 -0.74505805969E-08  0.93827000000E+00  0.93827000000E+00 0.  1.
     999902    2    1    2    0    0  0.54339003145E-02 -0.17662614106E-02 -0.26705673697E-01  0.10166199293E+01  0.10162530397E+01 0.  0.
     999903    2    3    3    0    0 -0.59682282062E-02  0.68258870117E-01  0.10175953135E+00  0.12446700719E+00  0.21027138692E-01 0.  0.
         14    1    1    2    0    0 -0.54339003145E-02  0.17662614106E-02  0.26705673697E-01  0.27310070663E-01  0.00000000000E+00 0.  1.
     999901    1    3    3    0    0  0.11402128521E-01 -0.70025131527E-01 -0.12846520505E+00  0.89215292214E+00  0.88000000000E+00 0.  1.
        -11    1    4    4    0    0 -0.10043877335E-01  0.17482191061E-01  0.36230138939E-01  0.41465534661E-01  0.51100000000E-03 0.  1.
         11    1    4    4    0    0  0.40756491287E-02  0.50776679056E-01  0.65529392412E-01  0.83001472533E-01  0.51100000000E-03 0. -1.
</event>
<event>
 8    1  0.1161093E+005  0.1043930E+01  0.7957747E-01            NaN
         13   -1    0    0    0    0  0.00000000000E+00  0.00000000000E+00  0.74505805969E-08  0.10566000000E+00  0.10566000000E+00 0.  1.
     999900   -1    0    0    0    0 -0.00000000000E+00 -0.00000000000E+00 -0.74505805969E-08  0.93827000000E+00  0.93827000000E+00 0.  1.
     999902    2    1    2    0    0  0.14286567595E-02  0.98155673606E-02  0.23532643313E-01  0.10183923469E+01  0.10180720999E+01 0.  0.
     999903    2    3    3    0    0  0.85850824086E-01  0.23542121247E-01  0.94558699872E-01  0.13139729547E+00  0.19982644114E-01 0.  0.
         14    1    1    2    0    0 -0.14286567595E-02 -0.98155673606E-02 -0.23532643313E-01  0.25537653065E-01  0.00000000000E+00 0. -1.
     999901    1    3    3    0    0 -0.84422167326E-01 -0.13726553887E-01 -0.71026056559E-01  0.88699505147E+00  0.88000000000E+00 0. -1.
        -11    1    4    4    0    0  0.21173673076E-01  0.13726476026E-02  0.33895213638E-01  0.39991939457E-01  0.51100000000E-03 0. -1.
         11    1    4    4    0    0  0.64677151010E-01  0.22169473645E-01  0.60663486234E-01  0.91405356011E-01  0.51100000000E-03 0.  1.
</event>
<event>
 8    1  0.1161093E+005  0.1043930E+01  0.7957747E-01            NaN
         13   -1    0    0    0    0  0.00000000000E+00  0.00000000000E+00  0.74505805969E-08  0.10566000000E+00  0.10566000000E+00 0.  1.
     999900   -1    0    0    0    0 -0.00000000000E+00 -0.00000000000E+00 -0.74505805969E-08  0.93827000000E+00  0.93827000000E+00 0.  1.
     999902    2    1    2    0    0 -0.19744358211E-01  0.43191039614E-02 -0.12815412116E-01  0.10199982402E+01  0.10197174515E+01 0.  0.
     999903    2    3    3    0    0  0.60269041467E-01 -0.23016844095E-01  0.10852951657E+00  0.12765638310E+00  0.18851093040E-01 0.  0.
         14    1    1    2    0    0  0.19744358211E-01 -0.43191039614E-02  0.12815412116E-01  0.23931759816E-01  0.00000000000E+00 0.  1.
     999901    1    3    3    0    0 -0.80013399679E-01  0.27335948056E-01 -0.12134492868E+00  0.89234185708E+00  0.88000000000E+00 0.  1.
        -11    1    4    4    0    0  0.27210689216E-01 -0.98902297374E-02  0.66902717756E-01  0.72900432207E-01  0.51100000000E-03 0.  1.
         11    1    4    4    0    0  0.33058352252E-01 -0.13126614357E-01  0.41626798811E-01  0.54755950894E-01  0.51100000000E-03 0. -1.
</event>
<event>
 8    1  0.1161093E+005  0.1043930E+01  0.7957747E-01            NaN
         13   -1    0    0    0    0  0.00000000000E+00  0.00000000000E+00  0.74505805969E-08  0.10566000000E+00  0.10566000000E+00 0. -1.
     999900   -1    0    0    0    0 -0.00000000000E+00 -0.00000000000E+00 -0.74505805969E-08  0.93827000000E+00  0.93827000000E+00 0. -1.
     999902    2    1    2    0    0  0.22425640458E-01  0.28617846260E-02  0.20662323459E-02  0.10212282715E+01  0.10209759126E+01 0.  0.
     999903    2    3    3    0    0  0.27643137446E-01 -0.63677059700E-01 -0.10955636663E+00  0.13166981659E+00  0.22703130894E-01 0.  0.
         14    1    1    2    0    0 -0.22425640458E-01 -0.28617846260E-02 -0.20662323459E-02  0.22701728509E-01  0.00000000000E+00 0.  1.
     999901    1    3    3    0    0 -0.52174969876E-02  0.66538844326E-01  0.11162259898E+00  0.88955845490E+00  0.88000000000E+00 0.  1.
        -11    1    4    4    0    0  0.24374994464E-02 -0.33988224906E-01 -0.52122584882E-01  0.62274921209E-01  0.51100000000E-03 0.  1.
         11    1    4    4    0    0  0.25205637999E-01 -0.29688834794E-01 -0.57433781748E-01  0.69394895383E-01  0.51100000000E-03 0. -1.
</event>
<event>
 8    1  0.1161093E+005  0.1043930E+01  0.7957747E-01            NaN
         13   -1    0    0    0    0  0.00000000000E+00  0.00000000000E+00  0.74505805969E-08  0.10566000000E+00  0.10566000000E+00 0.  1.
     999900   -1    0    0    0    0 -0.00000000000E+00 -0.00000000000E+00 -0.74505805969E-08  0.93827000000E+00  0.93827000000E+00 0.  1.
     999902    2    1    2    0    0  0.15470748069E-01 -0.95947111365E-02  0.14801965364E-01  0.10204672485E+01  0.10201974832E+01 0.  0.
     999903    2    3    3    0    0  0.27526554028E-02  0.45960761305E-01  0.12249913160E+00  0.13207159343E+00  0.17801681246E-01 0.  0.
         14    1    1    2    0    0 -0.15470748069E-01  0.95947111365E-02 -0.14801965364E-01  0.23462751463E-01  0.00000000000E+00 0. -1.
     999901    1    3    3    0    0  0.12718092666E-01 -0.55555472442E-01 -0.10769716624E+00  0.88839565511E+00  0.88000000000E+00 0.  1.
        -11    1    4    4    0    0 -0.81389696752E-03  0.34205427128E-01  0.67066220430E-01  0.75291518228E-01  0.51100000000E-03 0.  1.
         11    1    4    4    0    0  0.35665523704E-02  0.11755334177E-01  0.55432911175E-01  0.56780075201E-01  0.51100000000E-03 0. -1.
</event>
<event>
 8    1  0.1161093E+005  0.1043930E+01  0.7957747E-01            NaN
         13   -1    0    0    0    0  0.00000000000E+00  0.00000000000E+00  0.74505805969E-08  0.10566000000E+00  0.10566000000E+00 0.  1.
     999900   -1    0    0    0    0 -0.00000000000E+00 -0.00000000000E+00 -0.74505805969E-08  0.93827000000E+00  0.93827000000E+00 0. -1.
     999902    2    1    2    0    0  0.19937185055E-01  0.91572442545E-02  0.57423260982E-02  0.10212513585E+01  0.10209995184E+01 0.  0.
     999903    2    3    3    0    0  0.15999143572E-01  0.10821131773E+00  0.73157324599E-01  0.13312298961E+00  0.20101600467E-01 0.  0.
         14    1    1    2    0    0 -0.19937185055E-01 -0.91572442545E-02 -0.57423260982E-02  0.22678641478E-01  0.00000000000E+00 0.  1.
     999901    1    3    3    0    0  0.39380414835E-02 -0.99054073471E-01 -0.67414998501E-01  0.88812836891E+00  0.88000000000E+00 0. -1.
        -11    1    4    4    0    0  0.69119200828E-02  0.40070952896E-01  0.39059035744E-01  0.56385506111E-01  0.51100000000E-03 0. -1.
         11    1    4    4    0    0  0.90872234891E-02  0.68140364830E-01  0.34098288856E-01  0.76737483499E-01  0.51100000000E-03 0.  1.
</event>
<event>
 8    1  0.1161093E+005  0.1043930E+01  0.7957747E-01            NaN
         13   -1    0    0    0    0  0.00000000000E+00  0.00000000000E+00  0.74505805969E-08  0.10566000000E+00  0.10566000000E+00 0.  1.
     999900   -1    0    0    0    0 -0.00000000000E+00 -0.00000000000E+00 -0.74505805969E-08  0.93827000000E+00  0.93827000000E+00 0.  1.
     999902    2    1    2    0    0 -0.20262617934E-01 -0.23072059207E-02  0.12335939383E-01  0.10200957330E+01  0.10198172543E+01 0.  0.
     999903    2    3    3    0    0  0.11128230478E+00 -0.56580366377E-01 -0.20439291598E-01  0.12806218068E+00  0.19926571758E-01 0.  0.
         14    1    1    2    0    0  0.20262617934E-01  0.23072059207E-02 -0.12335939383E-01  0.23834267037E-01  0.00000000000E+00 0. -1.
     999901    1    3    3    0    0 -0.13154492272E+00  0.54273160456E-01  0.32775230981E-01  0.89203355229E+00  0.88000000000E+00 0.  1.
        -11    1    4    4    0    0  0.10097007514E+00 -0.44359816643E-01 -0.19813177336E-01  0.11205165114E+00  0.51100000000E-03 0. -1.
         11    1    4    4    0    0  0.10312229644E-01 -0.12220549734E-01 -0.62611426202E-03  0.16010529538E-01  0.51100000000E-03 0.  1.
</event>
<event>
 8    1  0.1161093E+005  0.1043930E+01  0.7957747E-01            NaN
         13   -1    0    0    0    0  0.00000000000E+00  0.00000000000E+00  0.74505805969E-08  0.10566000000E+00  0.10566000000E+00 0. -1.
     999900   -1    0    0    0    0 -0.00000000000E+00 -0.00000000000E+00 -0.74505805969E-08  0.93827000000E+00  0.93827000000E+00 0. -1.
     999902    2    1    2    0    0 -0.15893948513E-01 -0.10803459544E-01 -0.13650592579E-01  0.10203573248E+01  0.10200849961E+01 0.  0.
     999903    2    3    3    0    0 -0.73967749650E-02 -0.80380019049E-02  0.12704646473E+00  0.12913596531E+00  0.20395381346E-01 0.  0.
         14    1    1    2    0    0  0.15893948513E-01  0.10803459544E-01  0.13650592579E-01  0.23572675181E-01  0.00000000000E+00 0. -1.
     999901    1    3    3    0    0 -0.84971735479E-02 -0.27654576387E-02 -0.14069705731E+00  0.89122135951E+00  0.88000000000E+00 0. -1.
        -11    1    4    4    0    0  0.61292012115E-02 -0.40635214329E-02  0.69316249349E-01  0.69707122008E-01  0.51100000000E-03 0. -1.
         11    1    4    4    0    0 -0.13525976176E-01 -0.39744804720E-02  0.57730215384E-01  0.59428843298E-01  0.51100000000E-03 0.  1.
</event>
<event>
 8    1  0.1161093E+005  0.1043930E+01  0.7957747E-01            NaN
         13   -1    0    0    0    0  0.00000000000E+00  0.00000000000E+00  0.74505805969E-08  0.10566000000E+00  0.10566000000E+00 0. -1.
     999900   -1    0    0    0    0 -0.00000000000E+00 -0.00000000000E+00 -0.74505805969E-08  0.93827000000E+00  0.93827000000E+00 0. -1.
     999902    2    1    2    0    0  0.18745071047E-01  0.13579786322E-01  0.18735693200E-02  0.10207071977E+01  0.10204429846E+01 0.  0.
     999903    2    3    3    0    0 -0.42658308384E-02  0.10514482160E+00 -0.77375346372E-01  0.13211615119E+00  0.19852011399E-01 0.  0.
         14    1    1    2    0    0 -0.18745071047E-01 -0.13579786322E-01 -0.18735693200E-02  0.23222802309E-01  0.00000000000E+00 0.  1.
     999901    1    3    3    0    0  0.23010901885E-01 -0.91565035275E-01  0.79248915692E-01  0.88859104651E+00  0.88000000000E+00 0.  1.
        -11    1    4    4    0    0 -0.10939294399E-01  0.67015507966E-01 -0.43234346561E-01  0.80499790766E-01  0.51100000000E-03 0.  1.
         11    1    4    4    0    0  0.66734635604E-02  0.38129313631E-01 -0.34140999811E-01  0.51616360420E-01  0.51100000000E-03 0. -1.
</event>
<event>
 8    1  0.1161093E+005  0.1043930E+01  0.7957747E-01            NaN
         13   -1    0    0    0    0  0.00000000000E+00  0.00000000000E+00  0.74505805969E-08  0.10566000000E+00  0.10566000000E+00 0.  1.
     999900   -1    0    0    0    0 -0.00000000000E+00 -0.00000000000E+00 -0.74505805969E-08  0.93827000000E+00  0.93827000000E+00 0.  1.
     999902    2    1    2    0    0  0.16337151139E-01  0.17308173762E-01 -0.44623732572E-02  0.10197145471E+01  0.10194269809E+01 0.  0.
     999903    2    3    3    0    0  0.77501388158E-01  0.82391656846E-01  0.65718016743E-01  0.13241402818E+00  0.20488212436E-01 0.  0.
         14    1    1    2    0    0 -0.16337151139E-01 -0.17308173762E-01  0.44623732572E-02  0.24215452946E-01  0.00000000000E+00 0. -1.
     999901    1    3    3    0    0 -0.61164237019E-01 -0.65083483084E-01 -0.70180390000E-01  0.88730051888E+00  0.88000000000E+00 0.  1.
        -11    1    4    4    0    0  0.42289389047E-01  0.32157085126E-01  0.24510913581E-01  0.58510824258E-01  0.51100000000E-03 0. -1.
         11    1    4    4    0    0  0.35211999111E-01  0.50234571721E-01  0.41207103162E-01  0.73903203918E-01  0.51100000000E-03 0.  1.
</event>
<event>
 8    1  0.1161093E+005  0.1043930E+01  0.7957747E-01            NaN
         13   -1    0    0    0    0  0.00000000000E+00  0.00000000000E+00  0.74505805969E-08  0.10566000000E+00  0.10566000000E+00 0.  1.
     999900   -1    0    0    0    0 -0.00000000000E+00 -0.00000000000E+00 -0.74505805969E-08  0.93827000000E+00  0.93827000000E+00 0. -1.
     999902    2    1    2    0    0 -0.28226000948E-02  0.18633837836E-02 -0.22819670915E-01  0.10208610457E+01  0.10206003616E+01 0.  0.
     999903    2    3    3    0    0 -0.11441513610E+00 -0.57828738331E-01  0.17209510792E-01  0.13090690145E+00  0.20136117794E-01 0.  0.
         14    1    1    2    0    0  0.28226000948E-02 -0.18633837836E-02  0.22819670915E-01  0.23068954270E-01  0.00000000000E+00 0.  1.
     999901    1    3    3    0    0  0.11159253600E+00  0.59692122115E-01 -0.40029181707E-01  0.88995414428E+00  0.88000000000E+00 0. -1.
        -11    1    4    4    0    0 -0.70845644651E-01 -0.41448818653E-01  0.26152813319E-02  0.82123143822E-01  0.51100000000E-03 0. -1.
         11    1    4    4    0    0 -0.43569491448E-01 -0.16379919678E-01  0.14594229460E-01  0.48783757627E-01  0.51100000000E-03 0.  1.
</event>
<event>
 8    1  0.1161093E+005  0.1043930E+01  0.7957747E-01            NaN
         13   -1    0    0    0    0  0.00000000000E+00  0.00000000000E+00  0.74505805969E-08  0.10566000000E+00  0.10566000000E+00 0.  1.
     999900   -1    0    0    0    0 -0.00000000000E+00 -0.00000000000E+00 -0.74505805969E-08  0.93827000000E+00  0.93827000000E+00 0. -1.
     999902    2    1    2    0    0  0.22892626556E-01  0.33999438753E-02 -0.86181350383E-03  0.10207702355E+01  0.10205074713E+01 0.  0.
     999903    2    3    3    0    0  0.74265846917E-01 -0.10343548068E+00  0.29590029538E-01  0.13229945351E+00  0.20328818717E-01 0.  0.
         14    1    1    2    0    0 -0.22892626556E-01 -0.33999438753E-02  0.86181350383E-03  0.23159764496E-01  0.00000000000E+00 0. -1.
     999901    1    3    3    0    0 -0.51373220361E-01  0.10683542455E+00 -0.30451843042E-01  0.88847078199E+00  0.88000000000E+00 0. -1.
        -11    1    4    4    0    0  0.45937512679E-01 -0.46627501247E-01  0.14227988245E-01  0.66985638119E-01  0.51100000000E-03 0. -1.
         11    1    4    4    0    0  0.28328334239E-01 -0.56807979429E-01  0.15362041293E-01  0.65313815393E-01  0.51100000000E-03 0.  1.
</event>
<event>
 8    1  0.1161093E+005  0.1043930E+01  0.7957747E-01            NaN
         13   -1    0    0    0    0  0.00000000000E+00  0.00000000000E+00  0.74505805969E-08  0.10566000000E+00  0.10566000000E+00 0.  1.
     999900   -1    0    0    0    0 -0.00000000000E+00 -0.00000000000E+00 -0.74505805969E-08  0.93827000000E+00  0.93827000000E+00 0.  1.
     999902    2    1    2    0    0 -0.16720227806E-01  0.15257522270E-01 -0.88547760500E-02  0.10196243409E+01  0.10193346024E+01 0.  0.
     999903    2    3    3    0    0  0.59961556242E-01  0.11175408456E+00 -0.25588972216E-01  0.13087706760E+00  0.19739495445E-01 0.  0.
         14    1    1    2    0    0  0.16720227806E-01 -0.15257522270E-01  0.88547760500E-02  0.24305659065E-01  0.00000000000E+00 0.  1.
     999901    1    3    3    0    0 -0.76681784049E-01 -0.96496562295E-01  0.16734196166E-01  0.88874727334E+00  0.88000000000E+00 0. -1.
        -11    1    4    4    0    0  0.74209337943E-02  0.21557085453E-01  0.20453165216E-02  0.22895908636E-01  0.51100000000E-03 0.  1.
         11    1    4    4    0    0  0.52540622448E-01  0.90196999112E-01 -0.27634288737E-01  0.10798115896E+00  0.51100000000E-03 0. -1.
</event>
<event>
 8    1  0.1161093E+005  0.1043930E+01  0.7957747E-01            NaN
         13   -1    0    0    0    0  0.00000000000E+00  0.00000000000E+00  0.74505805969E-08  0.10566000000E+00  0.10566000000E+00 0.  1.
     999900   -1    0    0    0    0 -0.00000000000E+00 -0.00000000000E+00 -0.74505805969E-08  0.93827000000E+00  0.93827000000E+00 0.  1.
     999902    2    1    2    0    0 -0.19418073027E-01 -0.14485268049E-01 -0.10617620981E-01  0.10174796989E+01  0.10171358411E+01 0.  0.
     999903    2    3    3    0    0  0.38680114440E-01  0.54145758820E-01  0.10468120661E+00  0.12541499452E+00  0.18516246431E-01 0.  0.
         14    1    1    2    0    0  0.19418073027E-01  0.14485268049E-01  0.10617620981E-01  0.26450301054E-01  0.00000000000E+00 0. -1.
     999901    1    3    3    0    0 -0.58098187467E-01 -0.68631026868E-01 -0.11529882759E+00  0.89206470442E+00  0.88000000000E+00 0.  1.
        -11    1    4    4    0    0  0.38491331366E-01  0.48103424587E-01  0.86129820591E-01  0.10589678543E+00  0.51100000000E-03 0.  1.
         11    1    4    4    0    0  0.18878307324E-03  0.60423342322E-02  0.18551386021E-01  0.19518209097E-01  0.51100000000E-03 0. -1.
</event>
<event>
 8    1  0.1161093E+005  0.1043930E+01  0.7957747E-01            NaN
         13   -1    0    0    0    0  0.00000000000E+00  0.00000000000E+00  0.74505805969E-08  0.10566000000E+00  0.10566000000E+00 0.  1.
     999900   -1    0    0    0    0 -0.00000000000E+00 -0.00000000000E+00 -0.74505805969E-08  0.93827000000E+00  0.93827000000E+00 0. -1.
     999902    2    1    2    0    0  0.12465365749E-01  0.22314102862E-01  0.20650708025E-02  0.10182868908E+01  0.10179639596E+01 0.  0.
     999903    2    3    3    0    0  0.66627395481E-01 -0.15083821200E-01 -0.10758598689E+00  0.12904255735E+00  0.20260936400E-01 0.  0.
         14    1    1    2    0    0 -0.12465365749E-01 -0.22314102862E-01 -0.20650708025E-02  0.25643109157E-01  0.00000000000E+00 0. -1.
     999901    1    3    3    0    0 -0.54162029732E-01  0.37397924062E-01  0.10965105769E+00  0.88924433349E+00  0.88000000000E+00 0.  1.
        -11    1    4    4    0    0  0.43872300786E-02 -0.48158078017E-02 -0.20447766741E-01  0.21466533913E-01  0.51100000000E-03 0.  1.
         11    1    4    4    0    0  0.62240165403E-01 -0.10268013398E-01 -0.87138220145E-01  0.10757602344E+00  0.51100000000E-03 0. -1.
</event>
<event>
 8    1  0.1161093E+005  0.1043930E+01  0.7957747E-01            NaN
         13   -1    0    0    0    0  0.00000000000E+00  0.00000000000E+00  0.74505805969E-08  0.10566000000E+00  0.10566000000E+00 0.  1.
     999900   -1    0    0    0    0 -0.00000000000E+00 -0.00000000000E+00 -0.74505805969E-08  0.93827000000E+00  0.93827000000E+00 0.  1.
     999902    2    1    2    0    0 -0.76102819543E-02 -0.23152214518E-01  0.10823858865E-02  0.10195350623E+01  0.10192431654E+01 0.  0.
     999903    2    3    3    0    0  0.66748739985E-01  0.16770563417E-01  0.10782631338E+00  0.12907599054E+00  0.17246779082E-01 0.  0.
         14    1    1    2    0    0  0.76102819543E-02  0.23152214518E-01 -0.10823858865E-02  0.24394937748E-01  0.00000000000E+00 0.  1.
     999901    1    3    3    0    0 -0.74359021940E-01 -0.39922777935E-01 -0.10674392750E+00  0.89045907171E+00  0.88000000000E+00 0.  1.
        -11    1    4    4    0    0  0.66003618743E-01  0.13488587599E-01  0.10437093809E+00  0.12422549465E+00  0.51100000000E-03 0.  1.
         11    1    4    4    0    0  0.74512124234E-03  0.32819758178E-02  0.34553752938E-02  0.48504958876E-02  0.51100000000E-03 0. -1.
</event>
<event>
 8    1  0.1161093E+005  0.1043930E+01  0.7957747E-01            NaN
         13   -1    0    0    0    0  0.00000000000E+00  0.00000000000E+00  0.74505805969E-08  0.10566000000E+00  0.10566000000E+00 0.  1.
     999900   -1    0    0    0    0 -0.00000000000E+00 -0.00000000000E+00 -0.74505805969E-08  0.93827000000E+00  0.93827000000E+00 0.  1.
     999902    2    1    2    0    0  0.20354866218E-01  0.37094036332E-02  0.87343977588E-02  0.10214718176E+01  0.10212249038E+01 0.  0.
     999903    2    3    3    0    0 -0.27239274748E-01 -0.95118428364E-01  0.83683406390E-01  0.13150019076E+00  0.22358313005E-01 0.  0.
         14    1    1    2    0    0 -0.20354866218E-01 -0.37094036332E-02 -0.87343977588E-02  0.22458182435E-01  0.00000000000E+00 0.  1.
     999901    1    3    3    0    0  0.47594140966E-01  0.98827831997E-01 -0.74949008631E-01  0.88997162681E+00  0.88000000000E+00 0.  1.
        -11    1    4    4    0    0 -0.18925361705E-01 -0.40862302898E-01  0.26588195561E-01  0.52298091533E-01  0.51100000000E-03 0. -1.
         11    1    4    4    0    0 -0.83139130431E-02 -0.54256125466E-01  0.57095210828E-01  0.79202099222E-01  0.51100000000E-03 0.  1.
</event>
<event>
 8    1  0.1161093E+005  0.1043930E+01  0.7957747E-01            NaN
         13   -1    0    0    0    0  0.00000000000E+00  0.00000000000E+00  0.74505805969E-08  0.10566000000E+00  0.10566000000E+00 0. -1.
     999900   -1    0    0    0    0 -0.00000000000E+00 -0.00000000000E+00 -0.74505805969E-08  0.93827000000E+00  0.93827000000E+00 0.  1.
     999902    2    1    2    0    0 -0.17514605283E-01 -0.88536927352E-03 -0.15761187072E-01  0.10203511897E+01  0.10200787176E+01 0.  0.
     999903    2    3    3    0    0 -0.35409162800E-01  0.54375805050E-03 -0.12677585014E+00  0.13319477001E+00  0.20362369620E-01 0.  0.
         14    1    1    2    0    0  0.17514605283E-01  0.88536927352E-03  0.15761187072E-01  0.23578810294E-01  0.00000000000E+00 0. -1.
     999901    1    3    3    0    0  0.17894557517E-01 -0.14291273240E-02  0.11101466307E+00  0.88715641970E+00  0.88000000000E+00 0. -1.
        -11    1    4    4    0    0 -0.25120395017E-01 -0.91123027291E-02 -0.82098124975E-01  0.86339049985E-01  0.51100000000E-03 0.  1.
         11    1    4    4    0    0 -0.10288767783E-01  0.96560607796E-02 -0.44677725163E-01  0.46855720024E-01  0.51100000000E-03 0. -1.
</event>
<event>
 8    1  0.1161093E+005  0.1043930E+01  0.7957747E-01            NaN
         13   -1    0    0    0    0  0.00000000000E+00  0.00000000000E+00  0.74505805969E-08  0.10566000000E+00  0.10566000000E+00 0.  1.
     999900   -1    0    0    0    0 -0.00000000000E+00 -0.00000000000E+00 -0.74505805969E-08  0.93827000000E+00  0.93827000000E+00 0.  1.
     999902    2    1    2    0    0  0.20239679411E-01 -0.33173939806E-03 -0.15379070822E-01  0.10185081493E+01  0.10181908366E+01 0.  0.
     999903    2    3    3    0    0  0.11574596721E+00 -0.12853000644E-01  0.55221759665E-01  0.13044131045E+00  0.20078948700E-01 0.  0.
         14    1    1    2    0    0 -0.20239679411E-01  0.33173939806E-03  0.15379070822E-01  0.25421850700E-01  0.00000000000E+00 0.  1.
     999901    1    3    3    0    0 -0.95506287801E-01  0.12521261246E-01 -0.70600830487E-01  0.88806683885E+00  0.88000000000E+00 0.  1.
        -11    1    4    4    0    0  0.33214525017E-01  0.66469382472E-03  0.71796479837E-02  0.33991983705E-01  0.51100000000E-03 0. -1.
         11    1    4    4    0    0  0.82531442195E-01 -0.13517694468E-01  0.48042111681E-01  0.96449326749E-01  0.51100000000E-03 0.  1.
</event>
<event>
 8    1  0.1161093E+005  0.1043930E+01  0.7957747E-01            NaN
         13   -1    0    0    0    0  0.00000000000E+00  0.00000000000E+00  0.74505805969E-08  0.10566000000E+00  0.10566000000E+00 0.  1.
     999900   -1    0    0    0    0 -0.00000000000E+00 -0.00000000000E+00 -0.74505805969E-08  0.93827000000E+00  0.93827000000E+00 0.  1.
     999902    2    1    2    0    0 -0.27369243070E-02  0.55865827586E-02 -0.24627936550E-01  0.10185285055E+01  0.10182117072E+01 0.  0.
     999903    2    3    3    0    0 -0.65029625096E-01  0.70786950893E-01  0.81656249040E-01  0.12755836201E+00  0.19072182728E-01 0.  0.
         14    1    1    2    0    0  0.27369243070E-02 -0.55865827586E-02  0.24627936550E-01  0.25401494450E-01  0.00000000000E+00 0.  1.
     999901    1    3    3    0    0  0.62292700789E-01 -0.65200368135E-01 -0.10628418559E+00  0.89097014354E+00  0.88000000000E+00 0.  1.
        -11    1    4    4    0    0 -0.45457354679E-01  0.60185228400E-01  0.58667897093E-01  0.95555303790E-01  0.51100000000E-03 0.  1.
         11    1    4    4    0    0 -0.19572270417E-01  0.10601722493E-01  0.22988351946E-01  0.32003058218E-01  0.51100000000E-03 0. -1.
</event>
<event>
 8    1  0.1161093E+005  0.1043930E+01  0.7957747E-01            NaN
         13   -1    0    0    0    0  0.00000000000E+00  0.00000000000E+00  0.74505805969E-08  0.10566000000E+00  0.10566000000E+00 0. -1.
     999900   -1    0    0    0    0 -0.00000000000E+00 -0.00000000000E+00 -0.74505805969E-08  0.93827000000E+00  0.93827000000E+00 0. -1.
     999902    2    1    2    0    0  0.12779872011E-02  0.67690496136E-02  0.22813626212E-01  0.10200990364E+01  0.10198206358E+01 0.  0.
     999903    2    3    3    0    0 -0.15188394070E-01 -0.12160042346E+00 -0.34195550941E-01  0.12880788893E+00  0.20119300350E-01 0.  0.
         14    1    1    2    0    0 -0.12779872011E-02 -0.67690496136E-02 -0.22813626212E-01  0.23830963575E-01  0.00000000000E+00 0.  1.
     999901    1    3    3    0    0  0.16466381271E-01  0.12836947307E+00  0.57009177153E-01  0.89129114750E+00  0.88000000000E+00 0. -1.
        -11    1    4    4    0    0  0.97593437587E-03 -0.54966327956E-02 -0.60573342709E-02  0.82533532256E-02  0.51100000000E-03 0.  1.
         11    1    4    4    0    0 -0.16164328446E-01 -0.11610379066E+00 -0.28138216670E-01  0.12055453570E+00  0.51100000000E-03 0. -1.
</event>
<event>
 8    1  0.1161093E+005  0.1043930E+01  0.7957747E-01            NaN
         13   -1    0    0    0    0  0.00000000000E+00  0.00000000000E+00  0.74505805969E-08  0.10566000000E+00  0.10566000000E+00 0.  1.
     999900   -1    0    0    0    0 -0.00000000000E+00 -0.00000000000E+00 -0.74505805969E-08  0.93827000000E+00  0.93827000000E+00 0.  1.
     999902    2    1    2    0    0  0.23038972017E-01  0.35800934895E-02 -0.25612101057E-02  0.10204742737E+01  0.10202046717E+01 0.  0.
     999903    2    3    3    0    0 -0.10776562413E+00 -0.91434737963E-02 -0.66523757834E-01  0.12841881627E+00  0.19208049348E-01 0.  0.
         14    1    1    2    0    0 -0.23038972017E-01 -0.35800934895E-02  0.25612101057E-02  0.23455726342E-01  0.00000000000E+00 0.  1.
     999901    1    3    3    0    0  0.13080459615E+00  0.12723567286E-01  0.63962547729E-01  0.89205545738E+00  0.88000000000E+00 0. -1.
        -11    1    4    4    0    0 -0.33681948227E-01 -0.54927201648E-02 -0.31280311569E-01  0.46296464487E-01  0.51100000000E-03 0. -1.
         11    1    4    4    0    0 -0.74083675903E-01 -0.36507536316E-02 -0.35243446265E-01  0.82122351787E-01  0.51100000000E-03 0.  1.
</event>
<event>
 8    1  0.1161093E+005  0.1043930E+01  0.7957747E-01            NaN
         13   -1    0    0    0    0  0.00000000000E+00  0.00000000000E+00  0.74505805969E-08  0.10566000000E+00  0.10566000000E+00 0.  1.
     999900   -1    0    0    0    0 -0.00000000000E+00 -0.00000000000E+00 -0.74505805969E-08  0.93827000000E+00  0.93827000000E+00 0.  1.
     999902    2    1    2    0    0  0.10216158888E-01  0.40235936984E-02  0.21074936668E-01  0.10201663268E+01  0.10198895147E+01 0.  0.
     999903    2    3    3    0    0  0.91604625730E-01 -0.48354778580E-01 -0.75405039685E-01  0.12961820218E+00  0.19630747816E-01 0.  0.
         14    1    1    2    0    0 -0.10216158888E-01 -0.40235936984E-02 -0.21074936668E-01  0.23763673206E-01  0.00000000000E+00 0. -1.
     999901    1    3    3    0    0 -0.81388466842E-01  0.52378372279E-01  0.96479976353E-01  0.89054812461E+00  0.88000000000E+00 0. -1.
        -11    1    4    4    0    0  0.15293264503E-01 -0.83995161270E-02 -0.44407657514E-02  0.18011588819E-01  0.51100000000E-03 0.  1.
         11    1    4    4    0    0  0.76311361227E-01 -0.39955262453E-01 -0.70964273934E-01  0.11160661336E+00  0.51100000000E-03 0. -1.
</event>
<event>
 8    1  0.1161093E+005  0.1043930E+01  0.7957747E-01            NaN
         13   -1    0    0    0    0  0.00000000000E+00  0.00000000000E+00  0.74505805969E-08  0.10566000000E+00  0.10566000000E+00 0.  1.
     999900   -1    0    0    0    0 -0.00000000000E+00 -0.00000000000E+00 -0.74505805969E-08  0.93827000000E+00  0.93827000000E+00 0.  1.
     999902    2    1    2    0    0 -0.86111103714E-02 -0.17939353631E-01 -0.14345245975E-01  0.10193992497E+01  0.10191040538E+01 0.  0.
     999903    2    3    3    0    0  0.12028950501E+00  0.25450638467E-01 -0.32639738117E-01  0.12876310144E+00  0.19931978702E-01 0.  0.
         14    1    1    2    0    0  0.86111103714E-02  0.17939353631E-01  0.14345245975E-01  0.24530750348E-01  0.00000000000E+00 0.  1.
     999901    1    3    3    0    0 -0.12890061538E+00 -0.43389992099E-01  0.18294492142E-01  0.89063614821E+00  0.88000000000E+00 0.  1.
        -11    1    4    4    0    0  0.67704168559E-01  0.12456315416E-01 -0.81777381524E-02  0.69326407351E-01  0.51100000000E-03 0. -1.
         11    1    4    4    0    0  0.52585336448E-01  0.12994323052E-01 -0.24461999965E-01  0.59436694089E-01  0.51100000000E-03 0.  1.
</event>
<event>
 8    1  0.1161093E+005  0.1043930E+01  0.7957747E-01            NaN
         13   -1    0    0    0    0  0.00000000000E+00  0.00000000000E+00  0.74505805969E-08  0.10566000000E+00  0.10566000000E+00 0.  1.
     999900   -1    0    0    0    0 -0.00000000000E+00 -0.00000000000E+00 -0.74505805969E-08  0.93827000000E+00  0.93827000000E+00 0. -1.
     999902    2    1    2    0    0 -0.30644104902E-02 -0.20798752407E-01 -0.11192319317E-01  0.10201130580E+01  0.10198349888E+01 0.  0.
     999903    2    3    3    0    0  0.15647519126E-01  0.12394929290E+00 -0.19809251099E-01  0.12805006448E+00  0.19903279131E-01 0.  0.
         14    1    1    2    0    0  0.30644104902E-02  0.20798752407E-01  0.11192319317E-01  0.23816941975E-01  0.00000000000E+00 0. -1.
     999901    1    3    3    0    0 -0.18711929616E-01 -0.14474804531E+00  0.86169317816E-02  0.89206299354E+00  0.88000000000E+00 0.  1.
        -11    1    4    4    0    0 -0.38559113350E-02  0.33814105712E-01 -0.17934782647E-02  0.34084299649E-01  0.51100000000E-03 0. -1.
         11    1    4    4    0    0  0.19503430461E-01  0.90135187189E-01 -0.18015772834E-01  0.93965764836E-01  0.51100000000E-03 0.  1.
</event>
<event>
 8    1  0.1285064E+005  0.1043930E+01  0.7957747E-01            NaN
         13   -1    0    0    0    0  0.00000000000E+00  0.00000000000E+00  0.74505805969E-08  0.10566000000E+00  0.10566000000E+00 0.  1.
     999900   -1    0    0    0    0 -0.00000000000E+00 -0.00000000000E+00 -0.74505805969E-08  0.93827000000E+00  0.93827000000E+00 0.  1.
     999902    2    1    2    0    0 -0.22960191108E-01 -0.30914063145E-03 -0.21387918147E-02  0.10208683354E+01  0.10206078178E+01 0.  0.
     999903    2    3    3    0    0 -0.89800497681E-01  0.96067647712E-01  0.28679166235E-02  0.13307264999E+00  0.20173817375E-01 0.  0.
         14    1    1    2    0    0  0.22960191108E-01  0.30914063145E-03  0.21387918147E-02  0.23061664599E-01  0.00000000000E+00 0. -1.
     999901    1    3    3    0    0  0.66840306574E-01 -0.96376788344E-01 -0.50067084382E-02  0.88779568542E+00  0.88000000000E+00 0. -1.
        -11    1    4    4    0    0 -0.42206926936E-01  0.59780615496E-01  0.23876773537E-02  0.73219592970E-01  0.51100000000E-03 0. -1.
         11    1    4    4    0    0 -0.47593570745E-01  0.36287032216E-01  0.48023926974E-03  0.59853057015E-01  0.51100000000E-03 0.  1.
</event>
<event>
 8    1  0.1161093E+005  0.1043930E+01  0.7957747E-01            NaN
         13   -1    0    0    0    0  0.00000000000E+00  0.00000000000E+00  0.74505805969E-08  0.10566000000E+00  0.10566000000E+00 0.  1.
     999900   -1    0    0    0    0 -0.00000000000E+00 -0.00000000000E+00 -0.74505805969E-08  0.93827000000E+00  0.93827000000E+00 0.  1.
     999902    2    1    2    0    0 -0.69394440132E-02  0.14802276921E-01 -0.16730876868E-01  0.10205380029E+01  0.10202698809E+01 0.  0.
     999903    2    3    3    0    0  0.94690412415E-01  0.54945179159E-01  0.67192507824E-01  0.12981738748E+00  0.18774292770E-01 0.  0.
         14    1    1    2    0    0  0.69394440132E-02 -0.14802276921E-01  0.16730876868E-01  0.23391997051E-01  0.00000000000E+00 0.  1.
     999901    1    3    3    0    0 -0.10162985643E+00 -0.40142902238E-01 -0.83923384692E-01  0.89072061547E+00  0.88000000000E+00 0. -1.
        -11    1    4    4    0    0  0.51470259170E-01  0.39969831521E-01  0.36011611968E-01  0.74457184532E-01  0.51100000000E-03 0. -1.
         11    1    4    4    0    0  0.43220153245E-01  0.14975347638E-01  0.31180895855E-01  0.55360202951E-01  0.51100000000E-03 0.  1.
</event>
<event>
 8    1  0.1161093E+005  0.1043930E+01  0.7957747E-01            NaN
         13   -1    0    0    0    0  0.00000000000E+00  0.00000000000E+00  0.74505805969E-08  0.10566000000E+00  0.10566000000E+00 0. -1.
     999900   -1    0    0    0    0 -0.00000000000E+00 -0.00000000000E+00 -0.74505805969E-08  0.93827000000E+00  0.93827000000E+00 0.  1.
     999902    2    1    2    0    0 -0.10408464004E-01 -0.19322320777E-01 -0.21038704082E-02  0.10218819961E+01  0.10216441159E+01 0.  0.
     999903    2    3    3    0    0  0.10533139756E+00 -0.20712036126E-01  0.72772138963E-01  0.13114967741E+00  0.19513121819E-01 0.  0.
         14    1    1    2    0    0  0.10408464004E-01  0.19322320777E-01  0.21038704082E-02  0.22048003851E-01  0.00000000000E+00 0.  1.
     999901    1    3    3    0    0 -0.11573986157E+00  0.13897153486E-02 -0.74876009371E-01  0.89073231874E+00  0.88000000000E+00 0.  1.
        -11    1    4    4    0    0  0.22515476281E-01 -0.28031219544E-02  0.25448168997E-01  0.34098014475E-01  0.51100000000E-03 0. -1.
         11    1    4    4    0    0  0.82815921281E-01 -0.17908914171E-01  0.47323969966E-01  0.97051662936E-01  0.51100000000E-03 0.  1.
</event>
<event>
 8    1  0.1161093E+005  0.1043930E+01  0.7957747E-01            NaN
         13   -1    0    0    0    0  0.00000000000E+00  0.00000000000E+00  0.74505805969E-08  0.10566000000E+00  0.10566000000E+00 0. -1.
     999900   -1    0    0    0    0 -0.00000000000E+00 -0.00000000000E+00 -0.74505805969E-08  0.93827000000E+00  0.93827000000E+00 0. -1.
     999902    2    1    2    0    0  0.10916867862E-01  0.15613783350E-01 -0.27986901407E-03  0.10248762192E+01  0.10246990867E+01 0.  0.
     999903    2    3    3    0    0  0.13238709482E+00  0.20951993109E-01  0.16870371021E-01  0.13635067473E+00  0.18481563554E-01 0.  0.
         14    1    1    2    0    0 -0.10916867862E-01 -0.15613783350E-01  0.27986901407E-03  0.19053780756E-01  0.00000000000E+00 0. -1.
     999901    1    3    3    0    0 -0.12147022696E+00 -0.53382097587E-02 -0.17150240035E-01  0.88852554451E+00  0.88000000000E+00 0. -1.
        -11    1    4    4    0    0  0.47424078218E-01  0.71855253046E-02  0.14996648017E-01  0.50257691366E-01  0.51100000000E-03 0.  1.
         11    1    4    4    0    0  0.84963016600E-01  0.13766467804E-01  0.18737230039E-02  0.86092983364E-01  0.51100000000E-03 0. -1.
</event>
<event>
 8    1  0.1161093E+005  0.1043930E+01  0.7957747E-01            NaN
         13   -1    0    0    0    0  0.00000000000E+00  0.00000000000E+00  0.74505805969E-08  0.10566000000E+00  0.10566000000E+00 0. -1.
     999900   -1    0    0    0    0 -0.00000000000E+00 -0.00000000000E+00 -0.74505805969E-08  0.93827000000E+00  0.93827000000E+00 0.  1.
     999902    2    1    2    0    0  0.32138618753E-03  0.57587147250E-02 -0.22081096001E-01  0.10211080613E+01  0.10208529924E+01 0.  0.
     999903    2    3    3    0    0  0.50992471474E-01 -0.41978535765E-01 -0.11482197229E+00  0.13350044863E+00  0.16608878773E-01 0.  0.
         14    1    1    2    0    0 -0.32138618753E-03 -0.57587147250E-02  0.22081096001E-01  0.22821938677E-01  0.00000000000E+00 0. -1.
     999901    1    3    3    0    0 -0.50671085286E-01  0.47737250490E-01  0.92740876284E-01  0.88760761269E+00  0.88000000000E+00 0. -1.
        -11    1    4    4    0    0  0.37207331361E-01 -0.38171232732E-01 -0.96582790747E-01  0.11031738351E+00  0.51100000000E-03 0.  1.
         11    1    4    4    0    0  0.13785140113E-01 -0.38073030329E-02 -0.18239181538E-01  0.23183065123E-01  0.51100000000E-03 0. -1.
</event>
<event>
 8    1  0.1161093E+005  0.1043930E+01  0.7957747E-01            NaN
         13   -1    0    0    0    0  0.00000000000E+00  0.00000000000E+00  0.74505805969E-08  0.10566000000E+00  0.10566000000E+00 0. -1.
     999900   -1    0    0    0    0 -0.00000000000E+00 -0.00000000000E+00 -0.74505805969E-08  0.93827000000E+00  0.93827000000E+00 0.  1.
     999902    2    1    2    0    0  0.16665134935E-01  0.16097886840E-01  0.12450584961E-02  0.10207261457E+01  0.10204623686E+01 0.  0.
     999903    2    3    3    0    0  0.59205476737E-01  0.29660562739E-01 -0.11277222717E+00  0.13224791397E+00  0.19669724708E-01 0.  0.
         14    1    1    2    0    0 -0.16665134935E-01 -0.16097886840E-01 -0.12450584961E-02  0.23203854287E-01  0.00000000000E+00 0.  1.
     999901    1    3    3    0    0 -0.42540341802E-01 -0.13562675899E-01  0.11401728566E+00  0.88847823175E+00  0.88000000000E+00 0. -1.
        -11    1    4    4    0    0  0.39233275273E-01  0.96790639898E-02 -0.73333436900E-01  0.83731644298E-01  0.51100000000E-03 0.  1.
         11    1    4    4    0    0  0.19972201465E-01  0.19981498749E-01 -0.39438790268E-01  0.48516269667E-01  0.51100000000E-03 0. -1.
</event>
<event>
 8    1  0.1161093E+005  0.1043930E+01  0.7957747E-01            NaN
         13   -1    0    0    0    0  0.00000000000E+00  0.00000000000E+00  0.74505805969E-08  0.10566000000E+00  0.10566000000E+00 0.  1.
     999900   -1    0    0    0    0 -0.00000000000E+00 -0.00000000000E+00 -0.74505805969E-08  0.93827000000E+00  0.93827000000E+00 0. -1.
     999902    2    1    2    0    0  0.22702918443E-01 -0.31468531477E-02  0.36202109893E-02  0.10207258814E+01  0.10204620982E+01 0.  0.
     999903    2    3    3    0    0 -0.56672782179E-01 -0.10772270328E+00  0.41661391475E-01  0.13017338905E+00  0.19835690966E-01 0.  0.
         14    1    1    2    0    0 -0.22702918443E-01  0.31468531477E-02 -0.36202109893E-02  0.23204118560E-01  0.00000000000E+00 0. -1.
     999901    1    3    3    0    0  0.79375700622E-01  0.10457585013E+00 -0.38041180486E-01  0.89055249239E+00  0.88000000000E+00 0. -1.
        -11    1    4    4    0    0 -0.33935660061E-01 -0.43618161328E-01  0.17022874445E-01  0.57829165624E-01  0.51100000000E-03 0.  1.
         11    1    4    4    0    0 -0.22737122118E-01 -0.64104541954E-01  0.24638517031E-01  0.72344223430E-01  0.51100000000E-03 0. -1.
</event>
<event>
 8    1  0.1161093E+005  0.1043930E+01  0.7957747E-01            NaN
         13   -1    0    0    0    0  0.00000000000E+00  0.00000000000E+00  0.74505805969E-08  0.10566000000E+00  0.10566000000E+00 0. -1.
     999900   -1    0    0    0    0 -0.00000000000E+00 -0.00000000000E+00 -0.74505805969E-08  0.93827000000E+00  0.93827000000E+00 0. -1.
     999902    2    1    2    0    0  0.13679982393E-01  0.85976427402E-02  0.17029494739E-01  0.10204552248E+01  0.10201851797E+01 0.  0.
     999903    2    3    3    0    0  0.12024227876E+00 -0.28428198896E-01 -0.40257385362E-01  0.13140616959E+00  0.19507850644E-01 0.  0.
         14    1    1    2    0    0 -0.13679982393E-01 -0.85976427402E-02 -0.17029494739E-01  0.23474775186E-01  0.00000000000E+00 0.  1.
     999901    1    3    3    0    0 -0.10656229637E+00  0.37025841637E-01  0.57286880101E-01  0.88904905522E+00  0.88000000000E+00 0.  1.
        -11    1    4    4    0    0  0.10309607477E+00 -0.22093515688E-01 -0.27060069435E-01  0.10885509886E+00  0.51100000000E-03 0. -1.
         11    1    4    4    0    0  0.17146203992E-01 -0.63346832083E-02 -0.13197315926E-01  0.22551070736E-01  0.51100000000E-03 0.  1.
</event>
<event>
 8    1  0.1161093E+005  0.1043930E+01  0.7957747E-01            NaN
         13   -1    0    0    0    0  0.00000000000E+00  0.00000000000E+00  0.74505805969E-08  0.10566000000E+00  0.10566000000E+00 0.  1.
     999900   -1    0    0    0    0 -0.00000000000E+00 -0.00000000000E+00 -0.74505805969E-08  0.93827000000E+00  0.93827000000E+00 0.  1.
     999902    2    1    2    0    0 -0.11048340261E-01  0.20058107603E-01 -0.50315560397E-02  0.10204841036E+01  0.10202147301E+01 0.  0.
     999903    2    3    3    0    0 -0.22178036189E-01  0.11184657281E+00 -0.66656397818E-01  0.13349672283E+00  0.19410782999E-01 0.  0.
         14    1    1    2    0    0  0.11048340261E-01 -0.20058107603E-01  0.50315560397E-02  0.23445896428E-01  0.00000000000E+00 0. -1.
     999901    1    3    3    0    0  0.11129695928E-01 -0.91788465208E-01  0.61624841778E-01  0.88698738075E+00  0.88000000000E+00 0. -1.
        -11    1    4    4    0    0 -0.52843842344E-02  0.67593306757E-01 -0.33135850983E-01  0.75465393238E-01  0.51100000000E-03 0. -1.
         11    1    4    4    0    0 -0.16893651954E-01  0.44253266054E-01 -0.33520546835E-01  0.58031329589E-01  0.51100000000E-03 0.  1.
</event>
<event>
 8    1  0.1161093E+005  0.1043930E+01  0.7957747E-01            NaN
         13   -1    0    0    0    0  0.00000000000E+00  0.00000000000E+00  0.74505805969E-08  0.10566000000E+00  0.10566000000E+00 0. -1.
     999900   -1    0    0    0    0 -0.00000000000E+00 -0.00000000000E+00 -0.74505805969E-08  0.93827000000E+00  0.93827000000E+00 0. -1.
     999902    2    1    2    0    0 -0.21341324156E-01 -0.85252184371E-02  0.15664080802E-02  0.10208955671E+01  0.10206356714E+01 0.  0.
     999903    2    3    3    0    0 -0.40916342283E-01 -0.65138256259E-01 -0.10643830741E+00  0.13227121677E+00  0.15793099942E-01 0.  0.
         14    1    1    2    0    0  0.21341324156E-01  0.85252184371E-02 -0.15664080802E-02  0.23034432930E-01  0.00000000000E+00 0.  1.
     999901    1    3    3    0    0  0.19575018128E-01  0.56613037822E-01  0.10800471549E+00  0.88862435030E+00  0.88000000000E+00 0.  1.
        -11    1    4    4    0    0 -0.27616624032E-01 -0.42974970009E-01 -0.57439856923E-01  0.76870828371E-01  0.51100000000E-03 0. -1.
         11    1    4    4    0    0 -0.13299718251E-01 -0.22163286250E-01 -0.48998450488E-01  0.55400388394E-01  0.51100000000E-03 0.  1.
</event>
<event>
 8    1  0.1161093E+005  0.1043930E+01  0.7957747E-01            NaN
         13   -1    0    0    0    0  0.00000000000E+00  0.00000000000E+00  0.74505805969E-08  0.10566000000E+00  0.10566000000E+00 0. -1.
     999900   -1    0    0    0    0 -0.00000000000E+00 -0.00000000000E+00 -0.74505805969E-08  0.93827000000E+00  0.93827000000E+00 0.  1.
     999902    2    1    2    0    0 -0.22694207204E-01 -0.18158316649E-02 -0.42645843188E-02  0.10207672937E+01  0.10205044619E+01 0.  0.
     999903    2    3    3    0    0  0.98800708155E-01 -0.56222458725E-01 -0.57848941742E-01  0.12914384238E+00  0.20225903359E-01 0.  0.
         14    1    1    2    0    0  0.22694207204E-01  0.18158316649E-02  0.42645843188E-02  0.23162706333E-01  0.00000000000E+00 0.  1.
     999901    1    3    3    0    0 -0.12149491536E+00  0.54406627060E-01  0.53584357424E-01  0.89162345129E+00  0.88000000000E+00 0. -1.
        -11    1    4    4    0    0  0.57986877184E-01 -0.39104406861E-01 -0.26014803567E-01  0.74623479463E-01  0.51100000000E-03 0.  1.
         11    1    4    4    0    0  0.40813830971E-01 -0.17118051864E-01 -0.31834138175E-01  0.54520362916E-01  0.51100000000E-03 0. -1.
</event>
<event>
 8    1  0.1161093E+005  0.1043930E+01  0.7957747E-01            NaN
         13   -1    0    0    0    0  0.00000000000E+00  0.00000000000E+00  0.74505805969E-08  0.10566000000E+00  0.10566000000E+00 0.  1.
     999900   -1    0    0    0    0 -0.00000000000E+00 -0.00000000000E+00 -0.74505805969E-08  0.93827000000E+00  0.93827000000E+00 0.  1.
     999902    2    1    2    0    0  0.12666762943E-02 -0.12769475045E-01 -0.20149040396E-01  0.10200417646E+01  0.10197620084E+01 0.  0.
     999903    2    3    3    0    0  0.79894020740E-02  0.58878756664E-01 -0.11601399266E+00  0.13191522338E+00  0.20293869335E-01 0.  0.
         14    1    1    2    0    0 -0.12666762943E-02  0.12769475045E-01  0.20149040396E-01  0.23888235402E-01  0.00000000000E+00 0.  1.
     999901    1    3    3    0    0 -0.67227257797E-02 -0.71648231709E-01  0.95864952269E-01  0.88812654122E+00  0.88000000000E+00 0. -1.
        -11    1    4    4    0    0  0.38216142164E-02  0.32343067843E-01 -0.84167243490E-01  0.90250012578E-01  0.51100000000E-03 0. -1.
         11    1    4    4    0    0  0.41677878575E-02  0.26535688821E-01 -0.31846749175E-01  0.41665210798E-01  0.51100000000E-03 0.  1.
</event>
<event>
 8    1  0.1161093E+005  0.1043930E+01  0.7957747E-01            NaN
         13   -1    0    0    0    0  0.00000000000E+00  0.00000000000E+00  0.74505805969E-08  0.10566000000E+00  0.10566000000E+00 0. -1.
     999900   -1    0    0    0    0 -0.00000000000E+00 -0.00000000000E+00 -0.74505805969E-08  0.93827000000E+00  0.93827000000E+00 0.  1.
     999902    2    1    2    0    0 -0.23368111987E-01  0.14225801108E-02 -0.42995928081E-02  0.10201270823E+01  0.10198493444E+01 0.  0.
     999903    2    3    3    0    0 -0.47544938456E-01 -0.11450799341E+00 -0.38532638220E-01  0.13153475835E+00  0.21071941455E-01 0.  0.
         14    1    1    2    0    0  0.23368111987E-01 -0.14225801108E-02  0.42995928081E-02  0.23802917685E-01  0.00000000000E+00 0.  1.
     999901    1    3    3    0    0  0.24176826469E-01  0.11593057352E+00  0.34233045412E-01  0.88859232397E+00  0.88000000000E+00 0. -1.
        -11    1    4    4    0    0 -0.38528619935E-01 -0.66076793064E-01 -0.22744980421E-01  0.79800954826E-01  0.51100000000E-03 0. -1.
         11    1    4    4    0    0 -0.90163185214E-02 -0.48431200350E-01 -0.15787657800E-01  0.51733803521E-01  0.51100000000E-03 0.  1.
</event>
<event>
 8    1  0.1161093E+005  0.1043930E+01  0.7957747E-01            NaN
         13   -1    0    0    0    0  0.00000000000E+00  0.00000000000E+00  0.74505805969E-08  0.10566000000E+00  0.10566000000E+00 0. -1.
     999900   -1    0    0    0    0 -0.00000000000E+00 -0.00000000000E+00 -0.74505805969E-08  0.93827000000E+00  0.93827000000E+00 0. -1.
     999902    2    1    2    0    0 -0.21583612944E-01  0.62036970639E-02  0.53241812961E-02  0.10208500279E+01  0.10205890918E+01 0.  0.
     999903    2    3    3    0    0 -0.54268345858E-01 -0.10416483411E+00  0.56617579456E-01  0.13187279697E+00  0.19736216744E-01 0.  0.
         14    1    1    2    0    0  0.21583612944E-01 -0.62036970639E-02 -0.53241812961E-02  0.23079972085E-01  0.00000000000E+00 0.  1.
     999901    1    3    3    0    0  0.32684732914E-01  0.11036853117E+00 -0.51293398160E-01  0.88897723094E+00  0.88000000000E+00 0. -1.
        -11    1    4    4    0    0 -0.96762558085E-02 -0.37899399224E-01  0.15992210494E-01  0.42261167820E-01  0.51100000000E-03 0.  1.
         11    1    4    4    0    0 -0.44592090049E-01 -0.66265434883E-01  0.40625368962E-01  0.89611629153E-01  0.51100000000E-03 0. -1.
</event>
<event>
 8    1  0.1161093E+005  0.1043930E+01  0.7957747E-01            NaN
         13   -1    0    0    0    0  0.00000000000E+00  0.00000000000E+00  0.74505805969E-08  0.10566000000E+00  0.10566000000E+00 0.  1.
     999900   -1    0    0    0    0 -0.00000000000E+00 -0.00000000000E+00 -0.74505805969E-08  0.93827000000E+00  0.93827000000E+00 0.  1.
     999902    2    1    2    0    0  0.23496314034E-01 -0.12691216314E-02  0.29292339178E-02  0.10202178121E+01  0.10199422122E+01 0.  0.
     999903    2    3    3    0    0  0.10519941261E-01  0.40193483090E-01 -0.12193981698E+00  0.13034152088E+00  0.19834511640E-01 0.  0.
         14    1    1    2    0    0 -0.23496314034E-01  0.12691216314E-02 -0.29292339178E-02  0.23712187884E-01  0.00000000000E+00 0. -1.
     999901    1    3    3    0    0  0.12976372773E-01 -0.41462604722E-01  0.12486905090E+00  0.88987629124E+00  0.88000000000E+00 0. -1.
        -11    1    4    4    0    0  0.13926962364E-01  0.36874261203E-01 -0.93009212317E-01  0.10101804847E+00  0.51100000000E-03 0.  1.
         11    1    4    4    0    0 -0.34070211028E-02  0.33192218870E-02 -0.28930604662E-01  0.29323472404E-01  0.51100000000E-03 0. -1.
</event>
<event>
 8    1  0.1161093E+005  0.1043930E+01  0.7957747E-01            NaN
         13   -1    0    0    0    0  0.00000000000E+00  0.00000000000E+00  0.74505805969E-08  0.10566000000E+00  0.10566000000E+00 0. -1.
     999900   -1    0    0    0    0 -0.00000000000E+00 -0.00000000000E+00 -0.74505805969E-08  0.93827000000E+00  0.93827000000E+00 0.  1.
     999902    2    1    2    0    0 -0.65586128693E-02  0.16124889421E-02  0.22732701854E-01  0.10202152102E+01  0.10199395491E+01 0.  0.
     999903    2    3    3    0    0  0.66310703546E-02  0.29982029902E-01 -0.12231536617E+00  0.12779280982E+00  0.20665435619E-01 0.  0.
         14    1    1    2    0    0  0.65586128693E-02 -0.16124889421E-02 -0.22732701854E-01  0.23714789836E-01  0.00000000000E+00 0.  1.
     999901    1    3    3    0    0 -0.13189683224E-01 -0.28369540960E-01  0.14504806802E+00  0.89242240034E+00  0.88000000000E+00 0. -1.
        -11    1    4    4    0    0 -0.72473988933E-02  0.13007541799E-01 -0.55807107401E-01  0.57761711296E-01  0.51100000000E-03 0.  1.
         11    1    4    4    0    0  0.13878469248E-01  0.16974488103E-01 -0.66508258769E-01  0.70031098525E-01  0.51100000000E-03 0. -1.
</event>
<event>
 8    1  0.1161093E+005  0.1043930E+01  0.7957747E-01            NaN
         13   -1    0    0    0    0  0.00000000000E+00  0.00000000000E+00  0.74505805969E-08  0.10566000000E+00  0.10566000000E+00 0.  1.
     999900   -1    0    0    0    0 -0.00000000000E+00 -0.00000000000E+00 -0.74505805969E-08  0.93827000000E+00  0.93827000000E+00 0.  1.
     999902    2    1    2    0    0 -0.21044383499E-01 -0.98803678297E-02 -0.42018137926E-02  0.10203049501E+01  0.10200313957E+01 0.  0.
     999903    2    3    3    0    0 -0.23628853883E-01  0.14504884779E-01 -0.12663134899E+00  0.13149095877E+00  0.22037678513E-01 0.  0.
         14    1    1    2    0    0  0.21044383499E-01  0.98803678297E-02  0.42018137926E-02  0.23625049936E-01  0.00000000000E+00 0. -1.
     999901    1    3    3    0    0  0.25844703840E-02 -0.24385252609E-01  0.12242953519E+00  0.88881399129E+00  0.88000000000E+00 0. -1.
        -11    1    4    4    0    0 -0.52347935336E-02  0.11108313687E-01 -0.22007178563E-01  0.25206640506E-01  0.51100000000E-03 0. -1.
         11    1    4    4    0    0 -0.18394060350E-01  0.33965710920E-02 -0.10462417042E+00  0.10628431826E+00  0.51100000000E-03 0.  1.
</event>
<event>
 8    1  0.1161093E+005  0.1043930E+01  0.7957747E-01            NaN
         13   -1    0    0    0    0  0.00000000000E+00  0.00000000000E+00  0.74505805969E-08  0.10566000000E+00  0.10566000000E+00 0. -1.
     999900   -1    0    0    0    0 -0.00000000000E+00 -0.00000000000E+00 -0.74505805969E-08  0.93827000000E+00  0.93827000000E+00 0.  1.
     999902    2    1    2    0    0 -0.11601562009E-01 -0.75536551334E-02 -0.18260962498E-01  0.10210145751E+01  0.10207573884E+01 0.  0.
     999903    2    3    3    0    0  0.11092920892E+00  0.48248550666E-01 -0.44148219571E-01  0.13039803243E+00  0.20527287623E-01 0.  0.
         14    1    1    2    0    0  0.11601562009E-01  0.75536551334E-02  0.18260962498E-01  0.22915424898E-01  0.00000000000E+00 0. -1.
     999901    1    3    3    0    0 -0.12253077093E+00 -0.55802205800E-01  0.25887257073E-01  0.89061654267E+00  0.88000000000E+00 0. -1.
        -11    1    4    4    0    0  0.27584500450E-01  0.20647043434E-01 -0.75459655893E-02  0.35276164550E-01  0.51100000000E-03 0.  1.
         11    1    4    4    0    0  0.83344708473E-01  0.27601507232E-01 -0.36602253981E-01  0.95121867883E-01  0.51100000000E-03 0. -1.
</event>
<event>
 8    1  0.1161093E+005  0.1043930E+01  0.7957747E-01            NaN
         13   -1    0    0    0    0  0.00000000000E+00  0.00000000000E+00  0.74505805969E-08  0.10566000000E+00  0.10566000000E+00 0.  1.
     999900   -1    0    0    0    0 -0.00000000000E+00 -0.00000000000E+00 -0.74505805969E-08  0.93827000000E+00  0.93827000000E+00 0.  1.
     999902    2    1    2    0    0  0.14032683940E-01  0.16853296798E-01 -0.69888240352E-02  0.10209127566E+01  0.10206532531E+01 0.  0.
     999903    2    3    3    0    0  0.10513619961E+00 -0.57608604382E-01 -0.51476505574E-01  0.13196755071E+00  0.19830079333E-01 0.  0.
         14    1    1    2    0    0 -0.14032683940E-01 -0.16853296798E-01  0.69888240352E-02  0.23017243382E-01  0.00000000000E+00 0. -1.
     999901    1    3    3    0    0 -0.91103515674E-01  0.74461901180E-01  0.44487681538E-01  0.88894520591E+00  0.88000000000E+00 0.  1.
        -11    1    4    4    0    0  0.93191799761E-01 -0.44179301463E-01 -0.47528044447E-01  0.11355922838E+00  0.51100000000E-03 0. -1.
         11    1    4    4    0    0  0.11944399854E-01 -0.13429302919E-01 -0.39484611269E-02  0.18408322330E-01  0.51100000000E-03 0.  1.
</event>
<event>
 8    1  0.1161093E+005  0.1043930E+01  0.7957747E-01            NaN
         13   -1    0    0    0    0  0.00000000000E+00  0.00000000000E+00  0.74505805969E-08  0.10566000000E+00  0.10566000000E+00 0.  1.
     999900   -1    0    0    0    0 -0.00000000000E+00 -0.00000000000E+00 -0.74505805969E-08  0.93827000000E+00  0.93827000000E+00 0. -1.
     999902    2    1    2    0    0 -0.96301138243E-02  0.19986119143E-02 -0.20363431705E-01  0.10213157812E+01  0.10210653858E+01 0.  0.
     999903    2    3    3    0    0  0.24187718717E-01  0.92265605903E-01  0.85758997250E-01  0.12971399455E+00  0.19316495628E-01 0.  0.
         14    1    1    2    0    0  0.96301138243E-02 -0.19986119143E-02  0.20363431705E-01  0.22614218816E-01  0.00000000000E+00 0.  1.
     999901    1    3    3    0    0 -0.33817832542E-01 -0.90266993988E-01 -0.10612242896E+00  0.89160178663E+00  0.88000000000E+00 0.  1.
        -11    1    4    4    0    0  0.10899851815E-01  0.65297516218E-01  0.67444311054E-01  0.94506976506E-01  0.51100000000E-03 0. -1.
         11    1    4    4    0    0  0.13287866902E-01  0.26968089685E-01  0.18314686197E-01  0.35207018044E-01  0.51100000000E-03 0.  1.
</event>
<event>
 8    1  0.1161093E+005  0.1043930E+01  0.7957747E-01            NaN
         13   -1    0    0    0    0  0.00000000000E+00  0.00000000000E+00  0.74505805969E-08  0.10566000000E+00  0.10566000000E+00 0.  1.
     999900   -1    0    0    0    0 -0.00000000000E+00 -0.00000000000E+00 -0.74505805969E-08  0.93827000000E+00  0.93827000000E+00 0. -1.
     999902    2    1    2    0    0  0.12942984935E-01  0.50808785544E-02 -0.19729995901E-01  0.10197927068E+01  0.10195070161E+01 0.  0.
     999903    2    3    3    0    0 -0.13159313968E-01  0.10270370809E+00  0.74318143012E-01  0.12903089839E+00  0.20113854846E-01 0.  0.
         14    1    1    2    0    0 -0.12942984935E-01 -0.50808785544E-02  0.19729995901E-01  0.24137293224E-01  0.00000000000E+00 0.  1.
     999901    1    3    3    0    0  0.26102298903E-01 -0.97622829540E-01 -0.94048138913E-01  0.89076180839E+00  0.88000000000E+00 0. -1.
        -11    1    4    4    0    0 -0.14847598431E-01  0.60921651310E-01  0.52930981675E-01  0.82060031194E-01  0.51100000000E-03 0.  1.
         11    1    4    4    0    0  0.16882844632E-02  0.41782056785E-01  0.21387161337E-01  0.46970867191E-01  0.51100000000E-03 0. -1.
</event>
<event>
 8    1  0.1161093E+005  0.1043930E+01  0.7957747E-01            NaN
         13   -1    0    0    0    0  0.00000000000E+00  0.00000000000E+00  0.74505805969E-08  0.10566000000E+00  0.10566000000E+00 0.  1.
     999900   -1    0    0    0    0 -0.00000000000E+00 -0.00000000000E+00 -0.74505805969E-08  0.93827000000E+00  0.93827000000E+00 0.  1.
     999902    2    1    2    0    0  0.24007724379E-01 -0.36859610768E-03  0.15804141252E-02  0.10198674897E+01  0.10195835876E+01 0.  0.
     999903    2    3    3    0    0  0.89886226948E-01 -0.73610014467E-01  0.58274571941E-01  0.13255778616E+00  0.26032151528E-01 0.  0.
         14    1    1    2    0    0 -0.24007724379E-01  0.36859610768E-03 -0.15804141252E-02  0.24062510296E-01  0.00000000000E+00 0.  1.
     999901    1    3    3    0    0 -0.65878502569E-01  0.73241418359E-01 -0.56694157816E-01  0.88730970354E+00  0.88000000000E+00 0.  1.
        -11    1    4    4    0    0  0.54472018176E-01 -0.43285303303E-01  0.48781728934E-01  0.84974916564E-01  0.51100000000E-03 0.  1.
         11    1    4    4    0    0  0.35414208772E-01 -0.30324711164E-01  0.94928430075E-02  0.47582869601E-01  0.51100000000E-03 0. -1.
</event>
<event>
 8    1  0.1161093E+005  0.1043930E+01  0.7957747E-01            NaN
         13   -1    0    0    0    0  0.00000000000E+00  0.00000000000E+00  0.74505805969E-08  0.10566000000E+00  0.10566000000E+00 0.  1.
     999900   -1    0    0    0    0 -0.00000000000E+00 -0.00000000000E+00 -0.74505805969E-08  0.93827000000E+00  0.93827000000E+00 0.  1.
     999902    2    1    2    0    0  0.17279360058E-01  0.15086514822E-01 -0.83161876299E-02  0.10195304469E+01  0.10192384383E+01 0.  0.
     999903    2    3    3    0    0  0.10422538693E+00  0.45235181892E-03  0.76924990137E-01  0.13102618205E+00  0.19679186271E-01 0.  0.
         14    1    1    2    0    0 -0.17279360058E-01 -0.15086514822E-01  0.83161876299E-02  0.24399553074E-01  0.00000000000E+00 0. -1.
     999901    1    3    3    0    0 -0.86946026872E-01  0.14634163003E-01 -0.85241177767E-01  0.88850426488E+00  0.88000000000E+00 0.  1.
        -11    1    4    4    0    0  0.12189619851E-01  0.64625387087E-02  0.90088808619E-02  0.16485517707E-01  0.51100000000E-03 0. -1.
         11    1    4    4    0    0  0.92035767079E-01 -0.60101868897E-02  0.67916109275E-01  0.11454066434E+00  0.51100000000E-03 0.  1.
</event>
<event>
 8    1  0.1161093E+005  0.1043930E+01  0.7957747E-01            NaN
         13   -1    0    0    0    0  0.00000000000E+00  0.00000000000E+00  0.74505805969E-08  0.10566000000E+00  0.10566000000E+00 0. -1.
     999900   -1    0    0    0    0 -0.00000000000E+00 -0.00000000000E+00 -0.74505805969E-08  0.93827000000E+00  0.93827000000E+00 0.  1.
     999902    2    1    2    0    0  0.20642084566E-01  0.10973089438E-02 -0.42544947134E-02  0.10228254870E+01  0.10226077334E+01 0.  0.
     999903    2    3    3    0    0 -0.24862571101E-01 -0.43918616096E-01 -0.12095351816E+00  0.13281662794E+00  0.21529301424E-01 0.  0.
         14    1    1    2    0    0 -0.20642084566E-01 -0.10973089438E-02  0.42544947134E-02  0.21104512963E-01  0.00000000000E+00 0. -1.
     999901    1    3    3    0    0  0.45504655667E-01  0.45015925039E-01  0.11669902345E+00  0.89000885910E+00  0.88000000000E+00 0. -1.
        -11    1    4    4    0    0 -0.11566268607E-01 -0.84208104354E-02 -0.17342318012E-01  0.22487901923E-01  0.51100000000E-03 0.  1.
         11    1    4    4    0    0 -0.13296302493E-01 -0.35497805660E-01 -0.10361120015E+00  0.11032872602E+00  0.51100000000E-03 0. -1.
</event>
<event>
 8    1  0.1161093E+005  0.1043930E+01  0.7957747E-01            NaN
         13   -1    0    0    0    0  0.00000000000E+00  0.00000000000E+00  0.74505805969E-08  0.10566000000E+00  0.10566000000E+00 0.  1.
     999900   -1    0    0    0    0 -0.00000000000E+00 -0.00000000000E+00 -0.74505805969E-08  0.93827000000E+00  0.93827000000E+00 0. -1.
     999902    2    1    2    0    0  0.19027283646E-01 -0.34276741816E-02 -0.12543434840E-01  0.10208838673E+01  0.10206237046E+01 0.  0.
     999903    2    3    3    0    0 -0.48580141806E-01  0.32959863240E-01  0.11292333949E+00  0.12867496337E+00  0.18952119487E-01 0.  0.
         14    1    1    2    0    0 -0.19027283646E-01  0.34276741816E-02  0.12543434840E-01  0.23046132665E-01  0.00000000000E+00 0.  1.
     999901    1    3    3    0    0  0.67607425452E-01 -0.36387537422E-01 -0.12546677433E+00  0.89220890397E+00  0.88000000000E+00 0. -1.
        -11    1    4    4    0    0 -0.47127357830E-01  0.25772827051E-01  0.92458175761E-01  0.10692989225E+00  0.51100000000E-03 0. -1.
         11    1    4    4    0    0 -0.14527839765E-02  0.71870361890E-02  0.20465163731E-01  0.21745071120E-01  0.51100000000E-03 0.  1.
</event>
<event>
 8    1  0.1161093E+005  0.1043930E+01  0.7957747E-01            NaN
         13   -1    0    0    0    0  0.00000000000E+00  0.00000000000E+00  0.74505805969E-08  0.10566000000E+00  0.10566000000E+00 0.  1.
     999900   -1    0    0    0    0 -0.00000000000E+00 -0.00000000000E+00 -0.74505805969E-08  0.93827000000E+00  0.93827000000E+00 0.  1.
     999902    2    1    2    0    0  0.87386566528E-02  0.28959554849E-01  0.56691681222E-02  0.10131540450E+01  0.10126865061E+01 0.  0.
     999903    2    3    3    0    0  0.11826061432E+00  0.38153004313E-01  0.10519285599E-01  0.12630394362E+00  0.20020144047E-01 0.  0.
         14    1    1    2    0    0 -0.87386566528E-02 -0.28959554849E-01 -0.56691681222E-02  0.30775954970E-01  0.00000000000E+00 0. -1.
     999901    1    3    3    0    0 -0.10952195767E+00 -0.91934494646E-02 -0.48501174766E-02  0.88685010141E+00  0.88000000000E+00 0.  1.
        -11    1    4    4    0    0  0.73562682626E-01  0.33372324069E-01  0.94970318995E-02  0.81336554051E-01  0.51100000000E-03 0.  1.
         11    1    4    4    0    0  0.44697931695E-01  0.47806802446E-02  0.10222536993E-02  0.44967389573E-01  0.51100000000E-03 0. -1.
</event>
<event>
 8    1  0.1161093E+005  0.1043930E+01  0.7957747E-01            NaN
         13   -1    0    0    0    0  0.00000000000E+00  0.00000000000E+00  0.74505805969E-08  0.10566000000E+00  0.10566000000E+00 0. -1.
     999900   -1    0    0    0    0 -0.00000000000E+00 -0.00000000000E+00 -0.74505805969E-08  0.93827000000E+00  0.93827000000E+00 0.  1.
     999902    2    1    2    0    0 -0.10881946140E-01 -0.15507425790E-01  0.14177317749E-01  0.10202679345E+01  0.10199935121E+01 0.  0.
     999903    2    3    3    0    0 -0.68573868930E-01  0.60640435830E-01 -0.89258836115E-01  0.12907441300E+00  0.17703850147E-01 0.  0.
         14    1    1    2    0    0  0.10881946140E-01  0.15507425790E-01 -0.14177317749E-01  0.23662065526E-01  0.00000000000E+00 0.  1.
     999901    1    3    3    0    0  0.57691922790E-01 -0.76147861620E-01  0.10343615386E+00  0.89119352147E+00  0.88000000000E+00 0. -1.
        -11    1    4    4    0    0 -0.40069932350E-01  0.30846128784E-01 -0.37825276142E-01  0.63151371923E-01  0.51100000000E-03 0. -1.
         11    1    4    4    0    0 -0.28503936580E-01  0.29794307046E-01 -0.51433559973E-01  0.65923041081E-01  0.51100000000E-03 0.  1.
</event>
<event>
 8    1  0.1161093E+005  0.1043930E+01  0.7957747E-01            NaN
         13   -1    0    0    0    0  0.00000000000E+00  0.00000000000E+00  0.74505805969E-08  0.10566000000E+00  0.10566000000E+00 0. -1.
     999900   -1    0    0    0    0 -0.00000000000E+00 -0.00000000000E+00 -0.74505805969E-08  0.93827000000E+00  0.93827000000E+00 0. -1.
     999902    2    1    2    0    0 -0.18211552692E-01  0.63764122408E-02  0.14104655168E-01  0.10200289418E+01  0.10197488816E+01 0.  0.
     999903    2    3    3    0    0 -0.70280498060E-01  0.82605308614E-01 -0.71018973737E-01  0.13111496853E+00  0.19607522126E-01 0.  0.
         14    1    1    2    0    0  0.18211552692E-01 -0.63764122408E-02 -0.14104655168E-01  0.23901058176E-01  0.00000000000E+00 0. -1.
     999901    1    3    3    0    0  0.52068945368E-01 -0.76228896373E-01  0.85123628905E-01  0.88891397329E+00  0.88000000000E+00 0.  1.
        -11    1    4    4    0    0 -0.49638512243E-01  0.49009127201E-01 -0.53758078080E-01  0.88068544479E-01  0.51100000000E-03 0.  1.
         11    1    4    4    0    0 -0.20641985817E-01  0.33596181412E-01 -0.17260895658E-01  0.43046424054E-01  0.51100000000E-03 0. -1.
</event>
<event>
 8    1  0.1161093E+005  0.1043930E+01  0.7957747E-01            NaN
         13   -1    0    0    0    0  0.00000000000E+00  0.00000000000E+00  0.74505805969E-08  0.10566000000E+00  0.10566000000E+00 0.  1.
     999900   -1    0    0    0    0 -0.00000000000E+00 -0.00000000000E+00 -0.74505805969E-08  0.93827000000E+00  0.93827000000E+00 0.  1.
     999902    2    1    2    0    0  0.99785696762E-02  0.12529456165E-02  0.21974197558E-01  0.10197637615E+01  0.10194773770E+01 0.  0.
     999903    2    3    3    0    0 -0.98639454865E-01  0.72216026344E-01  0.40015453492E-01  0.13006767799E+00  0.19273500506E-01 0.  0.
         14    1    1    2    0    0 -0.99785696762E-02 -0.12529456165E-02 -0.21974197558E-01  0.24166238512E-01  0.00000000000E+00 0. -1.
     999901    1    3    3    0    0  0.10861802454E+00 -0.70963080727E-01 -0.18041255935E-01  0.88969608350E+00  0.88000000000E+00 0.  1.
        -11    1    4    4    0    0 -0.57744695198E-01  0.51270879804E-01  0.18919378034E-01  0.79506961491E-01  0.51100000000E-03 0. -1.
         11    1    4    4    0    0 -0.40894759668E-01  0.20945146539E-01  0.21096075458E-01  0.50560716496E-01  0.51100000000E-03 0.  1.
</event>
<event>
 8    1  0.1161093E+005  0.1043930E+01  0.7957747E-01            NaN
         13   -1    0    0    0    0  0.00000000000E+00  0.00000000000E+00  0.74505805969E-08  0.10566000000E+00  0.10566000000E+00 0.  1.
     999900   -1    0    0    0    0 -0.00000000000E+00 -0.00000000000E+00 -0.74505805969E-08  0.93827000000E+00  0.93827000000E+00 0. -1.
     999902    2    1    2    0    0  0.19012498648E-01 -0.81603482921E-02 -0.11687403052E-01  0.10201673869E+01  0.10198905998E+01 0.  0.
     999903    2    3    3    0    0 -0.10157375018E+00 -0.67788691359E-01 -0.38886328855E-01  0.12952920886E+00  0.18791912440E-01 0.  0.
         14    1    1    2    0    0 -0.19012498648E-01  0.81603482921E-02  0.11687403052E-01  0.23762613055E-01  0.00000000000E+00 0.  1.
     999901    1    3    3    0    0  0.12058624883E+00  0.59628343067E-01  0.27198925802E-01  0.89063817809E+00  0.88000000000E+00 0.  1.
        -11    1    4    4    0    0 -0.24618644362E-01 -0.14921496113E-01 -0.11203508369E-02  0.28813972365E-01  0.51100000000E-03 0.  1.
         11    1    4    4    0    0 -0.76955105820E-01 -0.52867195246E-01 -0.37765978018E-01  0.10071523649E+00  0.51100000000E-03 0. -1.
</event>
<event>
 8    1  0.1161093E+005  0.1043930E+01  0.7957747E-01            NaN
         13   -1    0    0    0    0  0.00000000000E+00  0.00000000000E+00  0.74505805969E-08  0.10566000000E+00  0.10566000000E+00 0.  1.
     999900   -1    0    0    0    0 -0.00000000000E+00 -0.00000000000E+00 -0.74505805969E-08  0.93827000000E+00  0.93827000000E+00 0. -1.
     999902    2    1    2    0    0 -0.12689706572E-01  0.12809498984E-01 -0.14855135283E-01  0.10205679162E+01  0.10203004874E+01 0.  0.
     999903    2    3    3    0    0 -0.69179045292E-01 -0.33842000984E-01 -0.10750533502E+00  0.13267633080E+00  0.10704688616E-01 0.  0.
         14    1    1    2    0    0  0.12689706572E-01 -0.12809498984E-01  0.14855135283E-01  0.23362083841E-01  0.00000000000E+00 0.  1.
     999901    1    3    3    0    0  0.56489338720E-01  0.46651499968E-01  0.92650199739E-01  0.88789158536E+00  0.88000000000E+00 0.  1.
        -11    1    4    4    0    0 -0.41379243266E-01 -0.20079461612E-01 -0.55089797775E-01  0.71767496067E-01  0.51100000000E-03 0.  1.
         11    1    4    4    0    0 -0.27799802027E-01 -0.13762539372E-01 -0.52415537247E-01  0.60908834733E-01  0.51100000000E-03 0. -1.
</event>
<event>
 8    1  0.1161093E+005  0.1043930E+01  0.7957747E-01            NaN
         13   -1    0    0    0    0  0.00000000000E+00  0.00000000000E+00  0.74505805969E-08  0.10566000000E+00  0.10566000000E+00 0.  1.
     999900   -1    0    0    0    0 -0.00000000000E+00 -0.00000000000E+00 -0.74505805969E-08  0.93827000000E+00  0.93827000000E+00 0.  1.
     999902    2    1    2    0    0 -0.61955097076E-02 -0.14604070323E-01  0.13425275261E-01  0.10231477666E+01  0.10229366799E+01 0.  0.
     999903    2    3    3    0    0 -0.92240901812E-01  0.37981613009E-01  0.87677482623E-01  0.13428194211E+00  0.19832098319E-01 0.  0.
         14    1    1    2    0    0  0.61955097076E-02  0.14604070323E-01 -0.13425275261E-01  0.20782233431E-01  0.00000000000E+00 0. -1.
     999901    1    3    3    0    0  0.86045392104E-01 -0.52585683332E-01 -0.74252207361E-01  0.88886582446E+00  0.88000000000E+00 0.  1.
        -11    1    4    4    0    0 -0.61384013564E-01  0.34618965744E-01  0.57040958462E-01  0.90666432453E-01  0.51100000000E-03 0. -1.
         11    1    4    4    0    0 -0.30856888247E-01  0.33626472653E-02  0.30636524161E-01  0.43615509657E-01  0.51100000000E-03 0.  1.
</event>
<event>
 8    1  0.1161093E+005  0.1043930E+01  0.7957747E-01            NaN
         13   -1    0    0    0    0  0.00000000000E+00  0.00000000000E+00  0.74505805969E-08  0.10566000000E+00  0.10566000000E+00 0. -1.
     999900   -1    0    0    0    0 -0.00000000000E+00 -0.00000000000E+00 -0.74505805969E-08  0.93827000000E+00  0.93827000000E+00 0. -1.
     999902    2    1    2    0    0  0.14288417629E-01 -0.79872306849E-03 -0.17471533524E-01  0.10213456842E+01  0.10210959579E+01 0.  0.
     999903    2    3    3    0    0  0.61646154310E-01  0.89879620961E-01  0.70034395783E-01  0.13110829733E+00  0.20148807185E-01 0.  0.
         14    1    1    2    0    0 -0.14288417629E-01  0.79872306849E-03  0.17471533524E-01  0.22584315809E-01  0.00000000000E+00 0. -1.
     999901    1    3    3    0    0 -0.47357736682E-01 -0.90678344029E-01 -0.87505929308E-01  0.89023738686E+00  0.88000000000E+00 0. -1.
        -11    1    4    4    0    0  0.54697201127E-03  0.11158533517E-01  0.72233717614E-02  0.13313537067E-01  0.51100000000E-03 0.  1.
         11    1    4    4    0    0  0.61099182299E-01  0.78721087443E-01  0.62811024022E-01  0.11779476026E+00  0.51100000000E-03 0. -1.
</event>
<event>
 8    1  0.1161093E+005  0.1043930E+01  0.7957747E-01            NaN
         13   -1    0    0    0    0  0.00000000000E+00  0.00000000000E+00  0.74505805969E-08  0.10566000000E+00  0.10566000000E+00 0. -1.
     999900   -1    0    0    0    0 -0.00000000000E+00 -0.00000000000E+00 -0.74505805969E-08  0.93827000000E+00  0.93827000000E+00 0. -1.
     999902    2    1    2    0    0 -0.26460161249E-01  0.57567336835E-02  0.97086320433E-02  0.10151630458E+01  0.10147553754E+01 0.  0.
     999903    2    3    3    0    0  0.15471861182E-01  0.12380479123E+00 -0.18217486907E-02  0.12621614749E+00  0.18978732754E-01 0.  0.
         14    1    1    2    0    0  0.26460161249E-01 -0.57567336835E-02 -0.97086320433E-02  0.28766954169E-01  0.00000000000E+00 0. -1.
     999901    1    3    3    0    0 -0.41932022431E-01 -0.11804805755E+00  0.11530380734E-01  0.88894689834E+00  0.88000000000E+00 0. -1.
        -11    1    4    4    0    0 -0.85467030792E-03  0.39068506127E-01 -0.72552473726E-02  0.39748941719E-01  0.51100000000E-03 0.  1.
         11    1    4    4    0    0  0.16326531490E-01  0.84736285107E-01  0.54334986819E-02  0.86467205767E-01  0.51100000000E-03 0. -1.
</event>
<event>
 8    1  0.1161093E+005  0.1043930E+01  0.7957747E-01            NaN
         13   -1    0    0    0    0  0.00000000000E+00  0.00000000000E+00  0.74505805969E-08  0.10566000000E+00  0.10566000000E+00 0.  1.
     999900   -1    0    0    0    0 -0.00000000000E+00 -0.00000000000E+00 -0.74505805969E-08  0.93827000000E+00  0.93827000000E+00 0.  1.
     999902    2    1    2    0    0  0.74890281356E-02 -0.22438801354E-01 -0.86711870175E-03  0.10202585564E+01  0.10199839139E+01 0.  0.
     999903    2    3    3    0    0  0.51025467621E-01  0.21573485296E-03  0.11796401845E+00  0.13091639009E+00  0.24898728001E-01 0.  0.
         14    1    1    2    0    0 -0.74890281356E-02  0.22438801354E-01  0.86711870175E-03  0.23671443628E-01  0.00000000000E+00 0.  1.
     999901    1    3    3    0    0 -0.43536439486E-01 -0.22654536207E-01 -0.11883113716E+00  0.88934216628E+00  0.88000000000E+00 0.  1.
        -11    1    4    4    0    0  0.23419803990E-01 -0.14279952816E-02  0.26676416279E-01  0.35530531884E-01  0.51100000000E-03 0. -1.
         11    1    4    4    0    0  0.27605663631E-01  0.16437301345E-02  0.91287602175E-01  0.95385858203E-01  0.51100000000E-03 0.  1.
</event>
<event>
 8    1  0.1161093E+005  0.1043930E+01  0.7957747E-01            NaN
         13   -1    0    0    0    0  0.00000000000E+00  0.00000000000E+00  0.74505805969E-08  0.10566000000E+00  0.10566000000E+00 0.  1.
     999900   -1    0    0    0    0 -0.00000000000E+00 -0.00000000000E+00 -0.74505805969E-08  0.93827000000E+00  0.93827000000E+00 0. -1.
     999902    2    1    2    0    0  0.20382667122E-01 -0.18505190356E-02 -0.78508446724E-02  0.10220093864E+01  0.10217742767E+01 0.  0.
     999903    2    3    3    0    0 -0.73147677227E-01 -0.10635266739E+00 -0.89106379651E-02  0.13090347377E+00  0.19870768252E-01 0.  0.
         14    1    1    2    0    0 -0.20382667122E-01  0.18505190356E-02  0.78508446724E-02  0.21920613627E-01  0.00000000000E+00 0. -1.
     999901    1    3    3    0    0  0.93530344348E-01  0.10450214835E+00  0.10597932927E-02  0.89110591261E+00  0.88000000000E+00 0.  1.
        -11    1    4    4    0    0 -0.44416872818E-01 -0.57664223509E-01 -0.14056341344E-01  0.74134088763E-01  0.51100000000E-03 0. -1.
         11    1    4    4    0    0 -0.28730804409E-01 -0.48688443878E-01  0.51457033790E-02  0.56769385002E-01  0.51100000000E-03 0.  1.
</event>
<event>
 8    1  0.1161093E+005  0.1043930E+01  0.7957747E-01            NaN
         13   -1    0    0    0    0  0.00000000000E+00  0.00000000000E+00  0.74505805969E-08  0.10566000000E+00  0.10566000000E+00 0. -1.
     999900   -1    0    0    0    0 -0.00000000000E+00 -0.00000000000E+00 -0.74505805969E-08  0.93827000000E+00  0.93827000000E+00 0.  1.
     999902    2    1    2    0    0  0.23422553183E-01  0.11844657360E-01 -0.76858470963E-02  0.10165807011E+01  0.10162127423E+01 0.  0.
     999903    2    3    3    0    0  0.11620782450E+00 -0.21966336674E-01 -0.50072427519E-01  0.13004310341E+00  0.20425041626E-01 0.  0.
         14    1    1    2    0    0 -0.23422553183E-01 -0.11844657360E-01  0.76858470963E-02  0.27349298916E-01  0.00000000000E+00 0. -1.
     999901    1    3    3    0    0 -0.92785271314E-01  0.33810994035E-01  0.42386580423E-01  0.88653759767E+00  0.88000000000E+00 0. -1.
        -11    1    4    4    0    0  0.31243270142E-01 -0.10886569458E-01 -0.22562496843E-01  0.40049802853E-01  0.51100000000E-03 0.  1.
         11    1    4    4    0    0  0.84964554355E-01 -0.11079767216E-01 -0.27509930677E-01  0.89993300557E-01  0.51100000000E-03 0. -1.
</event>
<event>
 8    1  0.1161093E+005  0.1043930E+01  0.7957747E-01            NaN
         13   -1    0    0    0    0  0.00000000000E+00  0.00000000000E+00  0.74505805969E-08  0.10566000000E+00  0.10566000000E+00 0.  1.
     999900   -1    0    0    0    0 -0.00000000000E+00 -0.00000000000E+00 -0.74505805969E-08  0.93827000000E+00  0.93827000000E+00 0.  1.
     999902    2    1    2    0    0 -0.76373380633E-02  0.20853000317E-01  0.66296715526E-02  0.10207539542E+01  0.10204908162E+01 0.  0.
     999903    2    3    3    0    0 -0.10535159075E+00 -0.53073289459E-01  0.53503208687E-01  0.13102910908E+00  0.19756071461E-01 0.  0.
         14    1    1    2    0    0  0.76373380633E-02 -0.20853000317E-01 -0.66296715526E-02  0.23176045819E-01  0.00000000000E+00 0.  1.
     999901    1    3    3    0    0  0.97714252690E-01  0.73926289775E-01 -0.46873537134E-01  0.88972484510E+00  0.88000000000E+00 0.  1.
        -11    1    4    4    0    0 -0.12051637662E-01 -0.49230336481E-02  0.13254691341E-01  0.18585644842E-01  0.51100000000E-03 0. -1.
         11    1    4    4    0    0 -0.93299953091E-01 -0.48150255811E-01  0.40248517346E-01  0.11244346424E+00  0.51100000000E-03 0.  1.
</event>
<event>
 8    1  0.1161093E+005  0.1043930E+01  0.7957747E-01            NaN
         13   -1    0    0    0    0  0.00000000000E+00  0.00000000000E+00  0.74505805969E-08  0.10566000000E+00  0.10566000000E+00 0. -1.
     999900   -1    0    0    0    0 -0.00000000000E+00 -0.00000000000E+00 -0.74505805969E-08  0.93827000000E+00  0.93827000000E+00 0. -1.
     999902    2    1    2    0    0  0.17036856835E-01 -0.13195068683E-02  0.16067816853E-01  0.10204742901E+01  0.10202046885E+01 0.  0.
     999903    2    3    3    0    0  0.62397096030E-02 -0.47556738154E-01 -0.11808480940E+00  0.12904207893E+00  0.20180649270E-01 0.  0.
         14    1    1    2    0    0 -0.17036856835E-01  0.13195068683E-02 -0.16067816853E-01  0.23455709915E-01  0.00000000000E+00 0.  1.
     999901    1    3    3    0    0  0.10797147232E-01  0.46237231286E-01  0.13415262625E+00  0.89143221115E+00  0.88000000000E+00 0.  1.
        -11    1    4    4    0    0  0.13647321196E-01 -0.30980252447E-01 -0.75294242131E-01  0.82556098724E-01  0.51100000000E-03 0. -1.
         11    1    4    4    0    0 -0.74076115930E-02 -0.16576485707E-01 -0.42790567269E-01  0.46485980211E-01  0.51100000000E-03 0.  1.
</event>
<event>
 8    1  0.1161093E+005  0.1043930E+01  0.7957747E-01            NaN
         13   -1    0    0    0    0  0.00000000000E+00  0.00000000000E+00  0.74505805969E-08  0.10566000000E+00  0.10566000000E+00 0.  1.
     999900   -1    0    0    0    0 -0.00000000000E+00 -0.00000000000E+00 -0.74505805969E-08  0.93827000000E+00  0.93827000000E+00 0. -1.
     999902    2    1    2    0    0 -0.21056908226E-01  0.88095878502E-02 -0.28671883076E-02  0.10209251529E+01  0.10206659320E+01 0.  0.
     999903    2    3    3    0    0 -0.45680683224E-01  0.42736762902E-01 -0.11566044725E+00  0.13273615117E+00  0.18121562985E-01 0.  0.
         14    1    1    2    0    0  0.21056908226E-01 -0.88095878502E-02  0.28671883076E-02  0.23004847118E-01  0.00000000000E+00 0. -1.
     999901    1    3    3    0    0  0.24623774998E-01 -0.33927175052E-01  0.11279325895E+00  0.88818900171E+00  0.88000000000E+00 0.  1.
        -11    1    4    4    0    0 -0.17555478550E-01  0.28634603306E-01 -0.56667883072E-01  0.65875985203E-01  0.51100000000E-03 0.  1.
         11    1    4    4    0    0 -0.28125204674E-01  0.14102159596E-01 -0.58992564181E-01  0.66860165965E-01  0.51100000000E-03 0. -1.
</event>
<event>
 8    1  0.1161093E+005  0.1043930E+01  0.7957747E-01            NaN
         13   -1    0    0    0    0  0.00000000000E+00  0.00000000000E+00  0.74505805969E-08  0.10566000000E+00  0.10566000000E+00 0. -1.
     999900   -1    0    0    0    0 -0.00000000000E+00 -0.00000000000E+00 -0.74505805969E-08  0.93827000000E+00  0.93827000000E+00 0.  1.
     999902    2    1    2    0    0 -0.70518714283E-02  0.11481846352E-02 -0.20942597749E-01  0.10218021981E+01  0.10215625739E+01 0.  0.
     999903    2    3    3    0    0 -0.35494262981E-01  0.11726283257E+00  0.43255888039E-01  0.13140171137E+00  0.19619462132E-01 0.  0.
         14    1    1    2    0    0  0.70518714283E-02 -0.11481846352E-02  0.20942597749E-01  0.22127801948E-01  0.00000000000E+00 0. -1.
     999901    1    3    3    0    0  0.28442391553E-01 -0.11611464794E+00 -0.64198485788E-01  0.89040048668E+00  0.88000000000E+00 0. -1.
        -11    1    4    4    0    0 -0.12889921308E-01  0.53261401363E-01  0.29156974675E-01  0.62075093553E-01  0.51100000000E-03 0. -1.
         11    1    4    4    0    0 -0.22604341673E-01  0.64001431207E-01  0.14098913365E-01  0.69326617818E-01  0.51100000000E-03 0.  1.
</event>
<event>
 8    1  0.1161093E+005  0.1043930E+01  0.7957747E-01            NaN
         13   -1    0    0    0    0  0.00000000000E+00  0.00000000000E+00  0.74505805969E-08  0.10566000000E+00  0.10566000000E+00 0. -1.
     999900   -1    0    0    0    0 -0.00000000000E+00 -0.00000000000E+00 -0.74505805969E-08  0.93827000000E+00  0.93827000000E+00 0. -1.
     999902    2    1    2    0    0 -0.22352831194E-01  0.96363414261E-02 -0.11643746504E-01  0.10169469503E+01  0.10165889114E+01 0.  0.
     999903    2    3    3    0    0 -0.78580742280E-01  0.81421777329E-01  0.59371181033E-01  0.12938971455E+00  0.20305718758E-01 0.  0.
         14    1    1    2    0    0  0.22352831194E-01 -0.96363414261E-02  0.11643746504E-01  0.26983049700E-01  0.00000000000E+00 0. -1.
     999901    1    3    3    0    0  0.56227911086E-01 -0.71785435903E-01 -0.71014927537E-01  0.88755723575E+00  0.88000000000E+00 0. -1.
        -11    1    4    4    0    0 -0.32375922455E-01  0.46446138395E-01  0.34688026764E-01  0.66400033497E-01  0.51100000000E-03 0.  1.
         11    1    4    4    0    0 -0.46204819826E-01  0.34975638934E-01  0.24683154268E-01  0.62989681056E-01  0.51100000000E-03 0. -1.
</event>
<event>
 8    1  0.1161093E+005  0.1043930E+01  0.7957747E-01            NaN
         13   -1    0    0    0    0  0.00000000000E+00  0.00000000000E+00  0.74505805969E-08  0.10566000000E+00  0.10566000000E+00 0. -1.
     999900   -1    0    0    0    0 -0.00000000000E+00 -0.00000000000E+00 -0.74505805969E-08  0.93827000000E+00  0.93827000000E+00 0. -1.
     999902    2    1    2    0    0 -0.81259612414E-02 -0.18851101104E-01  0.13132527873E-01  0.10195607869E+01  0.10192695128E+01 0.  0.
     999903    2    3    3    0    0 -0.12677364025E+00 -0.33073289785E-03 -0.24265910985E-01  0.13061820214E+00  0.20015370293E-01 0.  0.
         14    1    1    2    0    0  0.81259612414E-02  0.18851101104E-01 -0.13132527873E-01  0.24369213103E-01  0.00000000000E+00 0.  1.
     999901    1    3    3    0    0  0.11864767900E+00 -0.18520368206E-01  0.37398438858E-01  0.88894258476E+00  0.88000000000E+00 0. -1.
        -11    1    4    4    0    0 -0.46813054040E-01  0.95198652529E-02 -0.95149911928E-02  0.48712278138E-01  0.51100000000E-03 0.  1.
         11    1    4    4    0    0 -0.79960586206E-01 -0.98505981508E-02 -0.14750919792E-01  0.81905923998E-01  0.51100000000E-03 0. -1.
</event>
<event>
 8    1  0.1161093E+005  0.1043930E+01  0.7957747E-01            NaN
         13   -1    0    0    0    0  0.00000000000E+00  0.00000000000E+00  0.74505805969E-08  0.10566000000E+00  0.10566000000E+00 0.  1.
     999900   -1    0    0    0    0 -0.00000000000E+00 -0.00000000000E+00 -0.74505805969E-08  0.93827000000E+00  0.93827000000E+00 0. -1.
     999902    2    1    2    0    0 -0.24239202009E-02  0.19074499364E-01  0.96443590876E-02  0.10224189429E+01  0.10221926282E+01 0.  0.
     999903    2    3    3    0    0  0.14859193493E-01 -0.18009472668E-01 -0.12722088829E+00  0.13090000147E+00  0.20112663421E-01 0.  0.
         14    1    1    2    0    0  0.24239202009E-02 -0.19074499364E-01 -0.96443590876E-02  0.21511057095E-01  0.00000000000E+00 0. -1.
     999901    1    3    3    0    0 -0.17283113694E-01  0.37083972032E-01  0.13686524738E+00  0.89151894144E+00  0.88000000000E+00 0.  1.
        -11    1    4    4    0    0  0.10711159371E-02 -0.12703459733E-01 -0.30578086544E-01  0.33133150714E-01  0.51100000000E-03 0. -1.
         11    1    4    4    0    0  0.13788077555E-01 -0.53060129349E-02 -0.96642801747E-01  0.97766850754E-01  0.51100000000E-03 0.  1.
</event>
<event>
 8    1  0.1161093E+005  0.1043930E+01  0.7957747E-01            NaN
         13   -1    0    0    0    0  0.00000000000E+00  0.00000000000E+00  0.74505805969E-08  0.10566000000E+00  0.10566000000E+00 0.  1.
     999900   -1    0    0    0    0 -0.00000000000E+00 -0.00000000000E+00 -0.74505805969E-08  0.93827000000E+00  0.93827000000E+00 0.  1.
     999902    2    1    2    0    0  0.12852375101E-01  0.19513606262E-01 -0.23135405677E-02  0.10204498628E+01  0.10201796928E+01 0.  0.
     999903    2    3    3    0    0  0.14367360814E-01 -0.71301333643E-01  0.10509808589E+00  0.12927821487E+00  0.19415147368E-01 0.  0.
         14    1    1    2    0    0 -0.12852375101E-01 -0.19513606262E-01  0.23135405677E-02  0.23480137245E-01  0.00000000000E+00 0. -1.
     999901    1    3    3    0    0 -0.15149857128E-02  0.90814939905E-01 -0.10741162646E+00  0.89117164788E+00  0.88000000000E+00 0.  1.
        -11    1    4    4    0    0  0.13682694709E-01 -0.24456026843E-01  0.45920933548E-01  0.53798760603E-01  0.51100000000E-03 0.  1.
         11    1    4    4    0    0  0.68466610491E-03 -0.46845306800E-01  0.59177152340E-01  0.75479454270E-01  0.51100000000E-03 0. -1.
</event>
<event>
 7    1  0.1161093E+005  0.1043930E+01  0.7957747E-01            NaN
         13   -1    0    0    0    0  0.00000000000E+00  0.00000000000E+00  0.74505805969E-08  0.10566000000E+00  0.10566000000E+00 0.  1.
     999900   -1    0    0    0    0 -0.00000000000E+00 -0.00000000000E+00 -0.74505805969E-08  0.93827000000E+00  0.93827000000E+00 0. -1.
     999903    2    1    2    0    0  0.34334526043E-01  0.26489280723E-01 -0.99628774202E-01  0.11041788974E+00  0.19638636740E-01 0.  0.
         14    1    1    2    0    0 -0.38634060505E-01  0.11079735149E-01  0.29610833749E-01  0.49921464695E-01  0.00000000000E+00 0.  1.
     999901    1    1    2    0    0  0.42995344613E-02 -0.37569015871E-01  0.70017940454E-01  0.88359064557E+00  0.88000000000E+00 0.  1.
        -11    1    3    3    0    0  0.13370419253E-01 -0.81284972062E-04 -0.22316896085E-01  0.26020754987E-01  0.51100000000E-03 0. -1.
         11    1    3    3    0    0  0.20964106791E-01  0.26570565695E-01 -0.77311878118E-01  0.84397134750E-01  0.51100000000E-03 0.  1.
</event>
<event>
 8    1  0.1161093E+005  0.1043930E+01  0.7957747E-01            NaN
         13   -1    0    0    0    0  0.00000000000E+00  0.00000000000E+00  0.74505805969E-08  0.10566000000E+00  0.10566000000E+00 0.  1.
     999900   -1    0    0    0    0 -0.00000000000E+00 -0.00000000000E+00 -0.74505805969E-08  0.93827000000E+00  0.93827000000E+00 0.  1.
     999902    2    1    2    0    0 -0.29317599515E-02  0.22496091841E-01  0.93764002999E-02  0.10193823678E+01  0.10190867605E+01 0.  0.
     999903    2    3    3    0    0 -0.34981100061E-01 -0.98678476087E-01 -0.69178332997E-01  0.12703642465E+00  0.19786167578E-01 0.  0.
         14    1    1    2    0    0  0.29317599515E-02 -0.22496091841E-01 -0.93764002999E-02  0.24547632210E-01  0.00000000000E+00 0. -1.
     999901    1    3    3    0    0  0.32049340110E-01  0.12117456793E+00  0.78554733297E-01  0.89234594314E+00  0.88000000000E+00 0. -1.
        -11    1    4    4    0    0 -0.30952509222E-01 -0.59092277157E-01 -0.45104371214E-01  0.80527141203E-01  0.51100000000E-03 0. -1.
         11    1    4    4    0    0 -0.40285908394E-02 -0.39586198930E-01 -0.24073961783E-01  0.46509283448E-01  0.51100000000E-03 0.  1.
</event>
<event>
 8    1  0.1161093E+005  0.1043930E+01  0.7957747E-01            NaN
         13   -1    0    0    0    0  0.00000000000E+00  0.00000000000E+00  0.74505805969E-08  0.10566000000E+00  0.10566000000E+00 0.  1.
     999900   -1    0    0    0    0 -0.00000000000E+00 -0.00000000000E+00 -0.74505805969E-08  0.93827000000E+00  0.93827000000E+00 0. -1.
     999902    2    1    2    0    0 -0.10689559626E-01 -0.20009319625E-01  0.72519263514E-02  0.10201134093E+01  0.10198353484E+01 0.  0.
     999903    2    3    3    0    0 -0.42945436422E-01  0.11962526686E+00  0.27162156808E-02  0.12850877046E+00  0.18777946543E-01 0.  0.
         14    1    1    2    0    0  0.10689559626E-01  0.20009319625E-01 -0.72519263514E-02  0.23816590701E-01  0.00000000000E+00 0.  1.
     999901    1    3    3    0    0  0.32255876797E-01 -0.13963458648E+00  0.45357106706E-02  0.89160463884E+00  0.88000000000E+00 0.  1.
        -11    1    4    4    0    0 -0.12311186613E-01  0.59174677484E-01  0.53950699715E-02  0.60684229188E-01  0.51100000000E-03 0.  1.
         11    1    4    4    0    0 -0.30634249809E-01  0.60450589375E-01 -0.26788542906E-02  0.67824541270E-01  0.51100000000E-03 0. -1.
</event>
<event>
 8    1  0.1161093E+005  0.1043930E+01  0.7957747E-01            NaN
         13   -1    0    0    0    0  0.00000000000E+00  0.00000000000E+00  0.74505805969E-08  0.10566000000E+00  0.10566000000E+00 0.  1.
     999900   -1    0    0    0    0 -0.00000000000E+00 -0.00000000000E+00 -0.74505805969E-08  0.93827000000E+00  0.93827000000E+00 0. -1.
     999902    2    1    2    0    0 -0.19704684661E-01 -0.36675068911E-02  0.13047575740E-01  0.10200142220E+01  0.10197338126E+01 0.  0.
     999903    2    3    3    0    0  0.69097747227E-01 -0.10497880388E+00 -0.23330913330E-01  0.12901857371E+00  0.17504653941E-01 0.  0.
         14    1    1    2    0    0  0.19704684661E-01  0.36675068911E-02 -0.13047575740E-01  0.23915777994E-01  0.00000000000E+00 0. -1.
     999901    1    3    3    0    0 -0.88802431888E-01  0.10131129699E+00  0.36378489070E-01  0.89099564829E+00  0.88000000000E+00 0.  1.
        -11    1    4    4    0    0  0.56785990451E-01 -0.73169225423E-01 -0.14184969510E-01  0.93700900430E-01  0.51100000000E-03 0. -1.
         11    1    4    4    0    0  0.12311756776E-01 -0.31809578462E-01 -0.91459438199E-02  0.35317673284E-01  0.51100000000E-03 0.  1.
</event>
<event>
 8    1  0.1161093E+005  0.1043930E+01  0.7957747E-01            NaN
         13   -1    0    0    0    0  0.00000000000E+00  0.00000000000E+00  0.74505805969E-08  0.10566000000E+00  0.10566000000E+00 0.  1.
     999900   -1    0    0    0    0 -0.00000000000E+00 -0.00000000000E+00 -0.74505805969E-08  0.93827000000E+00  0.93827000000E+00 0.  1.
     999902    2    1    2    0    0 -0.38304636710E-04 -0.23660278028E-01  0.31415010339E-02  0.10200620455E+01  0.10197827697E+01 0.  0.
     999903    2    3    3    0    0 -0.75672086507E-01  0.89497283542E-01  0.48711555429E-01  0.12843334892E+00  0.19654033785E-01 0.  0.
         14    1    1    2    0    0  0.38304636710E-04  0.23660278028E-01 -0.31415010339E-02  0.23867954507E-01  0.00000000000E+00 0. -1.
     999901    1    3    3    0    0  0.75633781871E-01 -0.11315756157E+00 -0.45570054395E-01  0.89162869658E+00  0.88000000000E+00 0.  1.
        -11    1    4    4    0    0 -0.10441641755E-01  0.22716070375E-01  0.57020848859E-02  0.25648053120E-01  0.51100000000E-03 0. -1.
         11    1    4    4    0    0 -0.65230444753E-01  0.66781213167E-01  0.43009470543E-01  0.10278529580E+00  0.51100000000E-03 0.  1.
</event>
<event>
 8    1  0.1161093E+005  0.1043930E+01  0.7957747E-01            NaN
         13   -1    0    0    0    0  0.00000000000E+00  0.00000000000E+00  0.74505805969E-08  0.10566000000E+00  0.10566000000E+00 0. -1.
     999900   -1    0    0    0    0 -0.00000000000E+00 -0.00000000000E+00 -0.74505805969E-08  0.93827000000E+00  0.93827000000E+00 0. -1.
     999902    2    1    2    0    0 -0.13960053935E-01 -0.14970126268E-01  0.12366342622E-01  0.10200152720E+01  0.10197348875E+01 0.  0.
     999903    2    3    3    0    0 -0.73496599401E-01  0.10377671697E+00 -0.22073915749E-01  0.12937979974E+00  0.89731664193E-02 0.  0.
         14    1    1    2    0    0  0.13960053935E-01  0.14970126268E-01 -0.12366342622E-01  0.23914728018E-01  0.00000000000E+00 0.  1.
     999901    1    3    3    0    0  0.59536545466E-01 -0.11874684323E+00  0.34440258371E-01  0.89063547224E+00  0.88000000000E+00 0.  1.
        -11    1    4    4    0    0 -0.33226238723E-01  0.46874591134E-01 -0.54762299367E-02  0.57718804985E-01  0.51100000000E-03 0.  1.
         11    1    4    4    0    0 -0.40270360678E-01  0.56902125833E-01 -0.16597685813E-01  0.71660994752E-01  0.51100000000E-03 0. -1.
</event>
<event>
 8    1  0.1161093E+005  0.1043930E+01  0.7957747E-01            NaN
         13   -1    0    0    0    0  0.00000000000E+00  0.00000000000E+00  0.74505805969E-08  0.10566000000E+00  0.10566000000E+00 0.  1.
     999900   -1    0    0    0    0 -0.00000000000E+00 -0.00000000000E+00 -0.74505805969E-08  0.93827000000E+00  0.93827000000E+00 0. -1.
     999902    2    1    2    0    0  0.16653335746E-01  0.16313590934E-01  0.34611870413E-02  0.10203620842E+01  0.10200898667E+01 0.  0.
     999903    2    3    3    0    0 -0.24478267366E-01 -0.11850228904E+00 -0.39462328225E-01  0.12811236665E+00  0.14612496662E-01 0.  0.
         14    1    1    2    0    0 -0.16653335746E-01 -0.16313590934E-01 -0.34611870413E-02  0.23567915825E-01  0.00000000000E+00 0. -1.
     999901    1    3    3    0    0  0.41131603112E-01  0.13481587997E+00  0.42923515266E-01  0.89224971753E+00  0.88000000000E+00 0. -1.
        -11    1    4    4    0    0  0.10328339950E-02 -0.16659377583E-01 -0.79462491813E-02  0.18493393538E-01  0.51100000000E-03 0. -1.
         11    1    4    4    0    0 -0.25511101361E-01 -0.10184291145E+00 -0.31516079044E-01  0.10961897311E+00  0.51100000000E-03 0.  1.
</event>
<event>
 8    1  0.1161093E+005  0.1043930E+01  0.7957747E-01            NaN
         13   -1    0    0    0    0  0.00000000000E+00  0.00000000000E+00  0.74505805969E-08  0.10566000000E+00  0.10566000000E+00 0. -1.
     999900   -1    0    0    0    0 -0.00000000000E+00 -0.00000000000E+00 -0.74505805969E-08  0.93827000000E+00  0.93827000000E+00 0.  1.
     999902    2    1    2    0    0 -0.18584978272E-03  0.18483310217E-01  0.14703901091E-01  0.10203106858E+01  0.10200372658E+01 0.  0.
     999903    2    3    3    0    0  0.10650441509E+00 -0.63588024810E-01 -0.29225517986E-01  0.12899238657E+00  0.19956892532E-01 0.  0.
         14    1    1    2    0    0  0.18584978272E-03 -0.18483310217E-01 -0.14703901091E-01  0.23619314216E-01  0.00000000000E+00 0.  1.
     999901    1    3    3    0    0 -0.10669026487E+00  0.82071335027E-01  0.43929419077E-01  0.89131829921E+00  0.88000000000E+00 0.  1.
        -11    1    4    4    0    0  0.74165028093E-01 -0.33528145527E-01 -0.16616326994E-01  0.83071965056E-01  0.51100000000E-03 0. -1.
         11    1    4    4    0    0  0.32339386995E-01 -0.30059879283E-01 -0.12609190992E-01  0.45920421515E-01  0.51100000000E-03 0.  1.
</event>
<event>
 8    1  0.1161093E+005  0.1043930E+01  0.7957747E-01            NaN
         13   -1    0    0    0    0  0.00000000000E+00  0.00000000000E+00  0.74505805969E-08  0.10566000000E+00  0.10566000000E+00 0. -1.
     999900   -1    0    0    0    0 -0.00000000000E+00 -0.00000000000E+00 -0.74505805969E-08  0.93827000000E+00  0.93827000000E+00 0.  1.
     999902    2    1    2    0    0  0.65824641214E-02 -0.99313800925E-02  0.20240797856E-01  0.10204427472E+01  0.10201724116E+01 0.  0.
     999903    2    3    3    0    0  0.91791862934E-01  0.70423987735E-01 -0.53462469474E-01  0.12962862611E+00  0.23665606177E-01 0.  0.
         14    1    1    2    0    0 -0.65824641214E-02  0.99313800925E-02 -0.20240797856E-01  0.23487252762E-01  0.00000000000E+00 0.  1.
     999901    1    3    3    0    0 -0.85209398813E-01 -0.80355367827E-01  0.73703267330E-01  0.89081412113E+00  0.88000000000E+00 0. -1.
        -11    1    4    4    0    0  0.83092444263E-02  0.35203468769E-02 -0.11693040491E-01  0.14779198287E-01  0.51100000000E-03 0.  1.
         11    1    4    4    0    0  0.83482618508E-01  0.66903640858E-01 -0.41769428983E-01  0.11484942782E+00  0.51100000000E-03 0. -1.
</event>
<event>
 8    1  0.1161093E+005  0.1043930E+01  0.7957747E-01            NaN
         13   -1    0    0    0    0  0.00000000000E+00  0.00000000000E+00  0.74505805969E-08  0.10566000000E+00  0.10566000000E+00 0.  1.
     999900   -1    0    0    0    0 -0.00000000000E+00 -0.00000000000E+00 -0.74505805969E-08  0.93827000000E+00  0.93827000000E+00 0. -1.
     999902    2    1    2    0    0 -0.11419078412E-01 -0.11744662429E-01  0.16268430053E-01  0.10208433315E+01  0.10205822422E+01 0.  0.
     999903    2    3    3    0    0 -0.10465289814E+00  0.63325983477E-01  0.42282035364E-01  0.13235874822E+00  0.27724690134E-01 0.  0.
         14    1    1    2    0    0  0.11419078412E-01  0.11744662429E-01 -0.16268430053E-01  0.23086668528E-01  0.00000000000E+00 0.  1.
     999901    1    3    3    0    0  0.93233819729E-01 -0.75070645905E-01 -0.26013605311E-01  0.88848458325E+00  0.88000000000E+00 0.  1.
        -11    1    4    4    0    0 -0.70077780611E-01  0.30533375770E-01  0.16602022783E-01  0.78224488830E-01  0.51100000000E-03 0.  1.
         11    1    4    4    0    0 -0.34575117530E-01  0.32792607707E-01  0.25680012580E-01  0.54134259389E-01  0.51100000000E-03 0. -1.
</event>
<event>
 8    1  0.1161093E+005  0.1043930E+01  0.7957747E-01            NaN
         13   -1    0    0    0    0  0.00000000000E+00  0.00000000000E+00  0.74505805969E-08  0.10566000000E+00  0.10566000000E+00 0. -1.
     999900   -1    0    0    0    0 -0.00000000000E+00 -0.00000000000E+00 -0.74505805969E-08  0.93827000000E+00  0.93827000000E+00 0.  1.
     999902    2    1    2    0    0  0.14294180035E-01  0.17281606957E-02  0.16834390992E-01  0.10217780962E+01  0.10215379440E+01 0.  0.
     999903    2    3    3    0    0 -0.11374121183E-02  0.11125886040E+00  0.70472553910E-01  0.13323312787E+00  0.20121078068E-01 0.  0.
         14    1    1    2    0    0 -0.14294180035E-01 -0.17281606957E-02 -0.16834390992E-01  0.22151903808E-01  0.00000000000E+00 0.  1.
     999901    1    3    3    0    0  0.15431592153E-01 -0.10953069970E+00 -0.53638162918E-01  0.88854496832E+00  0.88000000000E+00 0.  1.
        -11    1    4    4    0    0 -0.79355789514E-02  0.35117322299E-01  0.29192014969E-01  0.46353366627E-01  0.51100000000E-03 0.  1.
         11    1    4    4    0    0  0.67981668330E-02  0.76141538101E-01  0.41280538941E-01  0.86879761240E-01  0.51100000000E-03 0. -1.
</event>
<event>
 8    1  0.1161093E+005  0.1043930E+01  0.7957747E-01            NaN
         13   -1    0    0    0    0  0.00000000000E+00  0.00000000000E+00  0.74505805969E-08  0.10566000000E+00  0.10566000000E+00 0. -1.
     999900   -1    0    0    0    0 -0.00000000000E+00 -0.00000000000E+00 -0.74505805969E-08  0.93827000000E+00  0.93827000000E+00 0. -1.
     999902    2    1    2    0    0  0.15559017591E-01  0.12181845985E-01  0.12412868540E-01  0.10205941969E+01  0.10203273764E+01 0.  0.
     999903    2    3    3    0    0 -0.10316079631E+00 -0.58609581618E-01  0.47235280208E-01  0.12912438768E+00  0.19097194648E-01 0.  0.
         14    1    1    2    0    0 -0.15559017591E-01 -0.12181845985E-01 -0.12412868540E-01  0.23335803080E-01  0.00000000000E+00 0.  1.
     999901    1    3    3    0    0  0.11871981390E+00  0.70791427603E-01 -0.34822411668E-01  0.89146980924E+00  0.88000000000E+00 0. -1.
        -11    1    4    4    0    0 -0.47109484061E-01 -0.37677361508E-01  0.22702834693E-01  0.64455929772E-01  0.51100000000E-03 0. -1.
         11    1    4    4    0    0 -0.56051312253E-01 -0.20932220110E-01  0.24532445515E-01  0.64668457906E-01  0.51100000000E-03 0.  1.
</event>
<event>
 8    1  0.1161093E+005  0.1043930E+01  0.7957747E-01            NaN
         13   -1    0    0    0    0  0.00000000000E+00  0.00000000000E+00  0.74505805969E-08  0.10566000000E+00  0.10566000000E+00 0. -1.
     999900   -1    0    0    0    0 -0.00000000000E+00 -0.00000000000E+00 -0.74505805969E-08  0.93827000000E+00  0.93827000000E+00 0. -1.
     999902    2    1    2    0    0  0.22083546169E-01  0.15889530888E-01 -0.15237128531E-02  0.10166814789E+01  0.10163162636E+01 0.  0.
     999903    2    3    3    0    0 -0.11285790895E+00 -0.45703956730E-01  0.13796051520E-01  0.12413587823E+00  0.19840008894E-01 0.  0.
         14    1    1    2    0    0 -0.22083546169E-01 -0.15889530888E-01  0.15237128531E-02  0.27248521136E-01  0.00000000000E+00 0.  1.
     999901    1    3    3    0    0  0.13494145512E+00  0.61593487619E-01 -0.15319764373E-01  0.89254560063E+00  0.88000000000E+00 0.  1.
        -11    1    4    4    0    0 -0.31577690588E-01 -0.16903397654E-01  0.12350702818E-01  0.37890320350E-01  0.51100000000E-03 0.  1.
         11    1    4    4    0    0 -0.81280218364E-01 -0.28800559076E-01  0.14453487018E-02  0.86245557881E-01  0.51100000000E-03 0. -1.
</event>
<event>
 8    1  0.1161093E+005  0.1043930E+01  0.7957747E-01            NaN
         13   -1    0    0    0    0  0.00000000000E+00  0.00000000000E+00  0.74505805969E-08  0.10566000000E+00  0.10566000000E+00 0. -1.
     999900   -1    0    0    0    0 -0.00000000000E+00 -0.00000000000E+00 -0.74505805969E-08  0.93827000000E+00  0.93827000000E+00 0.  1.
     999902    2    1    2    0    0  0.10954536301E-01  0.19459388535E-01 -0.73647831778E-02  0.10204159680E+01  0.10201450084E+01 0.  0.
     999903    2    3    3    0    0  0.72100327935E-01  0.21413991011E-01 -0.10720598051E+00  0.13265986810E+00  0.21177866911E-01 0.  0.
         14    1    1    2    0    0 -0.10954536301E-01 -0.19459388535E-01  0.73647831778E-02  0.23514031959E-01  0.00000000000E+00 0. -1.
     999901    1    3    3    0    0 -0.61145791634E-01 -0.19546024756E-02  0.99841197332E-01  0.88775609995E+00  0.88000000000E+00 0. -1.
        -11    1    4    4    0    0  0.34890968227E-01  0.26502391592E-02 -0.61850873281E-01  0.71064724569E-01  0.51100000000E-03 0.  1.
         11    1    4    4    0    0  0.37209359707E-01  0.18763751851E-01 -0.45355107228E-01  0.61595143527E-01  0.51100000000E-03 0. -1.
</event>
<event>
 8    1  0.1161093E+005  0.1043930E+01  0.7957747E-01            NaN
         13   -1    0    0    0    0  0.00000000000E+00  0.00000000000E+00  0.74505805969E-08  0.10566000000E+00  0.10566000000E+00 0. -1.
     999900   -1    0    0    0    0 -0.00000000000E+00 -0.00000000000E+00 -0.74505805969E-08  0.93827000000E+00  0.93827000000E+00 0.  1.
     999902    2    1    2    0    0 -0.58684844030E-02 -0.14307630628E-01  0.18543051834E-01  0.10197847691E+01  0.10194988882E+01 0.  0.
     999903    2    3    3    0    0 -0.57479698941E-01 -0.99420394443E-01  0.64526383150E-01  0.13298018704E+00  0.18213879328E-01 0.  0.
         14    1    1    2    0    0  0.58684844030E-02  0.14307630628E-01 -0.18543051834E-01  0.24145230889E-01  0.00000000000E+00 0.  1.
     999901    1    3    3    0    0  0.51611214538E-01  0.85112763815E-01 -0.45983331316E-01  0.88680458208E+00  0.88000000000E+00 0. -1.
        -11    1    4    4    0    0 -0.33634323852E-01 -0.46274546092E-01  0.39831567554E-01  0.69709513352E-01  0.51100000000E-03 0. -1.
         11    1    4    4    0    0 -0.23845375089E-01 -0.53145848351E-01  0.24694815597E-01  0.63270673684E-01  0.51100000000E-03 0.  1.
</event>
<event>
 8    1  0.1161093E+005  0.1043930E+01  0.7957747E-01            NaN
         13   -1    0    0    0    0  0.00000000000E+00  0.00000000000E+00  0.74505805969E-08  0.10566000000E+00  0.10566000000E+00 0. -1.
     999900   -1    0    0    0    0 -0.00000000000E+00 -0.00000000000E+00 -0.74505805969E-08  0.93827000000E+00  0.93827000000E+00 0. -1.
     999902    2    1    2    0    0 -0.18759591989E-01  0.10785122307E-01 -0.43726244928E-02  0.10218537458E+01  0.10216152489E+01 0.  0.
     999903    2    3    3    0    0 -0.12441048046E+00  0.40175373468E-01  0.25206542533E-01  0.13455400827E+00  0.19426349978E-01 0.  0.
         14    1    1    2    0    0  0.18759591989E-01 -0.10785122307E-01  0.43726244928E-02  0.22076254206E-01  0.00000000000E+00 0. -1.
     999901    1    3    3    0    0  0.10565088847E+00 -0.29390251160E-01 -0.29579167026E-01  0.88729973753E+00  0.88000000000E+00 0.  1.
        -11    1    4    4    0    0 -0.10740745422E+00  0.41131857250E-01  0.20019197743E-01  0.11674425169E+00  0.51100000000E-03 0.  1.
         11    1    4    4    0    0 -0.17003026231E-01 -0.95648378291E-03  0.51873447907E-02  0.17809756574E-01  0.51100000000E-03 0. -1.
</event>
<event>
 8    1  0.1161093E+005  0.1043930E+01  0.7957747E-01            NaN
         13   -1    0    0    0    0  0.00000000000E+00  0.00000000000E+00  0.74505805969E-08  0.10566000000E+00  0.10566000000E+00 0.  1.
     999900   -1    0    0    0    0 -0.00000000000E+00 -0.00000000000E+00 -0.74505805969E-08  0.93827000000E+00  0.93827000000E+00 0.  1.
     999902    2    1    2    0    0  0.20959212070E-01 -0.88423761709E-02 -0.68172155565E-02  0.10201823556E+01  0.10199059212E+01 0.  0.
     999903    2    3    3    0    0  0.10077611966E+00  0.36480070019E-01 -0.75718132684E-01  0.13272970939E+00  0.19932845670E-01 0.  0.
         14    1    1    2    0    0 -0.20959212070E-01  0.88423761709E-02  0.68172155565E-02  0.23747644407E-01  0.00000000000E+00 0.  1.
     999901    1    3    3    0    0 -0.79816907588E-01 -0.45322446190E-01  0.68900917127E-01  0.88745264620E+00  0.88000000000E+00 0. -1.
        -11    1    4    4    0    0  0.56981473438E-01  0.10861265427E-01 -0.44981294037E-01  0.73405948915E-01  0.51100000000E-03 0. -1.
         11    1    4    4    0    0  0.43794646220E-01  0.25618804593E-01 -0.30736838647E-01  0.59323760478E-01  0.51100000000E-03 0.  1.
</event>
<event>
 8    1  0.1161093E+005  0.1043930E+01  0.7957747E-01            NaN
         13   -1    0    0    0    0  0.00000000000E+00  0.00000000000E+00  0.74505805969E-08  0.10566000000E+00  0.10566000000E+00 0.  1.
     999900   -1    0    0    0    0 -0.00000000000E+00 -0.00000000000E+00 -0.74505805969E-08  0.93827000000E+00  0.93827000000E+00 0.  1.
     999902    2    1    2    0    0 -0.22355833786E-02 -0.17769286016E-01  0.16547638959E-01  0.10195461998E+01  0.10192545726E+01 0.  0.
     999903    2    3    3    0    0  0.10072129438E+00  0.41447977036E-01 -0.63879504455E-01  0.12793231006E+00  0.20575979373E-01 0.  0.
         14    1    1    2    0    0  0.22355833786E-02  0.17769286016E-01 -0.16547638959E-01  0.24383800230E-01  0.00000000000E+00 0. -1.
     999901    1    3    3    0    0 -0.10295687776E+00 -0.59217263051E-01  0.80427143414E-01  0.89161388971E+00  0.88000000000E+00 0. -1.
        -11    1    4    4    0    0  0.24192726334E-01  0.19240271096E-01 -0.21696723473E-01  0.37768835960E-01  0.51100000000E-03 0.  1.
         11    1    4    4    0    0  0.76528568043E-01  0.22207705940E-01 -0.42182780982E-01  0.90163474103E-01  0.51100000000E-03 0. -1.
</event>
<event>
 8    1  0.1161093E+005  0.1043930E+01  0.7957747E-01            NaN
         13   -1    0    0    0    0  0.00000000000E+00  0.00000000000E+00  0.74505805969E-08  0.10566000000E+00  0.10566000000E+00 0.  1.
     999900   -1    0    0    0    0 -0.00000000000E+00 -0.00000000000E+00 -0.74505805969E-08  0.93827000000E+00  0.93827000000E+00 0. -1.
     999902    2    1    2    0    0  0.22934062232E-01  0.86208771824E-03 -0.45512628339E-02  0.10205328122E+01  0.10202645697E+01 0.  0.
     999903    2    3    3    0    0 -0.78434930595E-01 -0.85145662842E-01 -0.53283710792E-01  0.12921476715E+00  0.21341976855E-01 0.  0.
         14    1    1    2    0    0 -0.22934062232E-01 -0.86208771824E-03  0.45512628339E-02  0.23397187846E-01  0.00000000000E+00 0. -1.
     999901    1    3    3    0    0  0.10136899283E+00  0.86007750560E-01  0.48732447958E-01  0.89131804500E+00  0.88000000000E+00 0.  1.
        -11    1    4    4    0    0 -0.30492676623E-01 -0.27954618537E-01 -0.29771410793E-01  0.50969226469E-01  0.51100000000E-03 0.  1.
         11    1    4    4    0    0 -0.47942253972E-01 -0.57191044304E-01 -0.23512299999E-01  0.78245540683E-01  0.51100000000E-03 0. -1.
</event>
<event>
 8    1  0.1161093E+005  0.1043930E+01  0.7957747E-01            NaN
         13   -1    0    0    0    0  0.00000000000E+00  0.00000000000E+00  0.74505805969E-08  0.10566000000E+00  0.10566000000E+00 0.  1.
     999900   -1    0    0    0    0 -0.00000000000E+00 -0.00000000000E+00 -0.74505805969E-08  0.93827000000E+00  0.93827000000E+00 0.  1.
     999902    2    1    2    0    0 -0.47067441138E-02  0.99149318818E-02  0.20759725935E-01  0.10204475484E+01  0.10201773245E+01 0.  0.
     999903    2    3    3    0    0  0.91598166752E-01 -0.74680441615E-01 -0.47180561379E-01  0.12856925188E+00  0.18348151024E-01 0.  0.
         14    1    1    2    0    0  0.47067441138E-02 -0.99149318818E-02 -0.20759725935E-01  0.23482451645E-01  0.00000000000E+00 0. -1.
     999901    1    3    3    0    0 -0.96304910866E-01  0.84595373497E-01  0.67940287314E-01  0.89187829647E+00  0.88000000000E+00 0. -1.
        -11    1    4    4    0    0  0.86300404685E-01 -0.66272171363E-01 -0.47224958441E-01  0.11861795128E+00  0.51100000000E-03 0. -1.
         11    1    4    4    0    0  0.52977620668E-02 -0.84082702520E-02  0.44397062506E-04  0.99513006008E-02  0.51100000000E-03 0.  1.
</event>
<event>
 8    1  0.1161093E+005  0.1043930E+01  0.7957747E-01            NaN
         13   -1    0    0    0    0  0.00000000000E+00  0.00000000000E+00  0.74505805969E-08  0.10566000000E+00  0.10566000000E+00 0.  1.
     999900   -1    0    0    0    0 -0.00000000000E+00 -0.00000000000E+00 -0.74505805969E-08  0.93827000000E+00  0.93827000000E+00 0. -1.
     999902    2    1    2    0    0  0.22237289881E-01  0.41803433985E-02  0.61532135961E-02  0.10204814527E+01  0.10202120177E+01 0.  0.
     999903    2    3    3    0    0  0.87905626143E-01 -0.88095392165E-02 -0.96651693759E-01  0.13197151106E+00  0.16429325528E-01 0.  0.
         14    1    1    2    0    0 -0.22237289881E-01 -0.41803433985E-02 -0.61532135961E-02  0.23448547284E-01  0.00000000000E+00 0. -1.
     999901    1    3    3    0    0 -0.65668336262E-01  0.12989882615E-01  0.10280490736E+00  0.88850994165E+00  0.88000000000E+00 0.  1.
        -11    1    4    4    0    0  0.30622116129E-01 -0.10954389793E-01 -0.35845825281E-01  0.48403480898E-01  0.51100000000E-03 0.  1.
         11    1    4    4    0    0  0.57283510014E-01  0.21448505767E-02 -0.60805868478E-01  0.83568030166E-01  0.51100000000E-03 0. -1.
</event>
<event>
 8    1  0.1161093E+005  0.1043930E+01  0.7957747E-01            NaN
         13   -1    0    0    0    0  0.00000000000E+00  0.00000000000E+00  0.74505805969E-08  0.10566000000E+00  0.10566000000E+00 0. -1.
     999900   -1    0    0    0    0 -0.00000000000E+00 -0.00000000000E+00 -0.74505805969E-08  0.93827000000E+00  0.93827000000E+00 0.  1.
     999902    2    1    2    0    0 -0.19508702279E-02  0.21807570397E-01 -0.67235835227E-02  0.10210262318E+01  0.10207693096E+01 0.  0.
     999903    2    3    3    0    0  0.87159487534E-01 -0.87568998985E-01 -0.33713377005E-01  0.12938037234E+00  0.18373434797E-01 0.  0.
         14    1    1    2    0    0  0.19508702279E-02 -0.21807570397E-01  0.67235835227E-02  0.22903768176E-01  0.00000000000E+00 0. -1.
     999901    1    3    3    0    0 -0.89110357762E-01  0.10937656938E+00  0.26989793483E-01  0.89164585949E+00  0.88000000000E+00 0.  1.
        -11    1    4    4    0    0  0.75865832255E-02 -0.13744829849E-01 -0.88286372973E-02  0.18018949751E-01  0.51100000000E-03 0.  1.
         11    1    4    4    0    0  0.79572904309E-01 -0.73824169136E-01 -0.24884739708E-01  0.11136142258E+00  0.51100000000E-03 0. -1.
</event>
<event>
 8    1  0.1161093E+005  0.1043930E+01  0.7957747E-01            NaN
         13   -1    0    0    0    0  0.00000000000E+00  0.00000000000E+00  0.74505805969E-08  0.10566000000E+00  0.10566000000E+00 0. -1.
     999900   -1    0    0    0    0 -0.00000000000E+00 -0.00000000000E+00 -0.74505805969E-08  0.93827000000E+00  0.93827000000E+00 0. -1.
     999902    2    1    2    0    0  0.15722095020E-01 -0.16265446041E-01  0.51905001905E-02  0.10207202973E+01  0.10204563857E+01 0.  0.
     999903    2    3    3    0    0  0.66250872562E-02  0.12741689327E+00  0.39544194766E-02  0.12902029278E+00  0.18752121034E-01 0.  0.
         14    1    1    2    0    0 -0.15722095020E-01  0.16265446041E-01 -0.51905001905E-02  0.23209702690E-01  0.00000000000E+00 0.  1.
     999901    1    3    3    0    0  0.90970077641E-02 -0.14368233931E+00  0.12360807139E-02  0.89170000453E+00  0.88000000000E+00 0. -1.
        -11    1    4    4    0    0  0.89547929097E-02  0.70871992099E-01 -0.54673560803E-02  0.71646218907E-01  0.51100000000E-03 0. -1.
         11    1    4    4    0    0 -0.23297056536E-02  0.56544901175E-01  0.94217755569E-02  0.57374073874E-01  0.51100000000E-03 0.  1.
</event>
<event>
 8    1  0.1161093E+005  0.1043930E+01  0.7957747E-01            NaN
         13   -1    0    0    0    0  0.00000000000E+00  0.00000000000E+00  0.74505805969E-08  0.10566000000E+00  0.10566000000E+00 0.  1.
     999900   -1    0    0    0    0 -0.00000000000E+00 -0.00000000000E+00 -0.74505805969E-08  0.93827000000E+00  0.93827000000E+00 0.  1.
     999902    2    1    2    0    0 -0.88105035957E-02  0.19684545495E-01  0.91739135697E-02  0.10204935541E+01  0.10202244003E+01 0.  0.
     999903    2    3    3    0    0  0.95395446166E-01 -0.45537293984E-01  0.72608365598E-01  0.12968678607E+00  0.19306771713E-01 0.  0.
         14    1    1    2    0    0  0.88105035957E-02 -0.19684545495E-01 -0.91739135697E-02  0.23436445873E-01  0.00000000000E+00 0. -1.
     999901    1    3    3    0    0 -0.10420594976E+00  0.65221839479E-01 -0.63434452028E-01  0.89080676806E+00  0.88000000000E+00 0. -1.
        -11    1    4    4    0    0  0.47391943939E-01 -0.30221265582E-01  0.46406916488E-01  0.72891592537E-01  0.51100000000E-03 0.  1.
         11    1    4    4    0    0  0.48003502227E-01 -0.15316028402E-01  0.26201449111E-01  0.56795193534E-01  0.51100000000E-03 0. -1.
</event>
<event>
 8    1  0.1161093E+005  0.1043930E+01  0.7957747E-01            NaN
         13   -1    0    0    0    0  0.00000000000E+00  0.00000000000E+00  0.74505805969E-08  0.10566000000E+00  0.10566000000E+00 0.  1.
     999900   -1    0    0    0    0 -0.00000000000E+00 -0.00000000000E+00 -0.74505805969E-08  0.93827000000E+00  0.93827000000E+00 0.  1.
     999902    2    1    2    0    0  0.19261853547E-01 -0.12218151987E-01 -0.30723793069E-02  0.10209138805E+01  0.10206544027E+01 0.  0.
     999903    2    3    3    0    0 -0.32569303179E-02  0.10503733660E+00  0.73102785929E-01  0.12958980871E+00  0.20150720527E-01 0.  0.
         14    1    1    2    0    0 -0.19261853547E-01  0.12218151987E-01  0.30723793069E-02  0.23016119453E-01  0.00000000000E+00 0.  1.
     999901    1    3    3    0    0  0.22518783865E-01 -0.11725548858E+00 -0.76175165236E-01  0.89132407183E+00  0.88000000000E+00 0.  1.
        -11    1    4    4    0    0 -0.11286918869E-01  0.77301287709E-01  0.53463551777E-01  0.94665178966E-01  0.51100000000E-03 0.  1.
         11    1    4    4    0    0  0.80299885512E-02  0.27736048888E-01  0.19639234152E-01  0.34924629749E-01  0.51100000000E-03 0. -1.
</event>
<event>
 8    1  0.1161093E+005  0.1043930E+01  0.7957747E-01            NaN
         13   -1    0    0    0    0  0.00000000000E+00  0.00000000000E+00  0.74505805969E-08  0.10566000000E+00  0.10566000000E+00 0. -1.
     999900   -1    0    0    0    0 -0.00000000000E+00 -0.00000000000E+00 -0.74505805969E-08  0.93827000000E+00  0.93827000000E+00 0. -1.
     999902    2    1    2    0    0  0.12527103124E-02  0.13604029165E-01 -0.17628884428E-01  0.10216271648E+01  0.10213836925E+01 0.  0.
     999903    2    3    3    0    0 -0.10732270437E+00  0.56727140442E-01 -0.51588357300E-01  0.13325704529E+00  0.18972352914E-01 0.  0.
         14    1    1    2    0    0 -0.12527103124E-02 -0.13604029165E-01  0.17628884428E-01  0.22302835220E-01  0.00000000000E+00 0. -1.
     999901    1    3    3    0    0  0.10857541468E+00 -0.43123111277E-01  0.33959472872E-01  0.88837011949E+00  0.88000000000E+00 0.  1.
        -11    1    4    4    0    0 -0.17984922799E-01  0.15605044721E-01 -0.45885327223E-02  0.24254703098E-01  0.51100000000E-03 0.  1.
         11    1    4    4    0    0 -0.89337781572E-01  0.41122095722E-01 -0.46999824578E-01  0.10900234220E+00  0.51100000000E-03 0. -1.
</event>
<event>
 8    1  0.1161093E+005  0.1043930E+01  0.7957747E-01            NaN
         13   -1    0    0    0    0  0.00000000000E+00  0.00000000000E+00  0.74505805969E-08  0.10566000000E+00  0.10566000000E+00 0. -1.
     999900   -1    0    0    0    0 -0.00000000000E+00 -0.00000000000E+00 -0.74505805969E-08  0.93827000000E+00  0.93827000000E+00 0.  1.
     999902    2    1    2    0    0 -0.21302365377E-01  0.56982217955E-02 -0.84861939309E-02  0.10203021353E+01  0.10200285150E+01 0.  0.
     999903    2    3    3    0    0 -0.16878276398E-01 -0.10616173834E+00  0.70214453766E-01  0.12972590882E+00  0.18535128840E-01 0.  0.
         14    1    1    2    0    0  0.21302365377E-01 -0.56982217955E-02  0.84861939309E-02  0.23627864688E-01  0.00000000000E+00 0. -1.
     999901    1    3    3    0    0 -0.44240889791E-02  0.11185996013E+00 -0.78700647697E-01  0.89057622649E+00  0.88000000000E+00 0.  1.
        -11    1    4    4    0    0 -0.31501655127E-02 -0.70835633112E-01  0.41350969790E-01  0.82083946571E-01  0.51100000000E-03 0.  1.
         11    1    4    4    0    0 -0.13728110885E-01 -0.35326105223E-01  0.28863483976E-01  0.47641962250E-01  0.51100000000E-03 0. -1.
</event>
<event>
 8    1  0.1161093E+005  0.1043930E+01  0.7957747E-01            NaN
         13   -1    0    0    0    0  0.00000000000E+00  0.00000000000E+00  0.74505805969E-08  0.10566000000E+00  0.10566000000E+00 0.  1.
     999900   -1    0    0    0    0 -0.00000000000E+00 -0.00000000000E+00 -0.74505805969E-08  0.93827000000E+00  0.93827000000E+00 0.  1.
     999902    2    1    2    0    0 -0.84460801822E-02  0.19010489846E-01  0.19844351624E-02  0.10230332783E+01  0.10228198353E+01 0.  0.
     999903    2    3    3    0    0  0.25001010451E-01  0.10650461993E+00  0.76441595784E-01  0.13493542365E+00  0.19898904496E-01 0.  0.
         14    1    1    2    0    0  0.84460801822E-02 -0.19010489846E-01 -0.19844351624E-02  0.20896721693E-01  0.00000000000E+00 0.  1.
     999901    1    3    3    0    0 -0.33447090633E-01 -0.87494130087E-01 -0.74457160622E-01  0.88809785465E+00  0.88000000000E+00 0. -1.
        -11    1    4    4    0    0  0.47602335637E-02  0.21997090095E-01  0.66320671409E-02  0.23468643586E-01  0.51100000000E-03 0. -1.
         11    1    4    4    0    0  0.20240776887E-01  0.84507529838E-01  0.69809528643E-01  0.11146678007E+00  0.51100000000E-03 0.  1.
</event>
<event>
 7    1  0.1161093E+005  0.1043930E+01  0.7957747E-01            NaN
         13   -1    0    0    0    0  0.00000000000E+00  0.00000000000E+00  0.74505805969E-08  0.10566000000E+00  0.10566000000E+00 0.  1.
     999900   -1    0    0    0    0 -0.00000000000E+00 -0.00000000000E+00 -0.74505805969E-08  0.93827000000E+00  0.93827000000E+00 0. -1.
     999902    2    1    2    0    0  0.66102301370E-02  0.42383431674E-02  0.18195876873E-01  0.10241121134E+01  0.10239203446E+01 0.  0.
         14    1    1    2    0    0 -0.66102301370E-02 -0.42383431674E-02 -0.18195876873E-01  0.19817886629E-01  0.00000000000E+00 0. -1.
     999901    1    3    3    0    0 -0.10572856633E+00 -0.98163767697E-02 -0.44541634478E-01  0.88750146377E+00  0.88000000000E+00 0. -1.
        -11    1    3    3    0    0  0.10441709448E+00  0.20485461826E-02  0.44875903647E-01  0.11367160600E+00  0.51100000000E-03 0.  1.
         11    1    3    3    0    0  0.79217019899E-02  0.12006173754E-01  0.17861607704E-01  0.22939043602E-01  0.51100000000E-03 0. -1.
</event>
<event>
 8    1  0.1161093E+005  0.1043930E+01  0.7957747E-01            NaN
         13   -1    0    0    0    0  0.00000000000E+00  0.00000000000E+00  0.74505805969E-08  0.10566000000E+00  0.10566000000E+00 0. -1.
     999900   -1    0    0    0    0 -0.00000000000E+00 -0.00000000000E+00 -0.74505805969E-08  0.93827000000E+00  0.93827000000E+00 0. -1.
     999902    2    1    2    0    0  0.15300359665E-01 -0.14901971075E-01 -0.88193530847E-02  0.10208226259E+01  0.10205610628E+01 0.  0.
     999903    2    3    3    0    0  0.82441594135E-01 -0.14500518785E-01  0.99633016732E-01  0.13162634667E+00  0.19795848677E-01 0.  0.
         14    1    1    2    0    0 -0.15300359665E-01  0.14901971075E-01  0.88193530847E-02  0.23107374075E-01  0.00000000000E+00 0. -1.
     999901    1    3    3    0    0 -0.67141234470E-01 -0.40145229030E-03 -0.10845236982E+00  0.88919627926E+00  0.88000000000E+00 0. -1.
        -11    1    4    4    0    0  0.50893505949E-01 -0.49680348683E-02  0.46603145569E-01  0.69187749032E-01  0.51100000000E-03 0.  1.
         11    1    4    4    0    0  0.31548088186E-01 -0.95324839167E-02  0.53029871164E-01  0.62438597633E-01  0.51100000000E-03 0. -1.
</event>
<event>
 8    1  0.1161093E+005  0.1043930E+01  0.7957747E-01            NaN
         13   -1    0    0    0    0  0.00000000000E+00  0.00000000000E+00  0.74505805969E-08  0.10566000000E+00  0.10566000000E+00 0. -1.
     999900   -1    0    0    0    0 -0.00000000000E+00 -0.00000000000E+00 -0.74505805969E-08  0.93827000000E+00  0.93827000000E+00 0. -1.
     999902    2    1    2    0    0 -0.51471259821E-02 -0.10830110088E-01  0.23142015072E-01  0.10178659049E+01  0.10175321436E+01 0.  0.
     999903    2    3    3    0    0 -0.11584025892E+00  0.36583204471E-01 -0.32947022907E-01  0.12789569629E+00  0.22682733001E-01 0.  0.
         14    1    1    2    0    0  0.51471259821E-02  0.10830110088E-01 -0.23142015072E-01  0.26064095073E-01  0.00000000000E+00 0.  1.
     999901    1    3    3    0    0  0.11069313293E+00 -0.47413314559E-01  0.56089037979E-01  0.88997020863E+00  0.88000000000E+00 0.  1.
        -11    1    4    4    0    0 -0.35442290720E-01  0.72416346539E-02  0.23951453460E-04  0.36178155545E-01  0.51100000000E-03 0.  1.
         11    1    4    4    0    0 -0.80397968196E-01  0.29341569817E-01 -0.32970974361E-01  0.91717540747E-01  0.51100000000E-03 0. -1.
</event>
<event>
 8    1  0.1161093E+005  0.1043930E+01  0.7957747E-01            NaN
         13   -1    0    0    0    0  0.00000000000E+00  0.00000000000E+00  0.74505805969E-08  0.10566000000E+00  0.10566000000E+00 0. -1.
     999900   -1    0    0    0    0 -0.00000000000E+00 -0.00000000000E+00 -0.74505805969E-08  0.93827000000E+00  0.93827000000E+00 0. -1.
     999902    2    1    2    0    0 -0.21203432596E-01 -0.65427232591E-02 -0.95086319670E-02  0.10197886068E+01  0.10195028179E+01 0.  0.
     999903    2    3    3    0    0  0.95786246905E-01  0.10222624029E-01  0.81026864396E-01  0.12728407572E+00  0.18877924674E-01 0.  0.
         14    1    1    2    0    0  0.21203432596E-01  0.65427232591E-02  0.95086319670E-02  0.24141393153E-01  0.00000000000E+00 0.  1.
     999901    1    3    3    0    0 -0.11698967950E+00 -0.16765347289E-01 -0.90535496363E-01  0.89250453113E+00  0.88000000000E+00 0. -1.
        -11    1    4    4    0    0  0.40076682436E-01 -0.44355858277E-02  0.37682277432E-01  0.55190851146E-01  0.51100000000E-03 0.  1.
         11    1    4    4    0    0  0.55709564468E-01  0.14658209857E-01  0.43344586965E-01  0.72093224575E-01  0.51100000000E-03 0. -1.
</event>
<event>
 8    1  0.1161093E+005  0.1043930E+01  0.7957747E-01            NaN
         13   -1    0    0    0    0  0.00000000000E+00  0.00000000000E+00  0.74505805969E-08  0.10566000000E+00  0.10566000000E+00 0.  1.
     999900   -1    0    0    0    0 -0.00000000000E+00 -0.00000000000E+00 -0.74505805969E-08  0.93827000000E+00  0.93827000000E+00 0. -1.
     999902    2    1    2    0    0 -0.18702396162E-04  0.11117591698E-01  0.19984774602E-01  0.10210609727E+01  0.10208048381E+01 0.  0.
     999903    2    3    3    0    0 -0.52987498661E-01 -0.13013744217E-01  0.12005020845E+00  0.13347936752E+00  0.20679856195E-01 0.  0.
         14    1    1    2    0    0  0.18702396162E-04 -0.11117591698E-01 -0.19984774602E-01  0.22869027326E-01  0.00000000000E+00 0. -1.
     999901    1    3    3    0    0  0.52968796265E-01  0.24131335915E-01 -0.10006543385E+00  0.88758160515E+00  0.88000000000E+00 0. -1.
        -11    1    4    4    0    0 -0.28719482453E-01  0.35784335125E-02  0.59111216317E-01  0.65818013296E-01  0.51100000000E-03 0. -1.
         11    1    4    4    0    0 -0.24268016208E-01 -0.16592177730E-01  0.60938992134E-01  0.67661354227E-01  0.51100000000E-03 0.  1.
</event>
<event>
 8    1  0.1161093E+005  0.1043930E+01  0.7957747E-01            NaN
         13   -1    0    0    0    0  0.00000000000E+00  0.00000000000E+00  0.74505805969E-08  0.10566000000E+00  0.10566000000E+00 0. -1.
     999900   -1    0    0    0    0 -0.00000000000E+00 -0.00000000000E+00 -0.74505805969E-08  0.93827000000E+00  0.93827000000E+00 0. -1.
     999902    2    1    2    0    0  0.85226749368E-02 -0.23502200246E-01 -0.30850653418E-02  0.10187405770E+01  0.10184291120E+01 0.  0.
     999903    2    3    3    0    0  0.88903531925E-01 -0.84704923898E-01 -0.44435615990E-01  0.13199556086E+00  0.19223475162E-01 0.  0.
         14    1    1    2    0    0 -0.85226749368E-02  0.23502200246E-01  0.30850653418E-02  0.25189423031E-01  0.00000000000E+00 0. -1.
     999901    1    3    3    0    0 -0.80380856988E-01  0.61202723652E-01  0.41350550648E-01  0.88674501611E+00  0.88000000000E+00 0. -1.
        -11    1    4    4    0    0  0.81169961287E-02 -0.63498541269E-02 -0.98294289989E-02  0.14250791874E-01  0.51100000000E-03 0. -1.
         11    1    4    4    0    0  0.80786535796E-01 -0.78355069771E-01 -0.34606186991E-01  0.11774476899E+00  0.51100000000E-03 0.  1.
</event>
<event>
 8    1  0.1161093E+005  0.1043930E+01  0.7957747E-01            NaN
         13   -1    0    0    0    0  0.00000000000E+00  0.00000000000E+00  0.74505805969E-08  0.10566000000E+00  0.10566000000E+00 0. -1.
     999900   -1    0    0    0    0 -0.00000000000E+00 -0.00000000000E+00 -0.74505805969E-08  0.93827000000E+00  0.93827000000E+00 0. -1.
     999902    2    1    2    0    0  0.12066076886E-01  0.99205919156E-02 -0.17344075230E-01  0.10205885069E+01  0.10203215547E+01 0.  0.
     999903    2    3    3    0    0  0.40173797789E-01  0.84925367882E-01 -0.93260413571E-01  0.13369558729E+00  0.18728405789E-01 0.  0.
         14    1    1    2    0    0 -0.12066076886E-01 -0.99205919156E-02  0.17344075230E-01  0.23341493117E-01  0.00000000000E+00 0. -1.
     999901    1    3    3    0    0 -0.28107720903E-01 -0.75004775966E-01  0.75916338341E-01  0.88689291959E+00  0.88000000000E+00 0.  1.
        -11    1    4    4    0    0  0.56008425323E-02  0.26241036222E-01 -0.18713985799E-01  0.32717515257E-01  0.51100000000E-03 0. -1.
         11    1    4    4    0    0  0.34572955257E-01  0.58684331660E-01 -0.74546427771E-01  0.10097807204E+00  0.51100000000E-03 0.  1.
</event>
<event>
 8    1  0.1161093E+005  0.1043930E+01  0.7957747E-01            NaN
         13   -1    0    0    0    0  0.00000000000E+00  0.00000000000E+00  0.74505805969E-08  0.10566000000E+00  0.10566000000E+00 0. -1.
     999900   -1    0    0    0    0 -0.00000000000E+00 -0.00000000000E+00 -0.74505805969E-08  0.93827000000E+00  0.93827000000E+00 0. -1.
     999902    2    1    2    0    0 -0.47793701024E-02  0.19466330355E-02  0.23477078024E-01  0.10198924263E+01  0.10196091193E+01 0.  0.
     999903    2    3    3    0    0  0.87154146041E-02 -0.72506520542E-01  0.10882955397E+00  0.13253092921E+00  0.19683023331E-01 0.  0.
         14    1    1    2    0    0  0.47793701024E-02 -0.19466330355E-02 -0.23477078024E-01  0.24037573740E-01  0.00000000000E+00 0.  1.
     999901    1    3    3    0    0 -0.13494784706E-01  0.74453153578E-01 -0.85352475948E-01  0.88736149705E+00  0.88000000000E+00 0. -1.
        -11    1    4    4    0    0  0.92868649040E-03 -0.18353377501E-01  0.44085581313E-01  0.47765139223E-01  0.51100000000E-03 0. -1.
         11    1    4    4    0    0  0.77867281137E-02 -0.54153143041E-01  0.64743972659E-01  0.84765789990E-01  0.51100000000E-03 0.  1.
</event>
<event>
 8    1  0.1161093E+005  0.1043930E+01  0.7957747E-01            NaN
         13   -1    0    0    0    0  0.00000000000E+00  0.00000000000E+00  0.74505805969E-08  0.10566000000E+00  0.10566000000E+00 0.  1.
     999900   -1    0    0    0    0 -0.00000000000E+00 -0.00000000000E+00 -0.74505805969E-08  0.93827000000E+00  0.93827000000E+00 0. -1.
     999902    2    1    2    0    0 -0.81347241850E-02  0.77584172614E-02 -0.20986119539E-01  0.10201227744E+01  0.10198449347E+01 0.  0.
     999903    2    3    3    0    0 -0.80461326608E-01  0.10015335966E+00  0.20596988043E-01  0.13136121044E+00  0.18077919155E-01 0.  0.
         14    1    1    2    0    0  0.81347241850E-02 -0.77584172614E-02  0.20986119539E-01  0.23807225568E-01  0.00000000000E+00 0.  1.
     999901    1    3    3    0    0  0.72326602423E-01 -0.92394942395E-01 -0.41583107582E-01  0.88876156399E+00  0.88000000000E+00 0. -1.
        -11    1    4    4    0    0 -0.50092395733E-01  0.74595489620E-01  0.17511737634E-01  0.91545929772E-01  0.51100000000E-03 0.  1.
         11    1    4    4    0    0 -0.30368930875E-01  0.25557870036E-01  0.30852504095E-02  0.39815280665E-01  0.51100000000E-03 0. -1.
</event>
<event>
 8    1  0.1161093E+005  0.1043930E+01  0.7957747E-01            NaN
         13   -1    0    0    0    0  0.00000000000E+00  0.00000000000E+00  0.74505805969E-08  0.10566000000E+00  0.10566000000E+00 0. -1.
     999900   -1    0    0    0    0 -0.00000000000E+00 -0.00000000000E+00 -0.74505805969E-08  0.93827000000E+00  0.93827000000E+00 0.  1.
     999902    2    1    2    0    0  0.48832966437E-02 -0.23416184777E-01 -0.20096086255E-02  0.10199257749E+01  0.10196432629E+01 0.  0.
     999903    2    3    3    0    0  0.30111130207E-01  0.73821498268E-01  0.98755340003E-01  0.12849704222E+00  0.20064369178E-01 0.  0.
         14    1    1    2    0    0 -0.48832966437E-02  0.23416184777E-01  0.20096086255E-02  0.24004225095E-01  0.00000000000E+00 0. -1.
     999901    1    3    3    0    0 -0.25227833564E-01 -0.97237683044E-01 -0.10076494863E+00  0.89142873269E+00  0.88000000000E+00 0.  1.
        -11    1    4    4    0    0  0.25999329644E-01  0.53964631443E-01  0.85003448943E-01  0.10399035552E+00  0.51100000000E-03 0.  1.
         11    1    4    4    0    0  0.41118005638E-02  0.19856866824E-01  0.13751891060E-01  0.24506686693E-01  0.51100000000E-03 0. -1.
</event>
<event>
 8    1  0.1161093E+005  0.1043930E+01  0.7957747E-01            NaN
         13   -1    0    0    0    0  0.00000000000E+00  0.00000000000E+00  0.74505805969E-08  0.10566000000E+00  0.10566000000E+00 0. -1.
     999900   -1    0    0    0    0 -0.00000000000E+00 -0.00000000000E+00 -0.74505805969E-08  0.93827000000E+00  0.93827000000E+00 0.  1.
     999902    2    1    2    0    0 -0.16348456349E-01 -0.13726836780E-02  0.16954887609E-01  0.10203371091E+01  0.10200643077E+01 0.  0.
     999903    2    3    3    0    0 -0.64238066670E-01 -0.26798066403E-03  0.11510324317E+00  0.13358588425E+00  0.21675582083E-01 0.  0.
         14    1    1    2    0    0  0.16348456349E-01  0.13726836780E-02 -0.16954887609E-01  0.23592890864E-01  0.00000000000E+00 0.  1.
     999901    1    3    3    0    0  0.47889610321E-01 -0.11047030139E-02 -0.98148355560E-01  0.88675122489E+00  0.88000000000E+00 0.  1.
        -11    1    4    4    0    0 -0.52532144275E-01 -0.14335445189E-02  0.10724497533E+00  0.11942959050E+00  0.51100000000E-03 0. -1.
         11    1    4    4    0    0 -0.11705922395E-01  0.11655638549E-02  0.78582678359E-02  0.14156293745E-01  0.51100000000E-03 0.  1.
</event>
<event>
 8    1  0.1161093E+005  0.1043930E+01  0.7957747E-01            NaN
         13   -1    0    0    0    0  0.00000000000E+00  0.00000000000E+00  0.74505805969E-08  0.10566000000E+00  0.10566000000E+00 0. -1.
     999900   -1    0    0    0    0 -0.00000000000E+00 -0.00000000000E+00 -0.74505805969E-08  0.93827000000E+00  0.93827000000E+00 0.  1.
     999902    2    1    2    0    0 -0.39797117278E-02  0.10969184849E-01 -0.20087128789E-01  0.10206995488E+01  0.10204351596E+01 0.  0.
     999903    2    3    3    0    0 -0.42796102266E-01 -0.61638688777E-01  0.10215190574E+00  0.12844342127E+00  0.20781393088E-01 0.  0.
         14    1    1    2    0    0  0.39797117278E-02 -0.10969184849E-01  0.20087128789E-01  0.23230451238E-01  0.00000000000E+00 0. -1.
     999901    1    3    3    0    0  0.38816390538E-01  0.72607873626E-01 -0.12223903453E+00  0.89225612749E+00  0.88000000000E+00 0.  1.
        -11    1    4    4    0    0 -0.14871952370E-01 -0.37568686948E-01  0.45529741082E-01  0.60875279468E-01  0.51100000000E-03 0. -1.
         11    1    4    4    0    0 -0.27924149896E-01 -0.24070001829E-01  0.56622164654E-01  0.67568141802E-01  0.51100000000E-03 0.  1.
</event>
<event>
 8    1  0.1161093E+005  0.1043930E+01  0.7957747E-01            NaN
         13   -1    0    0    0    0  0.00000000000E+00  0.00000000000E+00  0.74505805969E-08  0.10566000000E+00  0.10566000000E+00 0. -1.
     999900   -1    0    0    0    0 -0.00000000000E+00 -0.00000000000E+00 -0.74505805969E-08  0.93827000000E+00  0.93827000000E+00 0. -1.
     999902    2    1    2    0    0  0.71295779611E-02  0.55211491469E-02 -0.22529166991E-01  0.10196632051E+01  0.10193744035E+01 0.  0.
     999903    2    3    3    0    0  0.68211492609E-02 -0.36688932576E-01 -0.12581953150E+00  0.13261716033E+00  0.19082737098E-01 0.  0.
         14    1    1    2    0    0 -0.71295779611E-02 -0.55211491469E-02  0.22529166991E-01  0.24266794908E-01  0.00000000000E+00 0. -1.
     999901    1    3    3    0    0  0.30842870026E-03  0.42210081723E-01  0.10329036451E+00  0.88704604476E+00  0.88000000000E+00 0.  1.
        -11    1    4    4    0    0  0.59056110324E-02 -0.31747274093E-01 -0.76475712256E-01  0.83015428326E-01  0.51100000000E-03 0. -1.
         11    1    4    4    0    0  0.91553822845E-03 -0.49416584828E-02 -0.49343819248E-01  0.49601732004E-01  0.51100000000E-03 0.  1.
</event>
<event>
 8    1  0.1161093E+005  0.1043930E+01  0.7957747E-01            NaN
         13   -1    0    0    0    0  0.00000000000E+00  0.00000000000E+00  0.74505805969E-08  0.10566000000E+00  0.10566000000E+00 0. -1.
     999900   -1    0    0    0    0 -0.00000000000E+00 -0.00000000000E+00 -0.74505805969E-08  0.93827000000E+00  0.93827000000E+00 0. -1.
     999902    2    1    2    0    0  0.18730931647E-01 -0.27917658353E-02 -0.13187828785E-01  0.10208527258E+01  0.10205918514E+01 0.  0.
     999903    2    3    3    0    0  0.28228103090E-01 -0.82133261523E-01  0.95529818933E-01  0.13056917763E+00  0.19485004203E-01 0.  0.
         14    1    1    2    0    0 -0.18730931647E-01  0.27917658353E-02  0.13187828785E-01  0.23077274209E-01  0.00000000000E+00 0. -1.
     999901    1    3    3    0    0 -0.94971714431E-02  0.79341495688E-01 -0.10871764772E+00  0.89028354816E+00  0.88000000000E+00 0. -1.
        -11    1    4    4    0    0  0.21856899625E-01 -0.60985272884E-01  0.57672899523E-01  0.86737258605E-01  0.51100000000E-03 0.  1.
         11    1    4    4    0    0  0.63712034649E-02 -0.21147988639E-01  0.37856919410E-01  0.43831919023E-01  0.51100000000E-03 0. -1.
</event>
<event>
 8    1  0.1161093E+005  0.1043930E+01  0.7957747E-01            NaN
         13   -1    0    0    0    0  0.00000000000E+00  0.00000000000E+00  0.74505805969E-08  0.10566000000E+00  0.10566000000E+00 0.  1.
     999900   -1    0    0    0    0 -0.00000000000E+00 -0.00000000000E+00 -0.74505805969E-08  0.93827000000E+00  0.93827000000E+00 0. -1.
     999902    2    1    2    0    0 -0.21696504021E-01  0.78981237426E-02  0.40129931373E-02  0.10204944979E+01  0.10202253660E+01 0.  0.
     999903    2    3    3    0    0 -0.84874171776E-01 -0.17240548630E-01  0.98817264301E-01  0.13279453710E+00  0.19200932473E-01 0.  0.
         14    1    1    2    0    0  0.21696504021E-01 -0.78981237426E-02 -0.40129931373E-02  0.23435502113E-01  0.00000000000E+00 0. -1.
     999901    1    3    3    0    0  0.63177667755E-01  0.25138672373E-01 -0.94804271163E-01  0.88769996079E+00  0.88000000000E+00 0. -1.
        -11    1    4    4    0    0 -0.15253494288E-01 -0.88851268192E-02  0.12769365903E-01  0.21792943655E-01  0.51100000000E-03 0.  1.
         11    1    4    4    0    0 -0.69620677488E-01 -0.83554218113E-02  0.86047898398E-01  0.11100159344E+00  0.51100000000E-03 0. -1.
</event>
<event>
 8    1  0.1161093E+005  0.1043930E+01  0.7957747E-01            NaN
         13   -1    0    0    0    0  0.00000000000E+00  0.00000000000E+00  0.74505805969E-08  0.10566000000E+00  0.10566000000E+00 0.  1.
     999900   -1    0    0    0    0 -0.00000000000E+00 -0.00000000000E+00 -0.74505805969E-08  0.93827000000E+00  0.93827000000E+00 0. -1.
     999902    2    1    2    0    0  0.11181964893E-01 -0.53832908145E-02  0.20323759600E-01  0.10201167398E+01  0.10198387575E+01 0.  0.
     999903    2    3    3    0    0 -0.52793650021E-02  0.31939279503E-01  0.12708349756E+00  0.13272641342E+00  0.20447400735E-01 0.  0.
         14    1    1    2    0    0 -0.11181964893E-01  0.53832908145E-02 -0.20323759600E-01  0.23813260238E-01  0.00000000000E+00 0. -1.
     999901    1    3    3    0    0  0.16461329895E-01 -0.37322570318E-01 -0.10675973796E+00  0.88739032634E+00  0.88000000000E+00 0. -1.
        -11    1    4    4    0    0 -0.44076563712E-02  0.22512236254E-01  0.49426905534E-01  0.54493195241E-01  0.51100000000E-03 0.  1.
         11    1    4    4    0    0 -0.87170863099E-03  0.94270432487E-02  0.77656592027E-01  0.78233218179E-01  0.51100000000E-03 0. -1.
</event>
<event>
 8    1  0.1161093E+005  0.1043930E+01  0.7957747E-01            NaN
         13   -1    0    0    0    0  0.00000000000E+00  0.00000000000E+00  0.74505805969E-08  0.10566000000E+00  0.10566000000E+00 0.  1.
     999900   -1    0    0    0    0 -0.00000000000E+00 -0.00000000000E+00 -0.74505805969E-08  0.93827000000E+00  0.93827000000E+00 0. -1.
     999902    2    1    2    0    0  0.98504404263E-02  0.18550311095E-01 -0.97805324037E-02  0.10207609682E+01  0.10204979913E+01 0.  0.
     999903    2    3    3    0    0  0.88018428103E-01 -0.59091872133E-01  0.74064479036E-01  0.12993633407E+00  0.12602016448E-01 0.  0.
         14    1    1    2    0    0 -0.98504404263E-02 -0.18550311095E-01  0.97805324037E-02  0.23169031754E-01  0.00000000000E+00 0.  1.
     999901    1    3    3    0    0 -0.78167987677E-01  0.77642183228E-01 -0.83845011439E-01  0.89082463418E+00  0.88000000000E+00 0.  1.
        -11    1    4    4    0    0  0.55303640074E-01 -0.36829533851E-01  0.53678474607E-01  0.85419827477E-01  0.51100000000E-03 0.  1.
         11    1    4    4    0    0  0.32714788029E-01 -0.22262338282E-01  0.20386004429E-01  0.44516506592E-01  0.51100000000E-03 0. -1.
</event>
<event>
 8    1  0.1161093E+005  0.1043930E+01  0.7957747E-01            NaN
         13   -1    0    0    0    0  0.00000000000E+00  0.00000000000E+00  0.74505805969E-08  0.10566000000E+00  0.10566000000E+00 0.  1.
     999900   -1    0    0    0    0 -0.00000000000E+00 -0.00000000000E+00 -0.74505805969E-08  0.93827000000E+00  0.93827000000E+00 0. -1.
     999902    2    1    2    0    0 -0.11066402152E-01 -0.89630936850E-02 -0.20950140489E-01  0.10185979908E+01  0.10182829450E+01 0.  0.
     999903    2    3    3    0    0 -0.51102049466E-01 -0.11014019876E+00  0.41049983742E-01  0.12973147939E+00  0.20071689959E-01 0.  0.
         14    1    1    2    0    0  0.11066402152E-01  0.89630936850E-02  0.20950140489E-01  0.25332009228E-01  0.00000000000E+00 0.  1.
     999901    1    3    3    0    0  0.40035647314E-01  0.10117710507E+00 -0.62000124232E-01  0.88886651138E+00  0.88000000000E+00 0. -1.
        -11    1    4    4    0    0 -0.22862546129E-01 -0.61626431117E-01  0.13114244027E-01  0.67028035516E-01  0.51100000000E-03 0.  1.
         11    1    4    4    0    0 -0.28239503337E-01 -0.48513767642E-01  0.27935739715E-01  0.62703443877E-01  0.51100000000E-03 0. -1.
</event>
<event>
 8    1  0.1161093E+005  0.1043930E+01  0.7957747E-01            NaN
         13   -1    0    0    0    0  0.00000000000E+00  0.00000000000E+00  0.74505805969E-08  0.10566000000E+00  0.10566000000E+00 0. -1.
     999900   -1    0    0    0    0 -0.00000000000E+00 -0.00000000000E+00 -0.74505805969E-08  0.93827000000E+00  0.93827000000E+00 0. -1.
     999902    2    1    2    0    0  0.67660427007E-02 -0.16253043161E-01 -0.16799206169E-01  0.10195957839E+01  0.10193053558E+01 0.  0.
     999903    2    3    3    0    0 -0.28253023573E-01  0.11612422645E+00 -0.43417042930E-01  0.12860836212E+00  0.19287350300E-01 0.  0.
         14    1    1    2    0    0 -0.67660427007E-02  0.16253043161E-01  0.16799206169E-01  0.24334216111E-01  0.00000000000E+00 0. -1.
     999901    1    3    3    0    0  0.35019066273E-01 -0.13237726961E+00  0.26617836761E-01  0.89098742177E+00  0.88000000000E+00 0. -1.
        -11    1    4    4    0    0 -0.21144331447E-01  0.47726895002E-01 -0.21155278454E-01  0.56327135435E-01  0.51100000000E-03 0.  1.
         11    1    4    4    0    0 -0.71086921261E-02  0.68397331447E-01 -0.22261764476E-01  0.72281226687E-01  0.51100000000E-03 0. -1.
</event>
<event>
 8    1  0.1161093E+005  0.1043930E+01  0.7957747E-01            NaN
         13   -1    0    0    0    0  0.00000000000E+00  0.00000000000E+00  0.74505805969E-08  0.10566000000E+00  0.10566000000E+00 0.  1.
     999900   -1    0    0    0    0 -0.00000000000E+00 -0.00000000000E+00 -0.74505805969E-08  0.93827000000E+00  0.93827000000E+00 0. -1.
     999902    2    1    2    0    0 -0.18132094841E-01 -0.89001169837E-02  0.12522582090E-01  0.10201644786E+01  0.10198876229E+01 0.  0.
     999903    2    3    3    0    0  0.87590258004E-01  0.66523482190E-01 -0.61446500543E-01  0.12756302196E+00  0.19980619645E-01 0.  0.
         14    1    1    2    0    0  0.18132094841E-01  0.89001169837E-02 -0.12522582090E-01  0.23765521409E-01  0.00000000000E+00 0. -1.
     999901    1    3    3    0    0 -0.10572235284E+00 -0.75423599174E-01  0.73969082633E-01  0.89260145664E+00  0.88000000000E+00 0.  1.
        -11    1    4    4    0    0  0.17545176685E-01  0.18760830336E-01 -0.22956554011E-01  0.34453831033E-01  0.51100000000E-03 0. -1.
         11    1    4    4    0    0  0.70045081319E-01  0.47762651854E-01 -0.38489946533E-01  0.93109190922E-01  0.51100000000E-03 0.  1.
</event>
<event>
 8    1  0.1161093E+005  0.1043930E+01  0.7957747E-01            NaN
         13   -1    0    0    0    0  0.00000000000E+00  0.00000000000E+00  0.74505805969E-08  0.10566000000E+00  0.10566000000E+00 0. -1.
     999900   -1    0    0    0    0 -0.00000000000E+00 -0.00000000000E+00 -0.74505805969E-08  0.93827000000E+00  0.93827000000E+00 0.  1.
     999902    2    1    2    0    0 -0.10144954112E-01 -0.76291769558E-02 -0.19461097321E-01  0.10206951395E+01  0.10204306488E+01 0.  0.
     999903    2    3    3    0    0 -0.81671023398E-01  0.98579481517E-01  0.16634789921E-01  0.13069560531E+00  0.20409673523E-01 0.  0.
         14    1    1    2    0    0  0.10144954112E-01  0.76291769558E-02  0.19461097321E-01  0.23234860531E-01  0.00000000000E+00 0. -1.
     999901    1    3    3    0    0  0.71526069286E-01 -0.10620865847E+00 -0.36095887242E-01  0.88999953416E+00  0.88000000000E+00 0.  1.
        -11    1    4    4    0    0 -0.68185361876E-01  0.68731107102E-01  0.10718565738E-01  0.97408200014E-01  0.51100000000E-03 0. -1.
         11    1    4    4    0    0 -0.13485661523E-01  0.29848374415E-01  0.59162241826E-02  0.33287405298E-01  0.51100000000E-03 0.  1.
</event>
<event>
 8    1  0.1161093E+005  0.1043930E+01  0.7957747E-01            NaN
         13   -1    0    0    0    0  0.00000000000E+00  0.00000000000E+00  0.74505805969E-08  0.10566000000E+00  0.10566000000E+00 0.  1.
     999900   -1    0    0    0    0 -0.00000000000E+00 -0.00000000000E+00 -0.74505805969E-08  0.93827000000E+00  0.93827000000E+00 0. -1.
     999902    2    1    2    0    0  0.11570328769E-01  0.49928918527E-03  0.20362006439E-01  0.10205049471E+01  0.10202360579E+01 0.  0.
     999903    2    3    3    0    0 -0.39246761522E-01  0.34642295114E-01 -0.11516499046E+00  0.12802767096E+00  0.19690419090E-01 0.  0.
         14    1    1    2    0    0 -0.11570328769E-01 -0.49928918527E-03 -0.20362006439E-01  0.23425052908E-01  0.00000000000E+00 0. -1.
     999901    1    3    3    0    0  0.50817090291E-01 -0.34143005929E-01  0.13552699690E+00  0.89247727613E+00  0.88000000000E+00 0.  1.
        -11    1    4    4    0    0 -0.31564164601E-01  0.15999565177E-01 -0.66095244926E-01  0.74974162854E-01  0.51100000000E-03 0.  1.
         11    1    4    4    0    0 -0.76825969212E-02  0.18642729937E-01 -0.49069745533E-01  0.53053508109E-01  0.51100000000E-03 0. -1.
</event>
<event>
 8    1  0.1161093E+005  0.1043930E+01  0.7957747E-01            NaN
         13   -1    0    0    0    0  0.00000000000E+00  0.00000000000E+00  0.74505805969E-08  0.10566000000E+00  0.10566000000E+00 0.  1.
     999900   -1    0    0    0    0 -0.00000000000E+00 -0.00000000000E+00 -0.74505805969E-08  0.93827000000E+00  0.93827000000E+00 0. -1.
     999902    2    1    2    0    0 -0.60640709576E-02  0.63420164062E-02 -0.21749345293E-01  0.10204773211E+01  0.10202077899E+01 0.  0.
     999903    2    3    3    0    0 -0.40194861587E-01 -0.11818005200E+00  0.29100812767E-01  0.12960337096E+00  0.19183974340E-01 0.  0.
         14    1    1    2    0    0  0.60640709576E-02 -0.63420164062E-02  0.21749345293E-01  0.23452678938E-01  0.00000000000E+00 0.  1.
     999901    1    3    3    0    0  0.34130790630E-01  0.12452206841E+00 -0.50850158060E-01  0.89087395010E+00  0.88000000000E+00 0. -1.
        -11    1    4    4    0    0 -0.30032834521E-01 -0.63905373759E-01  0.21809583684E-01  0.73903903863E-01  0.51100000000E-03 0.  1.
         11    1    4    4    0    0 -0.10162027067E-01 -0.54274678245E-01  0.72912290828E-02  0.55699467100E-01  0.51100000000E-03 0. -1.
</event>
<event>
 8    1  0.1161093E+005  0.1043930E+01  0.7957747E-01            NaN
         13   -1    0    0    0    0  0.00000000000E+00  0.00000000000E+00  0.74505805969E-08  0.10566000000E+00  0.10566000000E+00 0. -1.
     999900   -1    0    0    0    0 -0.00000000000E+00 -0.00000000000E+00 -0.74505805969E-08  0.93827000000E+00  0.93827000000E+00 0.  1.
     999902    2    1    2    0    0 -0.16372128548E-01  0.24817480468E-01 -0.56668799477E-02  0.10136633937E+01  0.10132114331E+01 0.  0.
     999903    2    3    3    0    0 -0.64188716541E-01  0.94261799924E-01 -0.55002902798E-01  0.12825784663E+00  0.20476270405E-01 0.  0.
         14    1    1    2    0    0  0.16372128548E-01 -0.24817480468E-01  0.56668799477E-02  0.30266606323E-01  0.00000000000E+00 0.  1.
     999901    1    3    3    0    0  0.47816587994E-01 -0.69444319456E-01  0.49336022850E-01  0.88540554705E+00  0.88000000000E+00 0.  1.
        -11    1    4    4    0    0 -0.35842863730E-01  0.69060448546E-01 -0.34177336677E-01  0.84984750968E-01  0.51100000000E-03 0. -1.
         11    1    4    4    0    0 -0.28345852812E-01  0.25201351378E-01 -0.20825566121E-01  0.43273095662E-01  0.51100000000E-03 0.  1.
</event>
<event>
 8    1  0.1208486E+005  0.1043930E+01  0.7957747E-01            NaN
         13   -1    0    0    0    0  0.00000000000E+00  0.00000000000E+00  0.74505805969E-08  0.10566000000E+00  0.10566000000E+00 0. -1.
     999900   -1    0    0    0    0 -0.00000000000E+00 -0.00000000000E+00 -0.74505805969E-08  0.93827000000E+00  0.93827000000E+00 0. -1.
     999902    2    1    2    0    0  0.17736786223E-01 -0.12776053038E-01  0.12362410547E-01  0.10188172480E+01  0.10185076998E+01 0.  0.
     999903    2    3    3    0    0  0.10077328900E+00 -0.13961049936E-01  0.81817067231E-01  0.13218292976E+00  0.20691247845E-01 0.  0.
         14    1    1    2    0    0 -0.17736786223E-01  0.12776053038E-01 -0.12362410547E-01  0.25112751966E-01  0.00000000000E+00 0.  1.
     999901    1    3    3    0    0 -0.83036502779E-01  0.11849968980E-02 -0.69454656684E-01  0.88663431828E+00  0.88000000000E+00 0. -1.
        -11    1    4    4    0    0  0.51136167861E-01 -0.88544866548E-02  0.54643299199E-01  0.75362197856E-01  0.51100000000E-03 0.  1.
         11    1    4    4    0    0  0.49637121140E-01 -0.51065632814E-02  0.27173768033E-01  0.56820731901E-01  0.51100000000E-03 0. -1.
</event>
<event>
 8    1  0.1161093E+005  0.1043930E+01  0.7957747E-01            NaN
         13   -1    0    0    0    0  0.00000000000E+00  0.00000000000E+00  0.74505805969E-08  0.10566000000E+00  0.10566000000E+00 0.  1.
     999900   -1    0    0    0    0 -0.00000000000E+00 -0.00000000000E+00 -0.74505805969E-08  0.93827000000E+00  0.93827000000E+00 0.  1.
     999902    2    1    2    0    0 -0.17054363018E-01  0.24904718423E-01 -0.58636587155E-02  0.10131813611E+01  0.10127146645E+01 0.  0.
     999903    2    3    3    0    0 -0.22055721840E-01  0.84612099538E-01  0.88399810171E-01  0.12612128059E+00  0.21127913435E-01 0.  0.
         14    1    1    2    0    0  0.17054363018E-01 -0.24904718423E-01  0.58636587155E-02  0.30748638851E-01  0.00000000000E+00 0. -1.
     999901    1    3    3    0    0  0.50013588223E-02 -0.59707381115E-01 -0.94263468886E-01  0.88706008056E+00  0.88000000000E+00 0.  1.
        -11    1    4    4    0    0 -0.39109965055E-02  0.50429157837E-01  0.42383737116E-01  0.65992712830E-01  0.51100000000E-03 0. -1.
         11    1    4    4    0    0 -0.18144725335E-01  0.34182941701E-01  0.46016073055E-01  0.60128567763E-01  0.51100000000E-03 0.  1.
</event>
<event>
 8    1  0.1354293E+005  0.1043930E+01  0.7957747E-01            NaN
         13   -1    0    0    0    0  0.00000000000E+00  0.00000000000E+00  0.74505805969E-08  0.10566000000E+00  0.10566000000E+00 0.  1.
     999900   -1    0    0    0    0 -0.00000000000E+00 -0.00000000000E+00 -0.74505805969E-08  0.93827000000E+00  0.93827000000E+00 0.  1.
     999902    2    1    2    0    0 -0.22011231391E-01 -0.76575086350E-02  0.96396539726E-03  0.10206048853E+01  0.10203383120E+01 0.  0.
     999903    2    3    3    0    0  0.24629632751E-01 -0.45146340887E-01  0.11838954037E+00  0.13079055164E+00  0.21101521882E-01 0.  0.
         14    1    1    2    0    0  0.22011231391E-01  0.76575086350E-02 -0.96396539726E-03  0.23325114686E-01  0.00000000000E+00 0. -1.
     999901    1    3    3    0    0 -0.46640864142E-01  0.37488832252E-01 -0.11742557497E+00  0.88981433367E+00  0.88000000000E+00 0.  1.
        -11    1    4    4    0    0  0.20818488401E-02 -0.15750350782E-01  0.56158778553E-01  0.58365033830E-01  0.51100000000E-03 0. -1.
         11    1    4    4    0    0  0.22547783911E-01 -0.29395990105E-01  0.62230761813E-01  0.72425517812E-01  0.51100000000E-03 0.  1.
</event>
<event>
 8    1  0.1161093E+005  0.1043930E+01  0.7957747E-01            NaN
         13   -1    0    0    0    0  0.00000000000E+00  0.00000000000E+00  0.74505805969E-08  0.10566000000E+00  0.10566000000E+00 0.  1.
     999900   -1    0    0    0    0 -0.00000000000E+00 -0.00000000000E+00 -0.74505805969E-08  0.93827000000E+00  0.93827000000E+00 0.  1.
     999902    2    1    2    0    0  0.23068870437E-01 -0.23467914046E-02 -0.50439913730E-02  0.10201998070E+01  0.10199237834E+01 0.  0.
     999903    2    3    3    0    0 -0.48393278638E-02 -0.90995160362E-01  0.90454554748E-01  0.13016757542E+00  0.21401703508E-01 0.  0.
         14    1    1    2    0    0 -0.23068870437E-01  0.23467914046E-02  0.50439913730E-02  0.23730193048E-01  0.00000000000E+00 0. -1.
     999901    1    3    3    0    0  0.27908198301E-01  0.88648368957E-01 -0.95498546121E-01  0.89003223153E+00  0.88000000000E+00 0.  1.
        -11    1    4    4    0    0 -0.10186641122E-01 -0.26531076602E-01  0.33939551701E-01  0.44269854006E-01  0.51100000000E-03 0.  1.
         11    1    4    4    0    0  0.53473132582E-02 -0.64464083760E-01  0.56515003047E-01  0.85897721416E-01  0.51100000000E-03 0. -1.
</event>
<event>
 8    1  0.1161093E+005  0.1043930E+01  0.7957747E-01            NaN
         13   -1    0    0    0    0  0.00000000000E+00  0.00000000000E+00  0.74505805969E-08  0.10566000000E+00  0.10566000000E+00 0. -1.
     999900   -1    0    0    0    0 -0.00000000000E+00 -0.00000000000E+00 -0.74505805969E-08  0.93827000000E+00  0.93827000000E+00 0.  1.
     999902    2    1    2    0    0 -0.19967039690E-02 -0.10119520370E-01  0.20458538069E-01  0.10210183589E+01  0.10207612580E+01 0.  0.
     999903    2    3    3    0    0 -0.73608925893E-01 -0.10247151313E+00 -0.32321313626E-01  0.13172486759E+00  0.19699960741E-01 0.  0.
         14    1    1    2    0    0  0.19967039690E-02  0.10119520370E-01 -0.20458538069E-01  0.22911641128E-01  0.00000000000E+00 0.  1.
     999901    1    3    3    0    0  0.71612221924E-01  0.92351992756E-01  0.52779851695E-01  0.88929349128E+00  0.88000000000E+00 0. -1.
        -11    1    4    4    0    0 -0.31436850360E-01 -0.29517573376E-01 -0.66614796285E-02  0.43637130181E-01  0.51100000000E-03 0.  1.
         11    1    4    4    0    0 -0.42172075533E-01 -0.72953939750E-01 -0.25659833997E-01  0.88087737408E-01  0.51100000000E-03 0. -1.
</event>
<event>
 8    1  0.1161093E+005  0.1043930E+01  0.7957747E-01            NaN
         13   -1    0    0    0    0  0.00000000000E+00  0.00000000000E+00  0.74505805969E-08  0.10566000000E+00  0.10566000000E+00 0. -1.
     999900   -1    0    0    0    0 -0.00000000000E+00 -0.00000000000E+00 -0.74505805969E-08  0.93827000000E+00  0.93827000000E+00 0.  1.
     999902    2    1    2    0    0 -0.78656936386E-02 -0.81317647118E-02 -0.17129102885E-01  0.10234019485E+01  0.10231960454E+01 0.  0.
     999903    2    3    3    0    0 -0.55806719354E-01 -0.35689756557E-01  0.11261834235E+00  0.13217123513E+00  0.19954841872E-01 0.  0.
         14    1    1    2    0    0  0.78656936386E-02  0.81317647118E-02  0.17129102885E-01  0.20528051525E-01  0.00000000000E+00 0. -1.
     999901    1    3    3    0    0  0.47941025715E-01  0.27557991845E-01 -0.12974744524E+00  0.89123071334E+00  0.88000000000E+00 0.  1.
        -11    1    4    4    0    0 -0.21948223891E-01 -0.18154113257E-01  0.66393459701E-01  0.72247138159E-01  0.51100000000E-03 0.  1.
         11    1    4    4    0    0 -0.33858495463E-01 -0.17535643300E-01  0.46224882651E-01  0.59924096973E-01  0.51100000000E-03 0. -1.
</event>
<event>
 8    1  0.1161093E+005  0.1043930E+01  0.7957747E-01            NaN
         13   -1    0    0    0    0  0.00000000000E+00  0.00000000000E+00  0.74505805969E-08  0.10566000000E+00  0.10566000000E+00 0.  1.
     999900   -1    0    0    0    0 -0.00000000000E+00 -0.00000000000E+00 -0.74505805969E-08  0.93827000000E+00  0.93827000000E+00 0. -1.
     999902    2    1    2    0    0 -0.13801323751E-01  0.17021934091E-01  0.98357508436E-02  0.10199099090E+01  0.10196270189E+01 0.  0.
     999903    2    3    3    0    0 -0.66255394114E-01 -0.69000525672E-01 -0.84423426433E-01  0.12915961537E+00  0.20100784062E-01 0.  0.
         14    1    1    2    0    0  0.13801323751E-01 -0.17021934091E-01 -0.98357508436E-02  0.24020091010E-01  0.00000000000E+00 0. -1.
     999901    1    3    3    0    0  0.52454070363E-01  0.86022459763E-01  0.94259177276E-01  0.89075029362E+00  0.88000000000E+00 0.  1.
        -11    1    4    4    0    0 -0.41235204593E-01 -0.28485480726E-01 -0.44128036063E-01  0.66778060752E-01  0.51100000000E-03 0. -1.
         11    1    4    4    0    0 -0.25020189521E-01 -0.40515044946E-01 -0.40295390370E-01  0.62381554619E-01  0.51100000000E-03 0.  1.
</event>
<event>
 8    1  0.1161093E+005  0.1043930E+01  0.7957747E-01            NaN
         13   -1    0    0    0    0  0.00000000000E+00  0.00000000000E+00  0.74505805969E-08  0.10566000000E+00  0.10566000000E+00 0. -1.
     999900   -1    0    0    0    0 -0.00000000000E+00 -0.00000000000E+00 -0.74505805969E-08  0.93827000000E+00  0.93827000000E+00 0. -1.
     999902    2    1    2    0    0 -0.22167835286E-01 -0.81553503359E-02 -0.22299565127E-01  0.10114462615E+01  0.10109245010E+01 0.  0.
     999903    2    3    3    0    0 -0.93396432773E-02  0.74234690655E-01 -0.97141199880E-01  0.12434201080E+00  0.20651990281E-01 0.  0.
         14    1    1    2    0    0  0.22167835286E-01  0.81553503359E-02  0.22299565127E-01  0.32483738473E-01  0.00000000000E+00 0. -1.
     999901    1    3    3    0    0 -0.12828192008E-01 -0.82390040990E-01  0.74841634753E-01  0.88710425073E+00  0.88000000000E+00 0.  1.
        -11    1    4    4    0    0  0.42907106066E-02  0.45784302072E-01 -0.54841067702E-01  0.71571057988E-01  0.51100000000E-03 0. -1.
         11    1    4    4    0    0 -0.13630353884E-01  0.28450388582E-01 -0.42300132178E-01  0.52770952813E-01  0.51100000000E-03 0.  1.
</event>
<event>
 8    1  0.1161093E+005  0.1043930E+01  0.7957747E-01            NaN
         13   -1    0    0    0    0  0.00000000000E+00  0.00000000000E+00  0.74505805969E-08  0.10566000000E+00  0.10566000000E+00 0. -1.
     999900   -1    0    0    0    0 -0.00000000000E+00 -0.00000000000E+00 -0.74505805969E-08  0.93827000000E+00  0.93827000000E+00 0. -1.
     999902    2    1    2    0    0  0.23533991312E-01 -0.36828108842E-02  0.60689720257E-02  0.10193486196E+01  0.10190521890E+01 0.  0.
     999903    2    3    3    0    0 -0.65830811426E-02  0.25933000302E-02  0.12864978829E+00  0.13031966382E+00  0.19554656431E-01 0.  0.
         14    1    1    2    0    0 -0.23533991312E-01  0.36828108842E-02 -0.60689720257E-02  0.24581380444E-01  0.00000000000E+00 0.  1.
     999901    1    3    3    0    0  0.30117072454E-01 -0.62761109144E-02 -0.12258081627E+00  0.88902895574E+00  0.88000000000E+00 0. -1.
        -11    1    4    4    0    0 -0.45032762699E-02 -0.84242393822E-02  0.57693030863E-01  0.58480716801E-01  0.51100000000E-03 0.  1.
         11    1    4    4    0    0 -0.20798048727E-02  0.11017539412E-01  0.70956757429E-01  0.71838947019E-01  0.51100000000E-03 0. -1.
</event>
<event>
 8    1  0.1161093E+005  0.1043930E+01  0.7957747E-01            NaN
         13   -1    0    0    0    0  0.00000000000E+00  0.00000000000E+00  0.74505805969E-08  0.10566000000E+00  0.10566000000E+00 0. -1.
     999900   -1    0    0    0    0 -0.00000000000E+00 -0.00000000000E+00 -0.74505805969E-08  0.93827000000E+00  0.93827000000E+00 0. -1.
     999902    2    1    2    0    0 -0.11774315399E-01 -0.89757014255E-02  0.19218775004E-01  0.10196697644E+01  0.10193811208E+01 0.  0.
     999903    2    3    3    0    0 -0.50982278169E-02 -0.51591648009E-01  0.12061407275E+00  0.13279790473E+00  0.19995971730E-01 0.  0.
         14    1    1    2    0    0  0.11774315399E-01  0.89757014255E-02 -0.19218775004E-01  0.24260235610E-01  0.00000000000E+00 0.  1.
     999901    1    3    3    0    0 -0.66760875821E-02  0.42615946583E-01 -0.10139529774E+00  0.88687185966E+00  0.88000000000E+00 0. -1.
        -11    1    4    4    0    0  0.35940324413E-02 -0.26637259030E-01  0.42067634167E-01  0.49924018300E-01  0.51100000000E-03 0.  1.
         11    1    4    4    0    0 -0.86922602583E-02 -0.24954388979E-01  0.78546438581E-01  0.82873886432E-01  0.51100000000E-03 0. -1.
</event>
<event>
 8    1  0.1161093E+005  0.1043930E+01  0.7957747E-01            NaN
         13   -1    0    0    0    0  0.00000000000E+00  0.00000000000E+00  0.74505805969E-08  0.10566000000E+00  0.10566000000E+00 0.  1.
     999900   -1    0    0    0    0 -0.00000000000E+00 -0.00000000000E+00 -0.74505805969E-08  0.93827000000E+00  0.93827000000E+00 0.  1.
     999902    2    1    2    0    0  0.11262757166E-01 -0.19964804341E-01  0.23853561665E-02  0.10208836763E+01  0.10206235092E+01 0.  0.
     999903    2    3    3    0    0  0.36289257919E-01  0.11659273103E+00  0.38135507988E-01  0.12928266714E+00  0.18679290204E-01 0.  0.
         14    1    1    2    0    0 -0.11262757166E-01  0.19964804341E-01 -0.23853561665E-02  0.23046323685E-01  0.00000000000E+00 0.  1.
     999901    1    3    3    0    0 -0.25026500753E-01 -0.13655753538E+00 -0.35750151821E-01  0.89160100918E+00  0.88000000000E+00 0.  1.
        -11    1    4    4    0    0  0.17402381134E-01  0.77576573198E-01  0.31065398560E-01  0.85359754492E-01  0.51100000000E-03 0. -1.
         11    1    4    4    0    0  0.18886876785E-01  0.39016157837E-01  0.70701094282E-02  0.43922912647E-01  0.51100000000E-03 0.  1.
</event>
<event>
 8    1  0.1161093E+005  0.1043930E+01  0.7957747E-01            NaN
         13   -1    0    0    0    0  0.00000000000E+00  0.00000000000E+00  0.74505805969E-08  0.10566000000E+00  0.10566000000E+00 0.  1.
     999900   -1    0    0    0    0 -0.00000000000E+00 -0.00000000000E+00 -0.74505805969E-08  0.93827000000E+00  0.93827000000E+00 0. -1.
     999902    2    1    2    0    0 -0.10082462945E-02  0.13406687163E-01 -0.18986386910E-01  0.10206654624E+01  0.10204002879E+01 0.  0.
     999903    2    3    3    0    0 -0.29699577770E-01 -0.96918136283E-01 -0.82379383651E-01  0.13105125883E+00  0.10624477928E-01 0.  0.
         14    1    1    2    0    0  0.10082462945E-02 -0.13406687163E-01  0.18986386910E-01  0.23264537588E-01  0.00000000000E+00 0.  1.
     999901    1    3    3    0    0  0.28691331476E-01  0.11032482345E+00  0.63392996741E-01  0.88961420358E+00  0.88000000000E+00 0. -1.
        -11    1    4    4    0    0 -0.19562953096E-01 -0.45873595719E-01 -0.39685698541E-01  0.63736266817E-01  0.51100000000E-03 0.  1.
         11    1    4    4    0    0 -0.10136624674E-01 -0.51044540563E-01 -0.42693685110E-01  0.67314992018E-01  0.51100000000E-03 0. -1.
</event>
<event>
 8    1  0.1161093E+005  0.1043930E+01  0.7957747E-01            NaN
         13   -1    0    0    0    0  0.00000000000E+00  0.00000000000E+00  0.74505805969E-08  0.10566000000E+00  0.10566000000E+00 0.  1.
     999900   -1    0    0    0    0 -0.00000000000E+00 -0.00000000000E+00 -0.74505805969E-08  0.93827000000E+00  0.93827000000E+00 0. -1.
     999902    2    1    2    0    0  0.22854721897E-01 -0.11074717014E-03 -0.24568462686E-02  0.10209433371E+01  0.10206845305E+01 0.  0.
     999903    2    3    3    0    0 -0.32971809074E-01 -0.51390627774E-01 -0.11417460037E+00  0.13064727157E+00  0.17456614226E-01 0.  0.
         14    1    1    2    0    0 -0.22854721897E-01  0.11074717014E-03  0.24568462686E-02  0.22986662905E-01  0.00000000000E+00 0. -1.
     999901    1    3    3    0    0  0.55826530971E-01  0.51279880604E-01  0.11171775411E+00  0.89029606553E+00  0.88000000000E+00 0.  1.
        -11    1    4    4    0    0 -0.33701357095E-01 -0.50656496688E-01 -0.10464743658E+00  0.12105044085E+00  0.51100000000E-03 0.  1.
         11    1    4    4    0    0  0.72954802071E-03 -0.73413108579E-03 -0.95271637982E-02  0.95968307167E-02  0.51100000000E-03 0. -1.
</event>
<event>
 8    1  0.1161093E+005  0.1043930E+01  0.7957747E-01            NaN
         13   -1    0    0    0    0  0.00000000000E+00  0.00000000000E+00  0.74505805969E-08  0.10566000000E+00  0.10566000000E+00 0.  1.
     999900   -1    0    0    0    0 -0.00000000000E+00 -0.00000000000E+00 -0.74505805969E-08  0.93827000000E+00  0.93827000000E+00 0.  1.
     999902    2    1    2    0    0  0.87926685578E-02  0.22095484563E-01  0.11297482154E-02  0.10201224846E+01  0.10198446381E+01 0.  0.
     999903    2    3    3    0    0  0.47517045151E-01 -0.65408115195E-02 -0.11991135169E+00  0.13053237525E+00  0.18955656892E-01 0.  0.
         14    1    1    2    0    0 -0.87926685578E-02 -0.22095484563E-01 -0.11297482154E-02  0.23807515399E-01  0.00000000000E+00 0.  1.
     999901    1    3    3    0    0 -0.38724376593E-01  0.28636296083E-01  0.12104109990E+00  0.88959010935E+00  0.88000000000E+00 0. -1.
        -11    1    4    4    0    0  0.41571858808E-01  0.11277128164E-02 -0.10204001516E+00  0.11019036708E+00  0.51100000000E-03 0.  1.
         11    1    4    4    0    0  0.59451863428E-02 -0.76685243359E-02 -0.17871336528E-01  0.20342008171E-01  0.51100000000E-03 0. -1.
</event>
<event>
 8    1  0.1161093E+005  0.1043930E+01  0.7957747E-01            NaN
         13   -1    0    0    0    0  0.00000000000E+00  0.00000000000E+00  0.74505805969E-08  0.10566000000E+00  0.10566000000E+00 0. -1.
     999900   -1    0    0    0    0 -0.00000000000E+00 -0.00000000000E+00 -0.74505805969E-08  0.93827000000E+00  0.93827000000E+00 0.  1.
     999902    2    1    2    0    0 -0.18095321117E-01  0.15695601217E-01 -0.79503416568E-02  0.10186911316E+01  0.10183784273E+01 0.  0.
     999903    2    3    3    0    0 -0.69082216555E-01  0.10731208406E+00  0.26709752120E-01  0.13178946542E+00  0.19152449109E-01 0.  0.
         14    1    1    2    0    0  0.18095321117E-01 -0.15695601217E-01  0.79503416568E-02  0.25238868365E-01  0.00000000000E+00 0. -1.
     999901    1    3    3    0    0  0.50986895437E-01 -0.91616482847E-01 -0.34660093776E-01  0.88690166622E+00  0.88000000000E+00 0.  1.
        -11    1    4    4    0    0 -0.39556612645E-01  0.77368273923E-01  0.20465890792E-01  0.89273115890E-01  0.51100000000E-03 0. -1.
         11    1    4    4    0    0 -0.29525603910E-01  0.29943810140E-01  0.62438613272E-02  0.42516349529E-01  0.51100000000E-03 0.  1.
</event>
<event>
 8    1  0.1161093E+005  0.1043930E+01  0.7957747E-01            NaN
         13   -1    0    0    0    0  0.00000000000E+00  0.00000000000E+00  0.74505805969E-08  0.10566000000E+00  0.10566000000E+00 0. -1.
     999900   -1    0    0    0    0 -0.00000000000E+00 -0.00000000000E+00 -0.74505805969E-08  0.93827000000E+00  0.93827000000E+00 0.  1.
     999902    2    1    2    0    0  0.69104406188E-02  0.22246039998E-01  0.64961714037E-02  0.10197465195E+01  0.10194597213E+01 0.  0.
     999903    2    3    3    0    0  0.11282238094E+00  0.17851961907E-01  0.59451038863E-01  0.13180459292E+00  0.28114809437E-01 0.  0.
         14    1    1    2    0    0 -0.69104406188E-02 -0.22246039998E-01 -0.64961714037E-02  0.24183480479E-01  0.00000000000E+00 0.  1.
     999901    1    3    3    0    0 -0.10591194032E+00  0.43940780918E-02 -0.52954867459E-01  0.88794192660E+00  0.88000000000E+00 0.  1.
        -11    1    4    4    0    0  0.73871124936E-01  0.13386992289E-01  0.53401300920E-01  0.92130965060E-01  0.51100000000E-03 0. -1.
         11    1    4    4    0    0  0.38951256000E-01  0.44649696180E-02  0.60497379433E-02  0.39673627863E-01  0.51100000000E-03 0.  1.
</event>
<event>
 8    1  0.1161093E+005  0.1043930E+01  0.7957747E-01            NaN
         13   -1    0    0    0    0  0.00000000000E+00  0.00000000000E+00  0.74505805969E-08  0.10566000000E+00  0.10566000000E+00 0. -1.
     999900   -1    0    0    0    0 -0.00000000000E+00 -0.00000000000E+00 -0.74505805969E-08  0.93827000000E+00  0.93827000000E+00 0.  1.
     999902    2    1    2    0    0  0.21412835369E-01 -0.82008970122E-02  0.10286906895E-02  0.10209773872E+01  0.10207193555E+01 0.  0.
     999903    2    3    3    0    0 -0.67051587356E-01 -0.87942398167E-02 -0.10856183646E+00  0.12977797640E+00  0.21986286706E-01 0.  0.
         14    1    1    2    0    0 -0.21412835369E-01  0.82008970122E-02 -0.10286906895E-02  0.22952612811E-01  0.00000000000E+00 0.  1.
     999901    1    3    3    0    0  0.88464422725E-01  0.59334280445E-03  0.10959052715E+00  0.89119941079E+00  0.88000000000E+00 0. -1.
        -11    1    4    4    0    0 -0.25109041442E-01  0.73080754390E-02 -0.38328936622E-01  0.46403021801E-01  0.51100000000E-03 0.  1.
         11    1    4    4    0    0 -0.41942545915E-01 -0.16102315256E-01 -0.70232899836E-01  0.83374954602E-01  0.51100000000E-03 0. -1.
</event>
<event>
 8    1  0.1161093E+005  0.1043930E+01  0.7957747E-01            NaN
         13   -1    0    0    0    0  0.00000000000E+00  0.00000000000E+00  0.74505805969E-08  0.10566000000E+00  0.10566000000E+00 0.  1.
     999900   -1    0    0    0    0 -0.00000000000E+00 -0.00000000000E+00 -0.74505805969E-08  0.93827000000E+00  0.93827000000E+00 0. -1.
     999902    2    1    2    0    0 -0.22660611973E-01  0.69094957742E-02  0.27788330111E-02  0.10200769838E+01  0.10197980617E+01 0.  0.
     999903    2    3    3    0    0 -0.10984018242E+00  0.72520454143E-01  0.63101050965E-02  0.13333150444E+00  0.20332011871E-01 0.  0.
         14    1    1    2    0    0  0.22660611973E-01 -0.69094957742E-02 -0.27788330111E-02  0.23853016156E-01  0.00000000000E+00 0. -1.
     999901    1    3    3    0    0  0.87179570446E-01 -0.65610958369E-01 -0.35312720854E-02  0.88674547940E+00  0.88000000000E+00 0.  1.
        -11    1    4    4    0    0 -0.52111188245E-01  0.44665794604E-01 -0.21893677084E-02  0.68670689525E-01  0.51100000000E-03 0.  1.
         11    1    4    4    0    0 -0.57728994174E-01  0.27854659540E-01  0.84994728049E-02  0.64660814915E-01  0.51100000000E-03 0. -1.
</event>
<event>
 8    1  0.1161093E+005  0.1043930E+01  0.7957747E-01            NaN
         13   -1    0    0    0    0  0.00000000000E+00  0.00000000000E+00  0.74505805969E-08  0.10566000000E+00  0.10566000000E+00 0. -1.
     999900   -1    0    0    0    0 -0.00000000000E+00 -0.00000000000E+00 -0.74505805969E-08  0.93827000000E+00  0.93827000000E+00 0.  1.
     999902    2    1    2    0    0 -0.17626032870E-01 -0.33924381087E-02 -0.21638332620E-01  0.10158158913E+01  0.10154267683E+01 0.  0.
     999903    2    3    3    0    0 -0.78014540386E-02 -0.15969104552E-01  0.12124154042E+00  0.12414927588E+00  0.19941328761E-01 0.  0.
         14    1    1    2    0    0  0.17626032870E-01  0.33924381087E-02  0.21638332620E-01  0.28114108729E-01  0.00000000000E+00 0.  1.
     999901    1    3    3    0    0 -0.98245788318E-02  0.12576666443E-01 -0.14287987304E+00  0.89166661539E+00  0.88000000000E+00 0.  1.
        -11    1    4    4    0    0 -0.12507689810E-01 -0.46357731858E-02  0.80408448362E-01  0.81508971202E-01  0.51100000000E-03 0.  1.
         11    1    4    4    0    0  0.47062357719E-02 -0.11333331366E-01  0.40833092055E-01  0.42640304675E-01  0.51100000000E-03 0. -1.
</event>
<event>
 8    1  0.1161093E+005  0.1043930E+01  0.7957747E-01            NaN
         13   -1    0    0    0    0  0.00000000000E+00  0.00000000000E+00  0.74505805969E-08  0.10566000000E+00  0.10566000000E+00 0. -1.
     999900   -1    0    0    0    0 -0.00000000000E+00 -0.00000000000E+00 -0.74505805969E-08  0.93827000000E+00  0.93827000000E+00 0. -1.
     999902    2    1    2    0    0  0.83107817633E-02  0.18132485979E-02  0.22141787020E-01  0.10202104786E+01  0.10199347062E+01 0.  0.
     999903    2    3    3    0    0 -0.63342623790E-01 -0.55630336814E-01  0.10006069390E+00  0.13200704913E+00  0.17512743756E-01 0.  0.
         14    1    1    2    0    0 -0.83107817633E-02 -0.18132485979E-02 -0.22141787020E-01  0.23719521421E-01  0.00000000000E+00 0.  1.
     999901    1    3    3    0    0  0.71653405553E-01  0.57443585412E-01 -0.77918906882E-01  0.88820342945E+00  0.88000000000E+00 0. -1.
        -11    1    4    4    0    0 -0.52273982523E-01 -0.35862647530E-01  0.75593319654E-01  0.98657538151E-01  0.51100000000E-03 0. -1.
         11    1    4    4    0    0 -0.11068641268E-01 -0.19767689284E-01  0.24467374247E-01  0.33349510981E-01  0.51100000000E-03 0.  1.
</event>
<event>
 8    1  0.1161093E+005  0.1043930E+01  0.7957747E-01            NaN
         13   -1    0    0    0    0  0.00000000000E+00  0.00000000000E+00  0.74505805969E-08  0.10566000000E+00  0.10566000000E+00 0. -1.
     999900   -1    0    0    0    0 -0.00000000000E+00 -0.00000000000E+00 -0.74505805969E-08  0.93827000000E+00  0.93827000000E+00 0. -1.
     999902    2    1    2    0    0  0.11429079561E-02 -0.14294174704E-01 -0.18362596303E-01  0.10206316178E+01  0.10203656622E+01 0.  0.
     999903    2    3    3    0    0 -0.12907509332E+00 -0.21603754014E-02 -0.86111425165E-02  0.13091309616E+00  0.19975986388E-01 0.  0.
         14    1    1    2    0    0 -0.11429079561E-02  0.14294174704E-01  0.18362596303E-01  0.23298382177E-01  0.00000000000E+00 0. -1.
     999901    1    3    3    0    0  0.13021800128E+00 -0.12133799303E-01 -0.97514537869E-02  0.88971852166E+00  0.88000000000E+00 0.  1.
        -11    1    4    4    0    0 -0.89928743575E-01 -0.10656268269E-01 -0.52495864685E-02  0.90711378854E-01  0.51100000000E-03 0. -1.
         11    1    4    4    0    0 -0.39146349747E-01  0.84958928680E-02 -0.33615560481E-02  0.40201717304E-01  0.51100000000E-03 0.  1.
</event>
<event>
 8    1  0.1161093E+005  0.1043930E+01  0.7957747E-01            NaN
         13   -1    0    0    0    0  0.00000000000E+00  0.00000000000E+00  0.74505805969E-08  0.10566000000E+00  0.10566000000E+00 0. -1.
     999900   -1    0    0    0    0 -0.00000000000E+00 -0.00000000000E+00 -0.74505805969E-08  0.93827000000E+00  0.93827000000E+00 0.  1.
     999902    2    1    2    0    0  0.82810000426E-02  0.18341463347E-01 -0.11063473658E-01  0.10209651423E+01  0.10207068321E+01 0.  0.
     999903    2    3    3    0    0 -0.10645437690E+00  0.67210963323E-01 -0.33735982245E-01  0.13188332527E+00  0.20130748457E-01 0.  0.
         14    1    1    2    0    0 -0.82810000426E-02 -0.18341463347E-01  0.11063473658E-01  0.22964857692E-01  0.00000000000E+00 0. -1.
     999901    1    3    3    0    0  0.11473537694E+00 -0.48869499975E-01  0.22672508587E-01  0.88908181704E+00  0.88000000000E+00 0.  1.
        -11    1    4    4    0    0 -0.37200324611E-01  0.35050189641E-01 -0.12315738053E-01  0.52576786416E-01  0.51100000000E-03 0.  1.
         11    1    4    4    0    0 -0.69254052288E-01  0.32160773682E-01 -0.21420244192E-01  0.79306538850E-01  0.51100000000E-03 0. -1.
</event>
<event>
 8    1  0.1161093E+005  0.1043930E+01  0.7957747E-01            NaN
         13   -1    0    0    0    0  0.00000000000E+00  0.00000000000E+00  0.74505805969E-08  0.10566000000E+00  0.10566000000E+00 0.  1.
     999900   -1    0    0    0    0 -0.00000000000E+00 -0.00000000000E+00 -0.74505805969E-08  0.93827000000E+00  0.93827000000E+00 0.  1.
     999902    2    1    2    0    0 -0.44612695744E-02  0.18706503132E-01 -0.14425329182E-01  0.10198899021E+01  0.10196065349E+01 0.  0.
     999903    2    3    3    0    0 -0.54501371887E-01  0.41521653073E-02  0.11502045175E+00  0.12889492410E+00  0.19913742099E-01 0.  0.
         14    1    1    2    0    0  0.44612695744E-02 -0.18706503132E-01  0.14425329182E-01  0.24040097913E-01  0.00000000000E+00 0.  1.
     999901    1    3    3    0    0  0.50040102313E-01  0.14554337824E-01 -0.12944578093E+00  0.89099497798E+00  0.88000000000E+00 0.  1.
        -11    1    4    4    0    0 -0.17419458185E-01 -0.50773753015E-02  0.53244201553E-01  0.56253207761E-01  0.51100000000E-03 0. -1.
         11    1    4    4    0    0 -0.37081913702E-01  0.92295406088E-02  0.61776250199E-01  0.72641716343E-01  0.51100000000E-03 0.  1.
</event>
<event>
 8    1  0.1161093E+005  0.1043930E+01  0.7957747E-01            NaN
         13   -1    0    0    0    0  0.00000000000E+00  0.00000000000E+00  0.74505805969E-08  0.10566000000E+00  0.10566000000E+00 0. -1.
     999900   -1    0    0    0    0 -0.00000000000E+00 -0.00000000000E+00 -0.74505805969E-08  0.93827000000E+00  0.93827000000E+00 0. -1.
     999902    2    1    2    0    0 -0.21670155114E-01  0.16898972412E-01  0.82289964077E-02  0.10152439882E+01  0.10148386415E+01 0.  0.
     999903    2    3    3    0    0  0.10425499889E+00  0.34021912220E-01 -0.54220278678E-01  0.12392460019E+00  0.19770498444E-01 0.  0.
         14    1    1    2    0    0  0.21670155114E-01 -0.16898972412E-01 -0.82289964077E-02  0.28686011803E-01  0.00000000000E+00 0. -1.
     999901    1    3    3    0    0 -0.12592515400E+00 -0.17122939808E-01  0.62449275086E-01  0.89131938801E+00  0.88000000000E+00 0. -1.
        -11    1    4    4    0    0  0.61349860315E-01  0.20311978893E-01 -0.20995861596E-01  0.67951962241E-01  0.51100000000E-03 0. -1.
         11    1    4    4    0    0  0.42905138570E-01  0.13709933328E-01 -0.33224417082E-01  0.55972637949E-01  0.51100000000E-03 0.  1.
</event>
<event>
 8    1  0.1161093E+005  0.1043930E+01  0.7957747E-01            NaN
         13   -1    0    0    0    0  0.00000000000E+00  0.00000000000E+00  0.74505805969E-08  0.10566000000E+00  0.10566000000E+00 0.  1.
     999900   -1    0    0    0    0 -0.00000000000E+00 -0.00000000000E+00 -0.74505805969E-08  0.93827000000E+00  0.93827000000E+00 0. -1.
     999902    2    1    2    0    0 -0.13024499689E-01  0.19816818611E-01 -0.25395391638E-02  0.10200806153E+01  0.10198017790E+01 0.  0.
     999903    2    3    3    0    0  0.38483925584E-01  0.88167741203E-01 -0.88539400177E-01  0.13175581963E+00  0.16303604028E-01 0.  0.
         14    1    1    2    0    0  0.13024499689E-01 -0.19816818611E-01  0.25395391638E-02  0.23849384713E-01  0.00000000000E+00 0. -1.
     999901    1    3    3    0    0 -0.51508425273E-01 -0.68350922592E-01  0.85999861013E-01  0.88832479566E+00  0.88000000000E+00 0.  1.
        -11    1    4    4    0    0  0.21160252455E-01  0.51184539266E-01 -0.61542455145E-01  0.82797030442E-01  0.51100000000E-03 0.  1.
         11    1    4    4    0    0  0.17323673129E-01  0.36983201938E-01 -0.26996945032E-01  0.48958789183E-01  0.51100000000E-03 0. -1.
</event>
<event>
 8    1  0.1161093E+005  0.1043930E+01  0.7957747E-01            NaN
         13   -1    0    0    0    0  0.00000000000E+00  0.00000000000E+00  0.74505805969E-08  0.10566000000E+00  0.10566000000E+00 0.  1.
     999900   -1    0    0    0    0 -0.00000000000E+00 -0.00000000000E+00 -0.74505805969E-08  0.93827000000E+00  0.93827000000E+00 0. -1.
     999902    2    1    2    0    0  0.77626653330E-02 -0.46843570415E-02 -0.21737421570E-01  0.10203775549E+01  0.10201056989E+01 0.  0.
     999903    2    3    3    0    0 -0.44600048808E-01 -0.12186300727E+00  0.86856193727E-02  0.13054709277E+00  0.11284793026E-01 0.  0.
         14    1    1    2    0    0 -0.77626653330E-02  0.46843570415E-02  0.21737421570E-01  0.23552445106E-01  0.00000000000E+00 0.  1.
     999901    1    3    3    0    0  0.52362714141E-01  0.11717865022E+00 -0.30423040943E-01  0.88983046212E+00  0.88000000000E+00 0. -1.
        -11    1    4    4    0    0 -0.29086348168E-01 -0.90976412736E-01  0.93693239227E-02  0.95972749653E-01  0.51100000000E-03 0.  1.
         11    1    4    4    0    0 -0.15513700640E-01 -0.30886594529E-01 -0.68370455004E-03  0.34574343119E-01  0.51100000000E-03 0. -1.
</event>
<event>
 8    1  0.1161093E+005  0.1043930E+01  0.7957747E-01            NaN
         13   -1    0    0    0    0  0.00000000000E+00  0.00000000000E+00  0.74505805969E-08  0.10566000000E+00  0.10566000000E+00 0. -1.
     999900   -1    0    0    0    0 -0.00000000000E+00 -0.00000000000E+00 -0.74505805969E-08  0.93827000000E+00  0.93827000000E+00 0.  1.
     999902    2    1    2    0    0  0.19289267155E-01  0.18534494690E-02  0.10985004316E-01  0.10216548699E+01  0.10214120088E+01 0.  0.
     999903    2    3    3    0    0 -0.12575556133E+00 -0.11434042866E-01  0.21056307062E-01  0.12962572749E+00  0.20353442453E-01 0.  0.
         14    1    1    2    0    0 -0.19289267155E-01 -0.18534494690E-02 -0.10985004316E-01  0.22275130126E-01  0.00000000000E+00 0.  1.
     999901    1    3    3    0    0  0.14504482848E+00  0.13287492335E-01 -0.10071302746E-01  0.89202914238E+00  0.88000000000E+00 0.  1.
        -11    1    4    4    0    0 -0.80768049036E-02  0.42618978808E-02  0.72310739446E-03  0.91751052474E-02  0.51100000000E-03 0. -1.
         11    1    4    4    0    0 -0.11767875642E+00 -0.15695940747E-01  0.20333199667E-01  0.12045062224E+00  0.51100000000E-03 0.  1.
</event>
<event>
 8    1  0.1161093E+005  0.1043930E+01  0.7957747E-01            NaN
         13   -1    0    0    0    0  0.00000000000E+00  0.00000000000E+00  0.74505805969E-08  0.10566000000E+00  0.10566000000E+00 0.  1.
     999900   -1    0    0    0    0 -0.00000000000E+00 -0.00000000000E+00 -0.74505805969E-08  0.93827000000E+00  0.93827000000E+00 0.  1.
     999902    2    1    2    0    0  0.11598192365E-01 -0.12346054190E-01  0.19585373355E-01  0.10180354066E+01  0.10177060278E+01 0.  0.
     999903    2    3    3    0    0 -0.38089237915E-01  0.26088434353E-01  0.12009352999E+00  0.13008949594E+00  0.19220420280E-01 0.  0.
         14    1    1    2    0    0 -0.11598192365E-01  0.12346054190E-01 -0.19585373355E-01  0.25894593445E-01  0.00000000000E+00 0. -1.
     999901    1    3    3    0    0  0.49687430280E-01 -0.38434488543E-01 -0.10050815663E+00  0.88794591062E+00  0.88000000000E+00 0.  1.
        -11    1    4    4    0    0 -0.15218288306E-01  0.21068419060E-01  0.73069030320E-01  0.77555263481E-01  0.51100000000E-03 0.  1.
         11    1    4    4    0    0 -0.22870949608E-01  0.50200152926E-02  0.47024499668E-01  0.52534232454E-01  0.51100000000E-03 0. -1.
</event>
<event>
 8    1  0.1161093E+005  0.1043930E+01  0.7957747E-01            NaN
         13   -1    0    0    0    0  0.00000000000E+00  0.00000000000E+00  0.74505805969E-08  0.10566000000E+00  0.10566000000E+00 0.  1.
     999900   -1    0    0    0    0 -0.00000000000E+00 -0.00000000000E+00 -0.74505805969E-08  0.93827000000E+00  0.93827000000E+00 0.  1.
     999902    2    1    2    0    0  0.94491765803E-02  0.10009012626E-01  0.19986027470E-01  0.10196625616E+01  0.10193737445E+01 0.  0.
     999903    2    3    3    0    0  0.39799627460E-02  0.55068021603E-01  0.11979576424E+00  0.13285806786E+00  0.15871797600E-01 0.  0.
         14    1    1    2    0    0 -0.94491765803E-02 -0.10009012626E-01 -0.19986027470E-01  0.24267438386E-01  0.00000000000E+00 0. -1.
     999901    1    3    3    0    0  0.54692138343E-02 -0.45059008977E-01 -0.99809736769E-01  0.88680449375E+00  0.88000000000E+00 0.  1.
        -11    1    4    4    0    0 -0.41517511120E-02  0.11919258186E-01  0.37646169424E-01  0.39708952974E-01  0.51100000000E-03 0. -1.
         11    1    4    4    0    0  0.81317138580E-02  0.43148763417E-01  0.82149594815E-01  0.93149114886E-01  0.51100000000E-03 0.  1.
</event>
<event>
 8    1  0.1161093E+005  0.1043930E+01  0.7957747E-01            NaN
         13   -1    0    0    0    0  0.00000000000E+00  0.00000000000E+00  0.74505805969E-08  0.10566000000E+00  0.10566000000E+00 0.  1.
     999900   -1    0    0    0    0 -0.00000000000E+00 -0.00000000000E+00 -0.74505805969E-08  0.93827000000E+00  0.93827000000E+00 0. -1.
     999902    2    1    2    0    0  0.13863722349E-01  0.18181019531E-01  0.55808311866E-02  0.10203949635E+01  0.10201235138E+01 0.  0.
     999903    2    3    3    0    0  0.83035864075E-01 -0.27485578101E-01  0.96884634538E-01  0.13179684966E+00  0.18258297959E-01 0.  0.
         14    1    1    2    0    0 -0.13863722349E-01 -0.18181019531E-01 -0.55808311866E-02  0.23535036548E-01  0.00000000000E+00 0.  1.
     999901    1    3    3    0    0 -0.69172141725E-01  0.45666597632E-01 -0.91303803351E-01  0.88859811379E+00  0.88000000000E+00 0. -1.
        -11    1    4    4    0    0  0.52824382762E-01 -0.26145488965E-01  0.60197393783E-01  0.84249565854E-01  0.51100000000E-03 0.  1.
         11    1    4    4    0    0  0.30211481313E-01 -0.13400891362E-02  0.36687240755E-01  0.47547283805E-01  0.51100000000E-03 0. -1.
</event>
<event>
 8    1  0.1161093E+005  0.1043930E+01  0.7957747E-01            NaN
         13   -1    0    0    0    0  0.00000000000E+00  0.00000000000E+00  0.74505805969E-08  0.10566000000E+00  0.10566000000E+00 0. -1.
     999900   -1    0    0    0    0 -0.00000000000E+00 -0.00000000000E+00 -0.74505805969E-08  0.93827000000E+00  0.93827000000E+00 0. -1.
     999902    2    1    2    0    0  0.22449804865E-01  0.88727023467E-03  0.79867869838E-02  0.10200852993E+01  0.10198065738E+01 0.  0.
     999903    2    3    3    0    0 -0.69465850577E-01  0.99345267038E-01 -0.38495839919E-01  0.12862408336E+00  0.19163471783E-01 0.  0.
         14    1    1    2    0    0 -0.22449804865E-01 -0.88727023467E-03 -0.79867869838E-02  0.23844700737E-01  0.00000000000E+00 0.  1.
     999901    1    3    3    0    0  0.91915655441E-01 -0.98457996803E-01  0.46482626903E-01  0.89146121590E+00  0.88000000000E+00 0.  1.
        -11    1    4    4    0    0 -0.98648962065E-02  0.28390518367E-01 -0.91407145566E-02  0.31418967105E-01  0.51100000000E-03 0.  1.
         11    1    4    4    0    0 -0.59600954370E-01  0.70954748670E-01 -0.29355125363E-01  0.97205116258E-01  0.51100000000E-03 0. -1.
</event>
<event>
 8    1  0.1161093E+005  0.1043930E+01  0.7957747E-01            NaN
         13   -1    0    0    0    0  0.00000000000E+00  0.00000000000E+00  0.74505805969E-08  0.10566000000E+00  0.10566000000E+00 0.  1.
     999900   -1    0    0    0    0 -0.00000000000E+00 -0.00000000000E+00 -0.74505805969E-08  0.93827000000E+00  0.93827000000E+00 0. -1.
     999902    2    1    2    0    0 -0.43208310298E-02 -0.21906232911E-01  0.12466703870E-01  0.10183571369E+01  0.10180359949E+01 0.  0.
     999903    2    3    3    0    0  0.59838479005E-01  0.10943029120E+00  0.51921583439E-02  0.12627047148E+00  0.19016867733E-01 0.  0.
         14    1    1    2    0    0  0.43208310298E-02  0.21906232911E-01 -0.12466703870E-01  0.25572863088E-01  0.00000000000E+00 0. -1.
     999901    1    3    3    0    0 -0.64159310035E-01 -0.13133652411E+00  0.72745455261E-02  0.89208666543E+00  0.88000000000E+00 0.  1.
        -11    1    4    4    0    0  0.37761659908E-01  0.54090767422E-01 -0.34715714524E-02  0.66061085434E-01  0.51100000000E-03 0.  1.
         11    1    4    4    0    0  0.22076819097E-01  0.55339523775E-01  0.86637297963E-02  0.60209386046E-01  0.51100000000E-03 0. -1.
</event>
<event>
 8    1  0.1161093E+005  0.1043930E+01  0.7957747E-01            NaN
         13   -1    0    0    0    0  0.00000000000E+00  0.00000000000E+00  0.74505805969E-08  0.10566000000E+00  0.10566000000E+00 0.  1.
     999900   -1    0    0    0    0 -0.00000000000E+00 -0.00000000000E+00 -0.74505805969E-08  0.93827000000E+00  0.93827000000E+00 0. -1.
     999902    2    1    2    0    0  0.10775753800E-01  0.87630139330E-02  0.19042909601E-01  0.10203601105E+01  0.10200878469E+01 0.  0.
     999903    2    3    3    0    0  0.10534197836E+00  0.60560445962E-01  0.50818206405E-01  0.13320994609E+00  0.19947421284E-01 0.  0.
         14    1    1    2    0    0 -0.10775753800E-01 -0.87630139330E-02 -0.19042909601E-01  0.23569889461E-01  0.00000000000E+00 0. -1.
     999901    1    3    3    0    0 -0.94566224558E-01 -0.51797432029E-01 -0.31775296805E-01  0.88715016445E+00  0.88000000000E+00 0.  1.
        -11    1    4    4    0    0  0.74054088140E-01  0.51049802091E-01  0.31951588230E-01  0.95452896107E-01  0.51100000000E-03 0. -1.
         11    1    4    4    0    0  0.31287890219E-01  0.95106438711E-02  0.18866618176E-01  0.37757049985E-01  0.51100000000E-03 0.  1.
</event>
<event>
 8    1  0.1161093E+005  0.1043930E+01  0.7957747E-01            NaN
         13   -1    0    0    0    0  0.00000000000E+00  0.00000000000E+00  0.74505805969E-08  0.10566000000E+00  0.10566000000E+00 0. -1.
     999900   -1    0    0    0    0 -0.00000000000E+00 -0.00000000000E+00 -0.74505805969E-08  0.93827000000E+00  0.93827000000E+00 0. -1.
     999902    2    1    2    0    0  0.32764895461E-01 -0.15195511805E-02 -0.17024096147E-02  0.10110857370E+01  0.10105521372E+01 0.  0.
     999903    2    3    3    0    0 -0.10285516156E+00 -0.20742045637E-01 -0.52609522520E-01  0.11903538068E+00  0.19805132596E-01 0.  0.
         14    1    1    2    0    0 -0.32764895461E-01  0.15195511805E-02  0.17024096147E-02  0.32844262952E-01  0.00000000000E+00 0. -1.
     999901    1    3    3    0    0  0.13562005702E+00  0.19222494456E-01  0.50907112906E-01  0.89205035637E+00  0.88000000000E+00 0.  1.
        -11    1    4    4    0    0 -0.61306190548E-01 -0.41372507814E-02 -0.24257944313E-01  0.66062658339E-01  0.51100000000E-03 0.  1.
         11    1    4    4    0    0 -0.41548971008E-01 -0.16604794855E-01 -0.28351578208E-01  0.52972722338E-01  0.51100000000E-03 0. -1.
</event>
<event>
 8    1  0.1161093E+005  0.1043930E+01  0.7957747E-01            NaN
         13   -1    0    0    0    0  0.00000000000E+00  0.00000000000E+00  0.74505805969E-08  0.10566000000E+00  0.10566000000E+00 0.  1.
     999900   -1    0    0    0    0 -0.00000000000E+00 -0.00000000000E+00 -0.74505805969E-08  0.93827000000E+00  0.93827000000E+00 0. -1.
     999902    2    1    2    0    0 -0.75978185229E-02  0.22450381018E-01  0.13420818367E-02  0.10201908417E+01  0.10199146071E+01 0.  0.
     999903    2    3    3    0    0  0.12047626793E+00  0.25708366270E-01 -0.36714153536E-01  0.13009991198E+00  0.20065064089E-01 0.  0.
         14    1    1    2    0    0  0.75978185229E-02 -0.22450381018E-01 -0.13420818367E-02  0.23739158321E-01  0.00000000000E+00 0.  1.
     999901    1    3    3    0    0 -0.12807408645E+00 -0.32579852529E-02  0.38056235373E-01  0.89009092970E+00  0.88000000000E+00 0.  1.
        -11    1    4    4    0    0  0.82112153773E-01  0.83249087752E-02 -0.21221591444E-01  0.85219287533E-01  0.51100000000E-03 0.  1.
         11    1    4    4    0    0  0.38364114153E-01  0.17383457495E-01 -0.15492562093E-01  0.44880624443E-01  0.51100000000E-03 0. -1.
</event>
<event>
 8    1  0.1161093E+005  0.1043930E+01  0.7957747E-01            NaN
         13   -1    0    0    0    0  0.00000000000E+00  0.00000000000E+00  0.74505805969E-08  0.10566000000E+00  0.10566000000E+00 0. -1.
     999900   -1    0    0    0    0 -0.00000000000E+00 -0.00000000000E+00 -0.74505805969E-08  0.93827000000E+00  0.93827000000E+00 0. -1.
     999902    2    1    2    0    0 -0.15505245056E-02  0.15019153152E-01  0.19113218487E-01  0.10195723686E+01  0.10192813746E+01 0.  0.
     999903    2    3    3    0    0 -0.76162569801E-01 -0.98860837653E-01 -0.22094603202E-01  0.12815008134E+00  0.18975499920E-01 0.  0.
         14    1    1    2    0    0  0.15505245056E-02 -0.15019153152E-01 -0.19113218487E-01  0.24357631424E-01  0.00000000000E+00 0.  1.
     999901    1    3    3    0    0  0.74612045295E-01  0.11387999081E+00  0.41207821690E-01  0.89142228723E+00  0.88000000000E+00 0.  1.
        -11    1    4    4    0    0 -0.14462385435E-01 -0.32102385446E-01 -0.37579948213E-02  0.35413378684E-01  0.51100000000E-03 0.  1.
         11    1    4    4    0    0 -0.61700184366E-01 -0.66758452208E-01 -0.18336608381E-01  0.92736702658E-01  0.51100000000E-03 0. -1.
</event>
<event>
 8    1  0.1161093E+005  0.1043930E+01  0.7957747E-01            NaN
         13   -1    0    0    0    0  0.00000000000E+00  0.00000000000E+00  0.74505805969E-08  0.10566000000E+00  0.10566000000E+00 0.  1.
     999900   -1    0    0    0    0 -0.00000000000E+00 -0.00000000000E+00 -0.74505805969E-08  0.93827000000E+00  0.93827000000E+00 0.  1.
     999902    2    1    2    0    0  0.14172517921E-01  0.77108009428E-02  0.17082118940E-01  0.10204328618E+01  0.10201622959E+01 0.  0.
     999903    2    3    3    0    0 -0.65011602651E-01  0.31166067241E-01  0.10855812418E+00  0.13184514301E+00  0.20011076534E-01 0.  0.
         14    1    1    2    0    0 -0.14172517921E-01 -0.77108009428E-02 -0.17082118940E-01  0.23497138185E-01  0.00000000000E+00 0. -1.
     999901    1    3    3    0    0  0.79184120573E-01 -0.23455266298E-01 -0.91476005241E-01  0.88858771880E+00  0.88000000000E+00 0.  1.
        -11    1    4    4    0    0 -0.34189530991E-02  0.25318768580E-02  0.64378617571E-03  0.43330384672E-02  0.51100000000E-03 0.  1.
         11    1    4    4    0    0 -0.61592649552E-01  0.28634190383E-01  0.10791433801E+00  0.12751210455E+00  0.51100000000E-03 0. -1.
</event>
<event>
 8    1  0.1161093E+005  0.1043930E+01  0.7957747E-01            NaN
         13   -1    0    0    0    0  0.00000000000E+00  0.00000000000E+00  0.74505805969E-08  0.10566000000E+00  0.10566000000E+00 0.  1.
     999900   -1    0    0    0    0 -0.00000000000E+00 -0.00000000000E+00 -0.74505805969E-08  0.93827000000E+00  0.93827000000E+00 0.  1.
     999902    2    1    2    0    0 -0.19338079984E-01  0.13637446063E-01 -0.32721904918E-02  0.10200417497E+01  0.10197619931E+01 0.  0.
     999903    2    3    3    0    0  0.80081414388E-01 -0.91701655464E-01 -0.33175474055E-01  0.12769945631E+00  0.19603890386E-01 0.  0.
         14    1    1    2    0    0  0.19338079984E-01 -0.13637446063E-01  0.32721904918E-02  0.23888250317E-01  0.00000000000E+00 0.  1.
     999901    1    3    3    0    0 -0.99419494372E-01  0.10533910153E+00  0.29903283564E-01  0.89234229337E+00  0.88000000000E+00 0. -1.
        -11    1    4    4    0    0  0.43681464024E-01 -0.45324750615E-01 -0.26731876292E-01  0.68390479226E-01  0.51100000000E-03 0. -1.
         11    1    4    4    0    0  0.36399950364E-01 -0.46376904848E-01 -0.64435977632E-02  0.59308977086E-01  0.51100000000E-03 0.  1.
</event>
<event>
 8    1  0.1161093E+005  0.1043930E+01  0.7957747E-01            NaN
         13   -1    0    0    0    0  0.00000000000E+00  0.00000000000E+00  0.74505805969E-08  0.10566000000E+00  0.10566000000E+00 0. -1.
     999900   -1    0    0    0    0 -0.00000000000E+00 -0.00000000000E+00 -0.74505805969E-08  0.93827000000E+00  0.93827000000E+00 0.  1.
     999902    2    1    2    0    0  0.17748264838E-01  0.12665170100E-02  0.16419117790E-01  0.10197185895E+01  0.10194311205E+01 0.  0.
     999903    2    3    3    0    0  0.11733471876E+00 -0.43872919557E-01  0.38903389102E-01  0.13266697149E+00  0.19869130410E-01 0.  0.
         14    1    1    2    0    0 -0.17748264838E-01 -0.12665170100E-02 -0.16419117790E-01  0.24211410515E-01  0.00000000000E+00 0.  1.
     999901    1    3    3    0    0 -0.99586453920E-01  0.45139436567E-01 -0.22484271311E-01  0.88705161800E+00  0.88000000000E+00 0.  1.
        -11    1    4    4    0    0  0.23242261591E-01 -0.99802859164E-02  0.16414112027E-01  0.30157802066E-01  0.51100000000E-03 0.  1.
         11    1    4    4    0    0  0.94092457168E-01 -0.33892633640E-01  0.22489277075E-01  0.10250916942E+00  0.51100000000E-03 0. -1.
</event>
<event>
 8    1  0.1161093E+005  0.1043930E+01  0.7957747E-01            NaN
         13   -1    0    0    0    0  0.00000000000E+00  0.00000000000E+00  0.74505805969E-08  0.10566000000E+00  0.10566000000E+00 0.  1.
     999900   -1    0    0    0    0 -0.00000000000E+00 -0.00000000000E+00 -0.74505805969E-08  0.93827000000E+00  0.93827000000E+00 0. -1.
     999902    2    1    2    0    0  0.12722700212E-01 -0.22096264209E-02  0.18933424139E-01  0.10210122318E+01  0.10207549919E+01 0.  0.
     999903    2    3    3    0    0  0.62924685017E-01 -0.11071372744E+00 -0.27918890666E-01  0.13169309976E+00  0.18616192958E-01 0.  0.
         14    1    1    2    0    0 -0.12722700212E-01  0.22096264209E-02 -0.18933424139E-01  0.22917768199E-01  0.00000000000E+00 0. -1.
     999901    1    3    3    0    0 -0.50201984804E-01  0.10850410102E+00  0.46852314805E-01  0.88931913204E+00  0.88000000000E+00 0.  1.
        -11    1    4    4    0    0  0.36238916494E-01 -0.61504253148E-01 -0.62408533449E-02  0.71660600022E-01  0.51100000000E-03 0.  1.
         11    1    4    4    0    0  0.26685768522E-01 -0.49209474289E-01 -0.21678037321E-01  0.60032499736E-01  0.51100000000E-03 0. -1.
</event>
<event>
 8    1  0.1161093E+005  0.1043930E+01  0.7957747E-01            NaN
         13   -1    0    0    0    0  0.00000000000E+00  0.00000000000E+00  0.74505805969E-08  0.10566000000E+00  0.10566000000E+00 0. -1.
     999900   -1    0    0    0    0 -0.00000000000E+00 -0.00000000000E+00 -0.74505805969E-08  0.93827000000E+00  0.93827000000E+00 0. -1.
     999902    2    1    2    0    0  0.27544364756E-02  0.10882735921E-01 -0.22384310157E-01  0.10188884704E+01  0.10185806973E+01 0.  0.
     999903    2    3    3    0    0  0.11448747805E+00 -0.54713246621E-01 -0.14599539780E-01  0.12936741495E+00  0.20539218707E-01 0.  0.
         14    1    1    2    0    0 -0.27544364756E-02 -0.10882735921E-01  0.22384310157E-01  0.25041529559E-01  0.00000000000E+00 0. -1.
     999901    1    3    3    0    0 -0.11173304157E+00  0.65595982541E-01 -0.77847703775E-02  0.88952105549E+00  0.88000000000E+00 0.  1.
        -11    1    4    4    0    0  0.29201345308E-01 -0.23483747450E-01 -0.78649212995E-02  0.38292598112E-01  0.51100000000E-03 0.  1.
         11    1    4    4    0    0  0.85286132738E-01 -0.31229499170E-01 -0.67346184803E-02  0.91074816843E-01  0.51100000000E-03 0. -1.
</event>
<event>
 8    1  0.1161093E+005  0.1043930E+01  0.7957747E-01            NaN
         13   -1    0    0    0    0  0.00000000000E+00  0.00000000000E+00  0.74505805969E-08  0.10566000000E+00  0.10566000000E+00 0. -1.
     999900   -1    0    0    0    0 -0.00000000000E+00 -0.00000000000E+00 -0.74505805969E-08  0.93827000000E+00  0.93827000000E+00 0. -1.
     999902    2    1    2    0    0  0.91248110247E-02  0.22202405973E-01  0.24853815148E-02  0.10197973224E+01  0.10195117423E+01 0.  0.
     999903    2    3    3    0    0 -0.61153566829E-01  0.10884084389E+00 -0.37279669769E-01  0.13186346865E+00  0.20300555473E-01 0.  0.
         14    1    1    2    0    0 -0.91248110247E-02 -0.22202405973E-01 -0.24853815148E-02  0.24132677607E-01  0.00000000000E+00 0.  1.
     999901    1    3    3    0    0  0.70278377853E-01 -0.86638437915E-01  0.39765051283E-01  0.88793385374E+00  0.88000000000E+00 0. -1.
        -11    1    4    4    0    0 -0.21156553738E-01  0.47028218339E-01 -0.24661360307E-01  0.57163772613E-01  0.51100000000E-03 0.  1.
         11    1    4    4    0    0 -0.39997013091E-01  0.61812625549E-01 -0.12618309462E-01  0.74699696038E-01  0.51100000000E-03 0. -1.
</event>
<event>
 8    1  0.1161093E+005  0.1043930E+01  0.7957747E-01            NaN
         13   -1    0    0    0    0  0.00000000000E+00  0.00000000000E+00  0.74505805969E-08  0.10566000000E+00  0.10566000000E+00 0.  1.
     999900   -1    0    0    0    0 -0.00000000000E+00 -0.00000000000E+00 -0.74505805969E-08  0.93827000000E+00  0.93827000000E+00 0.  1.
     999902    2    1    2    0    0 -0.21620192897E-01 -0.92426263131E-02  0.14758598982E-02  0.10203707758E+01  0.10200987614E+01 0.  0.
     999903    2    3    3    0    0 -0.22378008232E-01 -0.12831906447E+00 -0.11126924302E-01  0.13226120904E+00  0.20066425025E-01 0.  0.
         14    1    1    2    0    0  0.21620192897E-01  0.92426263131E-02 -0.14758598982E-02  0.23559224192E-01  0.00000000000E+00 0.  1.
     999901    1    3    3    0    0  0.75781533468E-03  0.11907643816E+00  0.12602784200E-01  0.88810956676E+00  0.88000000000E+00 0.  1.
        -11    1    4    4    0    0 -0.46628493591E-02 -0.67753612669E-01  0.13743231674E-02  0.67929699535E-01  0.51100000000E-03 0.  1.
         11    1    4    4    0    0 -0.17715158873E-01 -0.60565451805E-01 -0.12501247470E-01  0.64331509508E-01  0.51100000000E-03 0. -1.
</event>
<event>
 8    1  0.1161093E+005  0.1043930E+01  0.7957747E-01            NaN
         13   -1    0    0    0    0  0.00000000000E+00  0.00000000000E+00  0.74505805969E-08  0.10566000000E+00  0.10566000000E+00 0.  1.
     999900   -1    0    0    0    0 -0.00000000000E+00 -0.00000000000E+00 -0.74505805969E-08  0.93827000000E+00  0.93827000000E+00 0.  1.
     999902    2    1    2    0    0 -0.19704145775E-01  0.18794354754E-01 -0.20613889719E-01  0.10097772024E+01  0.10091994773E+01 0.  0.
     999903    2    3    3    0    0  0.55198139272E-01 -0.10122197699E+00 -0.20559423347E-01  0.11847799614E+00  0.17933836105E-01 0.  0.
         14    1    1    2    0    0  0.19704145775E-01 -0.18794354754E-01  0.20613889719E-01  0.34152797553E-01  0.00000000000E+00 0.  1.
     999901    1    3    3    0    0 -0.74902285047E-01  0.12001633174E+00 -0.54466371244E-04  0.89129920630E+00  0.88000000000E+00 0. -1.
        -11    1    4    4    0    0  0.21393358458E-01 -0.28031242224E-01  0.39905975220E-04  0.35265975673E-01  0.51100000000E-03 0.  1.
         11    1    4    4    0    0  0.33804780814E-01 -0.73190734765E-01 -0.20599329323E-01  0.83212020471E-01  0.51100000000E-03 0. -1.
</event>
<event>
 8    1  0.1161093E+005  0.1043930E+01  0.7957747E-01            NaN
         13   -1    0    0    0    0  0.00000000000E+00  0.00000000000E+00  0.74505805969E-08  0.10566000000E+00  0.10566000000E+00 0.  1.
     999900   -1    0    0    0    0 -0.00000000000E+00 -0.00000000000E+00 -0.74505805969E-08  0.93827000000E+00  0.93827000000E+00 0. -1.
     999902    2    1    2    0    0 -0.62140009846E-02  0.22114011870E-01  0.89806735422E-02  0.10192663460E+01  0.10189679035E+01 0.  0.
     999903    2    3    3    0    0  0.61177794355E-01  0.55067613886E-01 -0.98246792998E-01  0.12958925656E+00  0.19125335579E-01 0.  0.
         14    1    1    2    0    0  0.62140009846E-02 -0.22114011870E-01 -0.89806735422E-02  0.24663653957E-01  0.00000000000E+00 0. -1.
     999901    1    3    3    0    0 -0.67391795340E-01 -0.32953602017E-01  0.10722746654E+00  0.88967708948E+00  0.88000000000E+00 0.  1.
        -11    1    4    4    0    0  0.59301594656E-01  0.56633313569E-01 -0.95077941258E-01  0.12555511686E+00  0.51100000000E-03 0. -1.
         11    1    4    4    0    0  0.18761996992E-02 -0.15656996828E-02 -0.31688517397E-02  0.40341397046E-02  0.51100000000E-03 0.  1.
</event>
<event>
 8    1  0.1161093E+005  0.1043930E+01  0.7957747E-01            NaN
         13   -1    0    0    0    0  0.00000000000E+00  0.00000000000E+00  0.74505805969E-08  0.10566000000E+00  0.10566000000E+00 0.  1.
     999900   -1    0    0    0    0 -0.00000000000E+00 -0.00000000000E+00 -0.74505805969E-08  0.93827000000E+00  0.93827000000E+00 0. -1.
     999902    2    1    2    0    0 -0.23386501918E-01  0.10893991682E-01 -0.12511161925E-02  0.10181003113E+01  0.10177726028E+01 0.  0.
     999903    2    3    3    0    0 -0.83223313184E-01 -0.62052938636E-01  0.75396397651E-01  0.12974422278E+00  0.19294027980E-01 0.  0.
         14    1    1    2    0    0  0.23386501918E-01 -0.10893991682E-01  0.12511161925E-02  0.25829688702E-01  0.00000000000E+00 0. -1.
     999901    1    3    3    0    0  0.59836811266E-01  0.72946930318E-01 -0.76647513843E-01  0.88835608852E+00  0.88000000000E+00 0. -1.
        -11    1    4    4    0    0 -0.14286123965E-01 -0.20083893789E-01  0.21332464904E-01  0.32600480174E-01  0.51100000000E-03 0. -1.
         11    1    4    4    0    0 -0.68937189219E-01 -0.41969044847E-01  0.54063932747E-01  0.97143742608E-01  0.51100000000E-03 0.  1.
</event>
<event>
 8    1  0.1161093E+005  0.1043930E+01  0.7957747E-01            NaN
         13   -1    0    0    0    0  0.00000000000E+00  0.00000000000E+00  0.74505805969E-08  0.10566000000E+00  0.10566000000E+00 0.  1.
     999900   -1    0    0    0    0 -0.00000000000E+00 -0.00000000000E+00 -0.74505805969E-08  0.93827000000E+00  0.93827000000E+00 0.  1.
     999902    2    1    2    0    0 -0.10574129202E-01  0.19130315078E-01 -0.10032124809E-01  0.10198795386E+01  0.10195959242E+01 0.  0.
     999903    2    3    3    0    0  0.11119390447E+00 -0.43629656644E-01 -0.43551225748E-01  0.12865016401E+00  0.19660216338E-01 0.  0.
         14    1    1    2    0    0  0.10574129202E-01 -0.19130315078E-01  0.10032124809E-01  0.24050461358E-01  0.00000000000E+00 0.  1.
     999901    1    3    3    0    0 -0.12176803367E+00  0.62759971721E-01  0.33519100940E-01  0.89122937463E+00  0.88000000000E+00 0. -1.
        -11    1    4    4    0    0  0.32558718891E-01 -0.14799270957E-01 -0.38899291434E-02  0.35978900294E-01  0.51100000000E-03 0. -1.
         11    1    4    4    0    0  0.78635185578E-01 -0.28830385687E-01 -0.39661296605E-01  0.92671263718E-01  0.51100000000E-03 0.  1.
</event>
<event>
 8    1  0.1161093E+005  0.1043930E+01  0.7957747E-01            NaN
         13   -1    0    0    0    0  0.00000000000E+00  0.00000000000E+00  0.74505805969E-08  0.10566000000E+00  0.10566000000E+00 0.  1.
     999900   -1    0    0    0    0 -0.00000000000E+00 -0.00000000000E+00 -0.74505805969E-08  0.93827000000E+00  0.93827000000E+00 0. -1.
     999902    2    1    2    0    0 -0.17852352885E-01  0.25368267744E-02  0.75799458384E-02  0.10243698985E+01  0.10241831337E+01 0.  0.
     999903    2    3    3    0    0  0.31734907723E-01 -0.11887130038E+00  0.48188309210E-01  0.13372526173E+00  0.20563123705E-01 0.  0.
         14    1    1    2    0    0  0.17852352885E-01 -0.25368267744E-02 -0.75799458384E-02  0.19560101547E-01  0.00000000000E+00 0. -1.
     999901    1    3    3    0    0 -0.49587260608E-01  0.12140812716E+00 -0.40608363371E-01  0.89064463673E+00  0.88000000000E+00 0. -1.
        -11    1    4    4    0    0  0.16309272712E-01 -0.35104705964E-01  0.22423914542E-01  0.44737297880E-01  0.51100000000E-03 0. -1.
         11    1    4    4    0    0  0.15425635012E-01 -0.83766594418E-01  0.25764394668E-01  0.88987963846E-01  0.51100000000E-03 0.  1.
</event>
<event>
 8    1  0.1161093E+005  0.1043930E+01  0.7957747E-01            NaN
         13   -1    0    0    0    0  0.00000000000E+00  0.00000000000E+00  0.74505805969E-08  0.10566000000E+00  0.10566000000E+00 0. -1.
     999900   -1    0    0    0    0 -0.00000000000E+00 -0.00000000000E+00 -0.74505805969E-08  0.93827000000E+00  0.93827000000E+00 0.  1.
     999902    2    1    2    0    0  0.35601084960E-02  0.34686348311E-02 -0.23149666754E-01  0.10202527351E+01  0.10199779560E+01 0.  0.
     999903    2    3    3    0    0 -0.76621158625E-01  0.94589307419E-01  0.39709653330E-01  0.12970048699E+00  0.20674156124E-01 0.  0.
         14    1    1    2    0    0 -0.35601084960E-02 -0.34686348311E-02  0.23149666754E-01  0.23677264853E-01  0.00000000000E+00 0. -1.
     999901    1    3    3    0    0  0.80181267121E-01 -0.91120672588E-01 -0.62859320085E-01  0.89055224815E+00  0.88000000000E+00 0. -1.
        -11    1    4    4    0    0 -0.48255095783E-01  0.43822272108E-01  0.23949579660E-01  0.69446305075E-01  0.51100000000E-03 0. -1.
         11    1    4    4    0    0 -0.28366062843E-01  0.50767035311E-01  0.15760073671E-01  0.60254181918E-01  0.51100000000E-03 0.  1.
</event>
<event>
 8    1  0.1161093E+005  0.1043930E+01  0.7957747E-01            NaN
         13   -1    0    0    0    0  0.00000000000E+00  0.00000000000E+00  0.74505805969E-08  0.10566000000E+00  0.10566000000E+00 0.  1.
     999900   -1    0    0    0    0 -0.00000000000E+00 -0.00000000000E+00 -0.74505805969E-08  0.93827000000E+00  0.93827000000E+00 0.  1.
     999902    2    1    2    0    0  0.33761285148E-02 -0.13680778461E-02  0.23417904912E-01  0.10202304609E+01  0.10199551585E+01 0.  0.
     999903    2    3    3    0    0 -0.98557544167E-01  0.82424094819E-01  0.17611011779E-02  0.13012899540E+00  0.20570198040E-01 0.  0.
         14    1    1    2    0    0 -0.33761285148E-02  0.13680778461E-02 -0.23417904912E-01  0.23699539050E-01  0.00000000000E+00 0. -1.
     999901    1    3    3    0    0  0.10193367268E+00 -0.83792172665E-01  0.21656803734E-01  0.89010146555E+00  0.88000000000E+00 0.  1.
        -11    1    4    4    0    0 -0.60559275877E-01  0.63184513155E-01  0.90851185699E-03  0.87525968216E-01  0.51100000000E-03 0.  1.
         11    1    4    4    0    0 -0.37998268290E-01  0.19239581664E-01  0.85258932087E-03  0.42603027183E-01  0.51100000000E-03 0. -1.
</event>
<event>
 8    1  0.1161093E+005  0.1043930E+01  0.7957747E-01            NaN
         13   -1    0    0    0    0  0.00000000000E+00  0.00000000000E+00  0.74505805969E-08  0.10566000000E+00  0.10566000000E+00 0. -1.
     999900   -1    0    0    0    0 -0.00000000000E+00 -0.00000000000E+00 -0.74505805969E-08  0.93827000000E+00  0.93827000000E+00 0. -1.
     999902    2    1    2    0    0 -0.47742808085E-02 -0.95290647140E-02  0.22246598685E-01  0.10192620454E+01  0.10189634975E+01 0.  0.
     999903    2    3    3    0    0  0.12671924149E-01 -0.25021695692E-01 -0.12255545701E+00  0.12712302763E+00  0.18808540400E-01 0.  0.
         14    1    1    2    0    0  0.47742808085E-02  0.95290647140E-02 -0.22246598685E-01  0.24667954610E-01  0.00000000000E+00 0.  1.
     999901    1    3    3    0    0 -0.17446204957E-01  0.15492630978E-01  0.14480205570E+00  0.89213901776E+00  0.88000000000E+00 0.  1.
        -11    1    4    4    0    0  0.19565459476E-02 -0.19566631158E-01 -0.95602629446E-01  0.97605353362E-01  0.51100000000E-03 0.  1.
         11    1    4    4    0    0  0.10715378201E-01 -0.54550645340E-02 -0.26952827569E-01  0.29517674265E-01  0.51100000000E-03 0. -1.
</event>
<event>
 8    1  0.1161093E+005  0.1043930E+01  0.7957747E-01            NaN
         13   -1    0    0    0    0  0.00000000000E+00  0.00000000000E+00  0.74505805969E-08  0.10566000000E+00  0.10566000000E+00 0.  1.
     999900   -1    0    0    0    0 -0.00000000000E+00 -0.00000000000E+00 -0.74505805969E-08  0.93827000000E+00  0.93827000000E+00 0.  1.
     999902    2    1    2    0    0  0.23096944931E-02  0.17402012496E-01 -0.15681810196E-01  0.10203910132E+01  0.10201194714E+01 0.  0.
     999903    2    3    3    0    0 -0.65244929758E-01 -0.35402516008E-01 -0.10679047655E+00  0.13154190647E+00  0.19718729099E-01 0.  0.
         14    1    1    2    0    0 -0.23096944931E-02 -0.17402012496E-01  0.15681810196E-01  0.23538986779E-01  0.00000000000E+00 0.  1.
     999901    1    3    3    0    0  0.67554624251E-01  0.52804528504E-01  0.91108666352E-01  0.88884910675E+00  0.88000000000E+00 0. -1.
        -11    1    4    4    0    0 -0.37999796863E-01 -0.15200121008E-01 -0.43466798459E-01  0.59704706092E-01  0.51100000000E-03 0.  1.
         11    1    4    4    0    0 -0.27245132895E-01 -0.20202395000E-01 -0.63323678090E-01  0.71837200377E-01  0.51100000000E-03 0. -1.
</event>
<event>
 8    1  0.1161093E+005  0.1043930E+01  0.7957747E-01            NaN
         13   -1    0    0    0    0  0.00000000000E+00  0.00000000000E+00  0.74505805969E-08  0.10566000000E+00  0.10566000000E+00 0.  1.
     999900   -1    0    0    0    0 -0.00000000000E+00 -0.00000000000E+00 -0.74505805969E-08  0.93827000000E+00  0.93827000000E+00 0. -1.
     999902    2    1    2    0    0  0.20587789940E-01 -0.12905078590E-02 -0.90283753050E-02  0.10214125831E+01  0.10211643505E+01 0.  0.
     999903    2    3    3    0    0 -0.62075447293E-01  0.10567224959E+00 -0.40720690683E-01  0.13052614522E+00  0.18945037488E-01 0.  0.
         14    1    1    2    0    0 -0.20587789940E-01  0.12905078590E-02  0.90283753050E-02  0.22517416943E-01  0.00000000000E+00 0. -1.
     999901    1    3    3    0    0  0.82663237233E-01 -0.10696275745E+00  0.31692315378E-01  0.89088643784E+00  0.88000000000E+00 0. -1.
        -11    1    4    4    0    0 -0.10357207493E-01  0.12572863019E-01  0.55279163634E-03  0.16306910533E-01  0.51100000000E-03 0.  1.
         11    1    4    4    0    0 -0.51718239800E-01  0.93099386573E-01 -0.41273482320E-01  0.11421923469E+00  0.51100000000E-03 0. -1.
</event>
<event>
 8    1  0.1161093E+005  0.1043930E+01  0.7957747E-01            NaN
         13   -1    0    0    0    0  0.00000000000E+00  0.00000000000E+00  0.74505805969E-08  0.10566000000E+00  0.10566000000E+00 0. -1.
     999900   -1    0    0    0    0 -0.00000000000E+00 -0.00000000000E+00 -0.74505805969E-08  0.93827000000E+00  0.93827000000E+00 0.  1.
     999902    2    1    2    0    0  0.47726005185E-02  0.22307183498E-01  0.84479181472E-02  0.10196039754E+01  0.10193137452E+01 0.  0.
     999903    2    3    3    0    0 -0.37396673344E-03 -0.37791904546E-01 -0.12076611337E+00  0.12812506176E+00  0.20080075010E-01 0.  0.
         14    1    1    2    0    0 -0.47726005185E-02 -0.22307183498E-01 -0.84479181472E-02  0.24326024590E-01  0.00000000000E+00 0.  1.
     999901    1    3    3    0    0  0.51465672519E-02  0.60099088044E-01  0.12921403152E+00  0.89147891365E+00  0.88000000000E+00 0. -1.
        -11    1    4    4    0    0  0.92930167334E-03 -0.15752553177E-01 -0.82034476010E-01  0.83539947980E-01  0.51100000000E-03 0. -1.
         11    1    4    4    0    0 -0.13032684068E-02 -0.22039351369E-01 -0.38731637361E-01  0.44585113782E-01  0.51100000000E-03 0.  1.
</event>
<event>
 8    1  0.1161093E+005  0.1043930E+01  0.7957747E-01            NaN
         13   -1    0    0    0    0  0.00000000000E+00  0.00000000000E+00  0.74505805969E-08  0.10566000000E+00  0.10566000000E+00 0. -1.
     999900   -1    0    0    0    0 -0.00000000000E+00 -0.00000000000E+00 -0.74505805969E-08  0.93827000000E+00  0.93827000000E+00 0.  1.
     999902    2    1    2    0    0 -0.19503301469E-01  0.10015477366E-03  0.12372830224E-01  0.10208329065E+01  0.10205715787E+01 0.  0.
     999903    2    3    3    0    0  0.87243480662E-01 -0.74991674042E-01  0.57186811168E-01  0.13007932043E+00  0.20374546359E-01 0.  0.
         14    1    1    2    0    0  0.19503301469E-01 -0.10015477366E-03 -0.12372830224E-01  0.23097093473E-01  0.00000000000E+00 0. -1.
     999901    1    3    3    0    0 -0.10674678213E+00  0.75091828816E-01 -0.44813980945E-01  0.89075358609E+00  0.88000000000E+00 0.  1.
        -11    1    4    4    0    0  0.26087677972E-01 -0.13091681237E-01  0.20355507181E-01  0.35588858554E-01  0.51100000000E-03 0. -1.
         11    1    4    4    0    0  0.61155802690E-01 -0.61899992805E-01  0.36831303988E-01  0.94490461880E-01  0.51100000000E-03 0.  1.
</event>
<event>
 8    1  0.1161093E+005  0.1043930E+01  0.7957747E-01            NaN
         13   -1    0    0    0    0  0.00000000000E+00  0.00000000000E+00  0.74505805969E-08  0.10566000000E+00  0.10566000000E+00 0.  1.
     999900   -1    0    0    0    0 -0.00000000000E+00 -0.00000000000E+00 -0.74505805969E-08  0.93827000000E+00  0.93827000000E+00 0.  1.
     999902    2    1    2    0    0  0.10934994072E-01 -0.20862512864E-01  0.34429245719E-02  0.10201251209E+01  0.10198473366E+01 0.  0.
     999903    2    3    3    0    0  0.64111063725E-01 -0.80947083466E-01 -0.80519580327E-01  0.13249481937E+00  0.20219187162E-01 0.  0.
         14    1    1    2    0    0 -0.10934994072E-01  0.20862512864E-01 -0.34429245719E-02  0.23804879079E-01  0.00000000000E+00 0. -1.
     999901    1    3    3    0    0 -0.53176069652E-01  0.60084570603E-01  0.83962504898E-01  0.88763030155E+00  0.88000000000E+00 0. -1.
        -11    1    4    4    0    0  0.41147054572E-01 -0.37726434637E-01 -0.36780155754E-01  0.66853608344E-01  0.51100000000E-03 0. -1.
         11    1    4    4    0    0  0.22964009153E-01 -0.43220648830E-01 -0.43739424572E-01  0.65641211023E-01  0.51100000000E-03 0.  1.
</event>
<event>
 8    1  0.1161093E+005  0.1043930E+01  0.7957747E-01            NaN
         13   -1    0    0    0    0  0.00000000000E+00  0.00000000000E+00  0.74505805969E-08  0.10566000000E+00  0.10566000000E+00 0. -1.
     999900   -1    0    0    0    0 -0.00000000000E+00 -0.00000000000E+00 -0.74505805969E-08  0.93827000000E+00  0.93827000000E+00 0.  1.
     999902    2    1    2    0    0  0.22179862970E-01 -0.90169624870E-02  0.13950303788E-02  0.10199467132E+01  0.10196646997E+01 0.  0.
     999903    2    3    3    0    0  0.79695119035E-01  0.42296143589E-01 -0.93535042087E-01  0.13149144808E+00  0.20023013257E-01 0.  0.
         14    1    1    2    0    0 -0.22179862970E-01  0.90169624870E-02 -0.13950303788E-02  0.23983286756E-01  0.00000000000E+00 0. -1.
     999901    1    3    3    0    0 -0.57515256065E-01 -0.51313106076E-01  0.94930072466E-01  0.88845526516E+00  0.88000000000E+00 0. -1.
        -11    1    4    4    0    0  0.27293642295E-01  0.14974601237E-01 -0.19408739528E-01  0.36689806255E-01  0.51100000000E-03 0.  1.
         11    1    4    4    0    0  0.52401476740E-01  0.27321542352E-01 -0.74126302560E-01  0.94801641828E-01  0.51100000000E-03 0. -1.
</event>
<event>
 8    1  0.1161093E+005  0.1043930E+01  0.7957747E-01            NaN
         13   -1    0    0    0    0  0.00000000000E+00  0.00000000000E+00  0.74505805969E-08  0.10566000000E+00  0.10566000000E+00 0. -1.
     999900   -1    0    0    0    0 -0.00000000000E+00 -0.00000000000E+00 -0.74505805969E-08  0.93827000000E+00  0.93827000000E+00 0. -1.
     999902    2    1    2    0    0 -0.10654727569E-01 -0.29094860668E-01 -0.85846633236E-02  0.10117783192E+01  0.10112673418E+01 0.  0.
     999903    2    3    3    0    0 -0.44333722781E-01 -0.95513342407E-01 -0.69025430397E-01  0.12656717160E+00  0.12901989422E-01 0.  0.
         14    1    1    2    0    0  0.10654727569E-01  0.29094860668E-01  0.85846633236E-02  0.32151680846E-01  0.00000000000E+00 0. -1.
     999901    1    3    3    0    0  0.33678995213E-01  0.66418481739E-01  0.60440767074E-01  0.88521114756E+00  0.88000000000E+00 0.  1.
        -11    1    4    4    0    0 -0.28467853550E-01 -0.74354332377E-01 -0.50817425985E-01  0.94454525216E-01  0.51100000000E-03 0. -1.
         11    1    4    4    0    0 -0.15865869231E-01 -0.21159010030E-01 -0.18208004412E-01  0.32112646381E-01  0.51100000000E-03 0.  1.
</event>
<event>
 8    1  0.1161093E+005  0.1043930E+01  0.7957747E-01            NaN
         13   -1    0    0    0    0  0.00000000000E+00  0.00000000000E+00  0.74505805969E-08  0.10566000000E+00  0.10566000000E+00 0.  1.
     999900   -1    0    0    0    0 -0.00000000000E+00 -0.00000000000E+00 -0.74505805969E-08  0.93827000000E+00  0.93827000000E+00 0. -1.
     999902    2    1    2    0    0  0.40828412565E-02 -0.11920724039E-01 -0.16237718861E-01  0.10233767334E+01  0.10231703190E+01 0.  0.
     999903    2    3    3    0    0  0.11499316586E+00  0.62815816157E-01 -0.16042808089E-01  0.13327185837E+00  0.18296491140E-01 0.  0.
         14    1    1    2    0    0 -0.40828412565E-02  0.11920724039E-01  0.16237718861E-01  0.20553266605E-01  0.00000000000E+00 0.  1.
     999901    1    3    3    0    0 -0.11091032461E+00 -0.74736540195E-01 -0.19491077220E-03  0.89010487502E+00  0.88000000000E+00 0.  1.
        -11    1    4    4    0    0  0.86727056734E-01  0.53881938498E-01 -0.73146806416E-02  0.10236508848E+00  0.51100000000E-03 0.  1.
         11    1    4    4    0    0  0.28266109131E-01  0.89338776584E-02 -0.87281274474E-02  0.30906769892E-01  0.51100000000E-03 0. -1.
</event>
<event>
 8    1  0.1161093E+005  0.1043930E+01  0.7957747E-01            NaN
         13   -1    0    0    0    0  0.00000000000E+00  0.00000000000E+00  0.74505805969E-08  0.10566000000E+00  0.10566000000E+00 0.  1.
     999900   -1    0    0    0    0 -0.00000000000E+00 -0.00000000000E+00 -0.74505805969E-08  0.93827000000E+00  0.93827000000E+00 0. -1.
     999902    2    1    2    0    0  0.66837452960E-02 -0.16830960517E-01 -0.14833265890E-01  0.10205210389E+01  0.10202525233E+01 0.  0.
     999903    2    3    3    0    0 -0.87053314788E-02  0.72571567410E-01  0.10314015621E+00  0.12802601706E+00  0.20257196944E-01 0.  0.
         14    1    1    2    0    0 -0.66837452960E-02  0.16830960517E-01  0.14833265890E-01  0.23408961106E-01  0.00000000000E+00 0. -1.
     999901    1    3    3    0    0  0.15389076775E-01 -0.89402527927E-01 -0.11797342210E+00  0.89249502184E+00  0.88000000000E+00 0. -1.
        -11    1    4    4    0    0 -0.10585636329E-01  0.15702226469E-01  0.25616664996E-01  0.31860481150E-01  0.51100000000E-03 0. -1.
         11    1    4    4    0    0  0.18803048501E-02  0.56869340940E-01  0.77523491212E-01  0.96165535906E-01  0.51100000000E-03 0.  1.
</event>
<event>
 8    1  0.1161093E+005  0.1043930E+01  0.7957747E-01            NaN
         13   -1    0    0    0    0  0.00000000000E+00  0.00000000000E+00  0.74505805969E-08  0.10566000000E+00  0.10566000000E+00 0. -1.
     999900   -1    0    0    0    0 -0.00000000000E+00 -0.00000000000E+00 -0.74505805969E-08  0.93827000000E+00  0.93827000000E+00 0. -1.
     999902    2    1    2    0    0 -0.68783713756E-02 -0.18864710311E-02 -0.22902066959E-01  0.10199430153E+01  0.10196609137E+01 0.  0.
     999903    2    3    3    0    0 -0.26165073141E-01 -0.52675950733E-01 -0.11791676346E+00  0.13316269260E+00  0.19198248779E-01 0.  0.
         14    1    1    2    0    0  0.68783713756E-02  0.18864710311E-02  0.22902066959E-01  0.23986984736E-01  0.00000000000E+00 0. -1.
     999901    1    3    3    0    0  0.19286701765E-01  0.50789479702E-01  0.95014696506E-01  0.88678032266E+00  0.88000000000E+00 0.  1.
        -11    1    4    4    0    0 -0.39523252803E-02 -0.43594517759E-02 -0.28674777850E-01  0.29276777498E-01  0.51100000000E-03 0. -1.
         11    1    4    4    0    0 -0.22212747861E-01 -0.48316498958E-01 -0.89241985614E-01  0.10388591510E+00  0.51100000000E-03 0.  1.
</event>
<event>
 8    1  0.1168491E+005  0.1043930E+01  0.7957747E-01            NaN
         13   -1    0    0    0    0  0.00000000000E+00  0.00000000000E+00  0.74505805969E-08  0.10566000000E+00  0.10566000000E+00 0. -1.
     999900   -1    0    0    0    0 -0.00000000000E+00 -0.00000000000E+00 -0.74505805969E-08  0.93827000000E+00  0.93827000000E+00 0.  1.
     999902    2    1    2    0    0 -0.57626872317E-03  0.35822439940E-02  0.23171580355E-01  0.10204760730E+01  0.10202065128E+01 0.  0.
     999903    2    3    3    0    0 -0.11383662662E+00  0.57856599992E-01  0.24761841315E-01  0.13155754839E+00  0.19699645434E-01 0.  0.
         14    1    1    2    0    0  0.57626872317E-03 -0.35822439940E-02 -0.23171580355E-01  0.23453927045E-01  0.00000000000E+00 0.  1.
     999901    1    3    3    0    0  0.11326035789E+00 -0.54274355998E-01 -0.15902609600E-02  0.88891852457E+00  0.88000000000E+00 0.  1.
        -11    1    4    4    0    0 -0.63223172099E-01  0.42194397248E-01  0.10890573365E-01  0.76788035256E-01  0.51100000000E-03 0. -1.
         11    1    4    4    0    0 -0.50613454518E-01  0.15662202745E-01  0.13871267950E-01  0.54769513131E-01  0.51100000000E-03 0.  1.
</event>
<event>
 8    1  0.1161093E+005  0.1043930E+01  0.7957747E-01            NaN
         13   -1    0    0    0    0  0.00000000000E+00  0.00000000000E+00  0.74505805969E-08  0.10566000000E+00  0.10566000000E+00 0. -1.
     999900   -1    0    0    0    0 -0.00000000000E+00 -0.00000000000E+00 -0.74505805969E-08  0.93827000000E+00  0.93827000000E+00 0. -1.
     999902    2    1    2    0    0  0.23633109052E-01 -0.48151072672E-02  0.25248750702E-02  0.10196795547E+01  0.10193911468E+01 0.  0.
     999903    2    3    3    0    0 -0.18850609039E-01 -0.10323641969E+00 -0.73709744622E-01  0.12990242630E+00  0.20698069837E-01 0.  0.
         14    1    1    2    0    0 -0.23633109052E-01  0.48151072672E-02 -0.25248750702E-02  0.24250445266E-01  0.00000000000E+00 0.  1.
     999901    1    3    3    0    0  0.42483718091E-01  0.98421312424E-01  0.76234619692E-01  0.88977712843E+00  0.88000000000E+00 0.  1.
        -11    1    4    4    0    0 -0.15015193209E-01 -0.61140123043E-01 -0.55288777275E-01  0.83789502245E-01  0.51100000000E-03 0.  1.
         11    1    4    4    0    0 -0.38354158294E-02 -0.42096296648E-01 -0.18420967347E-01  0.46112924056E-01  0.51100000000E-03 0. -1.
</event>
<event>
 8    1  0.1161093E+005  0.1043930E+01  0.7957747E-01            NaN
         13   -1    0    0    0    0  0.00000000000E+00  0.00000000000E+00  0.74505805969E-08  0.10566000000E+00  0.10566000000E+00 0.  1.
     999900   -1    0    0    0    0 -0.00000000000E+00 -0.00000000000E+00 -0.74505805969E-08  0.93827000000E+00  0.93827000000E+00 0.  1.
     999902    2    1    2    0    0  0.22711747897E-01  0.65717236070E-02  0.40601510452E-02  0.10199405050E+01  0.10196583437E+01 0.  0.
     999903    2    3    3    0    0 -0.95582104364E-01 -0.19347469812E-02 -0.82497352333E-01  0.12777572375E+00  0.19522820398E-01 0.  0.
         14    1    1    2    0    0 -0.22711747897E-01 -0.65717236070E-02 -0.40601510452E-02  0.23989494997E-01  0.00000000000E+00 0. -1.
     999901    1    3    3    0    0  0.11829385226E+00  0.85064705882E-02  0.86557503378E-01  0.89216478126E+00  0.88000000000E+00 0. -1.
        -11    1    4    4    0    0 -0.92250831089E-01 -0.78500980016E-03 -0.73035447592E-01  0.11766592456E+00  0.51100000000E-03 0.  1.
         11    1    4    4    0    0 -0.33312732754E-02 -0.11497371810E-02 -0.94619047411E-02  0.10109799184E-01  0.51100000000E-03 0. -1.
</event>
<event>
 8    1  0.1161093E+005  0.1043930E+01  0.7957747E-01            NaN
         13   -1    0    0    0    0  0.00000000000E+00  0.00000000000E+00  0.74505805969E-08  0.10566000000E+00  0.10566000000E+00 0. -1.
     999900   -1    0    0    0    0 -0.00000000000E+00 -0.00000000000E+00 -0.74505805969E-08  0.93827000000E+00  0.93827000000E+00 0.  1.
     999902    2    1    2    0    0  0.21050901763E-01 -0.58964553502E-02  0.28538389323E-02  0.10218833892E+01  0.10216455394E+01 0.  0.
     999903    2    3    3    0    0 -0.11548700106E+00 -0.34405189482E-01  0.43849546652E-01  0.12995514384E+00  0.21085354915E-01 0.  0.
         14    1    1    2    0    0 -0.21050901763E-01  0.58964553502E-02 -0.28538389323E-02  0.22046610791E-01  0.00000000000E+00 0. -1.
     999901    1    3    3    0    0  0.13653790283E+00  0.28508734132E-01 -0.40995707719E-01  0.89192824537E+00  0.88000000000E+00 0.  1.
        -11    1    4    4    0    0 -0.79087969797E-01 -0.32340726105E-01  0.35639487780E-01  0.92581119791E-01  0.51100000000E-03 0.  1.
         11    1    4    4    0    0 -0.36399031266E-01 -0.20644633772E-02  0.82100588713E-02  0.37374024052E-01  0.51100000000E-03 0. -1.
</event>
<event>
 8    1  0.1161093E+005  0.1043930E+01  0.7957747E-01            NaN
         13   -1    0    0    0    0  0.00000000000E+00  0.00000000000E+00  0.74505805969E-08  0.10566000000E+00  0.10566000000E+00 0.  1.
     999900   -1    0    0    0    0 -0.00000000000E+00 -0.00000000000E+00 -0.74505805969E-08  0.93827000000E+00  0.93827000000E+00 0. -1.
     999902    2    1    2    0    0 -0.11252721770E-01 -0.19169202737E-01  0.81808858802E-02  0.10202443720E+01  0.10199693964E+01 0.  0.
     999903    2    3    3    0    0 -0.12846283604E-01 -0.73304826486E-03  0.12964790266E+00  0.13170812208E+00  0.19310266547E-01 0.  0.
         14    1    1    2    0    0  0.11252721770E-01  0.19169202737E-01 -0.81808858802E-02  0.23685628018E-01  0.00000000000E+00 0. -1.
     999901    1    3    3    0    0  0.15935618333E-02 -0.18436154472E-01 -0.12146701678E+00  0.88853624991E+00  0.88000000000E+00 0. -1.
        -11    1    4    4    0    0  0.22700662296E-02  0.38951471273E-03  0.73793010071E-01  0.73830714332E-01  0.51100000000E-03 0.  1.
         11    1    4    4    0    0 -0.15116349833E-01 -0.11225629776E-02  0.55854892591E-01  0.57877407745E-01  0.51100000000E-03 0. -1.
</event>
<event>
 8    1  0.1161093E+005  0.1043930E+01  0.7957747E-01            NaN
         13   -1    0    0    0    0  0.00000000000E+00  0.00000000000E+00  0.74505805969E-08  0.10566000000E+00  0.10566000000E+00 0.  1.
     999900   -1    0    0    0    0 -0.00000000000E+00 -0.00000000000E+00 -0.74505805969E-08  0.93827000000E+00  0.93827000000E+00 0. -1.
     999902    2    1    2    0    0  0.15269167225E-01 -0.15068090618E-01 -0.86846807405E-02  0.10207865668E+01  0.10205241773E+01 0.  0.
     999903    2    3    3    0    0  0.12762400187E+00 -0.23163862884E-01  0.22084388475E-01  0.13307271308E+00  0.19904179332E-01 0.  0.
         14    1    1    2    0    0 -0.15269167225E-01  0.15068090618E-01  0.86846807405E-02  0.23143433241E-01  0.00000000000E+00 0.  1.
     999901    1    3    3    0    0 -0.11235483464E+00  0.80957722655E-02 -0.30769069215E-01  0.88771385368E+00  0.88000000000E+00 0. -1.
        -11    1    4    4    0    0  0.81983297411E-01 -0.57570487348E-02  0.17309661016E-01  0.83989821705E-01  0.51100000000E-03 0. -1.
         11    1    4    4    0    0  0.45640704458E-01 -0.17406814149E-01  0.47747274589E-02  0.49082891373E-01  0.51100000000E-03 0.  1.
</event>
<event>
 8    1  0.1161093E+005  0.1043930E+01  0.7957747E-01            NaN
         13   -1    0    0    0    0  0.00000000000E+00  0.00000000000E+00  0.74505805969E-08  0.10566000000E+00  0.10566000000E+00 0. -1.
     999900   -1    0    0    0    0 -0.00000000000E+00 -0.00000000000E+00 -0.74505805969E-08  0.93827000000E+00  0.93827000000E+00 0.  1.
     999902    2    1    2    0    0  0.86103808622E-02  0.16856839954E-01 -0.11430681729E-01  0.10218177365E+01  0.10215784524E+01 0.  0.
     999903    2    3    3    0    0  0.81510094072E-01  0.98966610969E-01 -0.36048530117E-01  0.13465235106E+00  0.19836168987E-01 0.  0.
         14    1    1    2    0    0 -0.86103808622E-02 -0.16856839954E-01  0.11430681729E-01  0.22112263489E-01  0.00000000000E+00 0.  1.
     999901    1    3    3    0    0 -0.72899713210E-01 -0.82109771015E-01  0.24617848387E-01  0.88716538545E+00  0.88000000000E+00 0.  1.
        -11    1    4    4    0    0  0.57445851379E-01  0.62197414698E-01 -0.32020331108E-01  0.90521306669E-01  0.51100000000E-03 0.  1.
         11    1    4    4    0    0  0.24064242694E-01  0.36769196271E-01 -0.40281990089E-02  0.44131044391E-01  0.51100000000E-03 0. -1.
</event>
<event>
 8    1  0.1161093E+005  0.1043930E+01  0.7957747E-01            NaN
         13   -1    0    0    0    0  0.00000000000E+00  0.00000000000E+00  0.74505805969E-08  0.10566000000E+00  0.10566000000E+00 0.  1.
     999900   -1    0    0    0    0 -0.00000000000E+00 -0.00000000000E+00 -0.74505805969E-08  0.93827000000E+00  0.93827000000E+00 0.  1.
     999902    2    1    2    0    0 -0.25539228107E-01 -0.32043833233E-02  0.21635172292E-02  0.10180997648E+01  0.10177720423E+01 0.  0.
     999903    2    3    3    0    0  0.11487186213E+00 -0.30713740920E-01  0.36165251778E-01  0.12589566427E+00  0.20072724134E-01 0.  0.
         14    1    1    2    0    0  0.25539228107E-01  0.32043833233E-02 -0.21635172292E-02  0.25830235221E-01  0.00000000000E+00 0. -1.
     999901    1    3    3    0    0 -0.14041109024E+00  0.27509357597E-01 -0.34001734549E-01  0.89220410051E+00  0.88000000000E+00 0.  1.
        -11    1    4    4    0    0  0.45837919208E-01 -0.47413162138E-02  0.71621421866E-02  0.46638528262E-01  0.51100000000E-03 0.  1.
         11    1    4    4    0    0  0.69033942924E-01 -0.25972424706E-01  0.29003109592E-01  0.79257136005E-01  0.51100000000E-03 0. -1.
</event>
<event>
 8    1  0.1161093E+005  0.1043930E+01  0.7957747E-01            NaN
         13   -1    0    0    0    0  0.00000000000E+00  0.00000000000E+00  0.74505805969E-08  0.10566000000E+00  0.10566000000E+00 0.  1.
     999900   -1    0    0    0    0 -0.00000000000E+00 -0.00000000000E+00 -0.74505805969E-08  0.93827000000E+00  0.93827000000E+00 0.  1.
     999902    2    1    2    0    0  0.21571437266E-01 -0.11513372818E-02  0.91321593179E-02  0.10204768804E+01  0.10202073391E+01 0.  0.
     999903    2    3    3    0    0  0.61425120889E-01 -0.78883940021E-01 -0.82909701972E-01  0.13137487400E+00  0.19738727618E-01 0.  0.
         14    1    1    2    0    0 -0.21571437266E-01  0.11513372818E-02 -0.91321593179E-02  0.23453119559E-01  0.00000000000E+00 0. -1.
     999901    1    3    3    0    0 -0.39853683623E-01  0.77732602739E-01  0.92041861290E-01  0.88910200644E+00  0.88000000000E+00 0. -1.
        -11    1    4    4    0    0  0.18986280612E-01 -0.40260059185E-01 -0.35431227795E-01  0.56894500974E-01  0.51100000000E-03 0. -1.
         11    1    4    4    0    0  0.42438840276E-01 -0.38623880836E-01 -0.47478474177E-01  0.74480373026E-01  0.51100000000E-03 0.  1.
</event>
<event>
 8    1  0.1161093E+005  0.1043930E+01  0.7957747E-01            NaN
         13   -1    0    0    0    0  0.00000000000E+00  0.00000000000E+00  0.74505805969E-08  0.10566000000E+00  0.10566000000E+00 0.  1.
     999900   -1    0    0    0    0 -0.00000000000E+00 -0.00000000000E+00 -0.74505805969E-08  0.93827000000E+00  0.93827000000E+00 0.  1.
     999902    2    1    2    0    0  0.68771340137E-02 -0.18456124124E-01  0.14043693953E-01  0.10197401503E+01  0.10194531991E+01 0.  0.
     999903    2    3    3    0    0  0.14746004862E-01  0.14642239645E-01  0.12846918767E+00  0.13168012166E+00  0.20086871774E-01 0.  0.
         14    1    1    2    0    0 -0.68771340137E-02  0.18456124124E-01 -0.14043693953E-01  0.24189849726E-01  0.00000000000E+00 0. -1.
     999901    1    3    3    0    0 -0.78688708486E-02 -0.33098363769E-01 -0.11442549372E+00  0.88806002862E+00  0.88000000000E+00 0.  1.
        -11    1    4    4    0    0  0.12581154319E-01  0.44200763059E-02  0.10666106695E+00  0.10749263622E+00  0.51100000000E-03 0. -1.
         11    1    4    4    0    0  0.21648505431E-02  0.10222163339E-01  0.21808120723E-01  0.24187485435E-01  0.51100000000E-03 0.  1.
</event>
<event>
 8    1  0.1161093E+005  0.1043930E+01  0.7957747E-01            NaN
         13   -1    0    0    0    0  0.00000000000E+00  0.00000000000E+00  0.74505805969E-08  0.10566000000E+00  0.10566000000E+00 0. -1.
     999900   -1    0    0    0    0 -0.00000000000E+00 -0.00000000000E+00 -0.74505805969E-08  0.93827000000E+00  0.93827000000E+00 0.  1.
     999902    2    1    2    0    0 -0.23932719872E-01  0.12601267231E-01 -0.11164185247E-01  0.10146690012E+01  0.10142469995E+01 0.  0.
     999903    2    3    3    0    0  0.67819817237E-01 -0.68746975248E-01 -0.75086453723E-01  0.12387041512E+00  0.19499487017E-01 0.  0.
         14    1    1    2    0    0  0.23932719872E-01 -0.12601267231E-01  0.11164185247E-01  0.29260998762E-01  0.00000000000E+00 0. -1.
     999901    1    3    3    0    0 -0.91752537109E-01  0.81348242479E-01  0.63922268476E-01  0.89079858612E+00  0.88000000000E+00 0.  1.
        -11    1    4    4    0    0  0.57559090636E-01 -0.55266510548E-01 -0.70067612996E-01  0.10619400932E+00  0.51100000000E-03 0. -1.
         11    1    4    4    0    0  0.10260726601E-01 -0.13480464700E-01 -0.50188407273E-02  0.17676405804E-01  0.51100000000E-03 0.  1.
</event>
<event>
 8    1  0.1161093E+005  0.1043930E+01  0.7957747E-01            NaN
         13   -1    0    0    0    0  0.00000000000E+00  0.00000000000E+00  0.74505805969E-08  0.10566000000E+00  0.10566000000E+00 0. -1.
     999900   -1    0    0    0    0 -0.00000000000E+00 -0.00000000000E+00 -0.74505805969E-08  0.93827000000E+00  0.93827000000E+00 0.  1.
     999902    2    1    2    0    0 -0.11303317289E-01 -0.56414920263E-02  0.21122185664E-01  0.10193182520E+01  0.10190210796E+01 0.  0.
     999903    2    3    3    0    0  0.47837103448E-01  0.11194768042E+00  0.38671935032E-01  0.12935600752E+00  0.20415349691E-01 0.  0.
         14    1    1    2    0    0  0.11303317289E-01  0.56414920263E-02 -0.21122185664E-01  0.24611748033E-01  0.00000000000E+00 0.  1.
     999901    1    3    3    0    0 -0.59140420737E-01 -0.11758917245E+00 -0.17549749367E-01  0.88996224445E+00  0.88000000000E+00 0. -1.
        -11    1    4    4    0    0  0.48520191667E-01  0.10375946915E+00  0.32497934774E-01  0.11906558413E+00  0.51100000000E-03 0. -1.
         11    1    4    4    0    0 -0.68308821933E-03  0.81882112748E-02  0.61740002574E-02  0.10290423391E-01  0.51100000000E-03 0.  1.
</event>
<event>
 8    1  0.1161093E+005  0.1043930E+01  0.7957747E-01            NaN
         13   -1    0    0    0    0  0.00000000000E+00  0.00000000000E+00  0.74505805969E-08  0.10566000000E+00  0.10566000000E+00 0. -1.
     999900   -1    0    0    0    0 -0.00000000000E+00 -0.00000000000E+00 -0.74505805969E-08  0.93827000000E+00  0.93827000000E+00 0.  1.
     999902    2    1    2    0    0  0.16568654807E-01 -0.10560043750E-01 -0.10376803677E-01  0.10217103488E+01  0.10214687092E+01 0.  0.
     999903    2    3    3    0    0 -0.10991778504E+00  0.62043269992E-01  0.37226473404E-02  0.12959552704E+00  0.29152284780E-01 0.  0.
         14    1    1    2    0    0 -0.16568654807E-01  0.10560043750E-01  0.10376803677E-01  0.22219651227E-01  0.00000000000E+00 0. -1.
     999901    1    3    3    0    0  0.12648643984E+00 -0.72603313741E-01 -0.14099451018E-01  0.89211482173E+00  0.88000000000E+00 0.  1.
        -11    1    4    4    0    0 -0.72373006865E-01  0.41869561871E-01 -0.11359522071E-01  0.84381349815E-01  0.51100000000E-03 0.  1.
         11    1    4    4    0    0 -0.37544778171E-01  0.20173708121E-01  0.15082169412E-01  0.45214177228E-01  0.51100000000E-03 0. -1.
</event>
<event>
 8    1  0.1161093E+005  0.1043930E+01  0.7957747E-01            NaN
         13   -1    0    0    0    0  0.00000000000E+00  0.00000000000E+00  0.74505805969E-08  0.10566000000E+00  0.10566000000E+00 0.  1.
     999900   -1    0    0    0    0 -0.00000000000E+00 -0.00000000000E+00 -0.74505805969E-08  0.93827000000E+00  0.93827000000E+00 0.  1.
     999902    2    1    2    0    0  0.20734384641E-01 -0.68715790478E-02  0.75948033813E-02  0.10208039467E+01  0.10205419556E+01 0.  0.
     999903    2    3    3    0    0  0.48787439942E-01  0.10630901577E+00  0.57767613606E-01  0.13169533020E+00  0.18020590617E-01 0.  0.
         14    1    1    2    0    0 -0.20734384641E-01  0.68715790478E-02 -0.75948033813E-02  0.23126053348E-01  0.00000000000E+00 0.  1.
     999901    1    3    3    0    0 -0.28053055301E-01 -0.11318059482E+00 -0.50172810225E-01  0.88910861645E+00  0.88000000000E+00 0.  1.
        -11    1    4    4    0    0  0.32767112415E-01  0.54488462145E-01  0.24992587213E-01  0.68319592355E-01  0.51100000000E-03 0.  1.
         11    1    4    4    0    0  0.16020327527E-01  0.51820553624E-01  0.32775026393E-01  0.63375737850E-01  0.51100000000E-03 0. -1.
</event>
<event>
 8    1  0.1161093E+005  0.1043930E+01  0.7957747E-01            NaN
         13   -1    0    0    0    0  0.00000000000E+00  0.00000000000E+00  0.74505805969E-08  0.10566000000E+00  0.10566000000E+00 0.  1.
     999900   -1    0    0    0    0 -0.00000000000E+00 -0.00000000000E+00 -0.74505805969E-08  0.93827000000E+00  0.93827000000E+00 0.  1.
     999902    2    1    2    0    0  0.62721741489E-02 -0.75551053260E-02  0.21869340930E-01  0.10199573519E+01  0.10196755915E+01 0.  0.
     999903    2    3    3    0    0  0.34881198212E-01 -0.72777672339E-01  0.10439774317E+00  0.13323112768E+00  0.18394483573E-01 0.  0.
         14    1    1    2    0    0 -0.62721741489E-02  0.75551053260E-02 -0.21869340930E-01  0.23972648118E-01  0.00000000000E+00 0. -1.
     999901    1    3    3    0    0 -0.28609024063E-01  0.65222567013E-01 -0.82528402236E-01  0.88672622420E+00  0.88000000000E+00 0.  1.
        -11    1    4    4    0    0  0.90001282450E-02 -0.24702583724E-01  0.48010497496E-01  0.54740194939E-01  0.51100000000E-03 0. -1.
         11    1    4    4    0    0  0.25881069967E-01 -0.48075088615E-01  0.56387245670E-01  0.78490932745E-01  0.51100000000E-03 0.  1.
</event>
<event>
 8    1  0.1161093E+005  0.1043930E+01  0.7957747E-01            NaN
         13   -1    0    0    0    0  0.00000000000E+00  0.00000000000E+00  0.74505805969E-08  0.10566000000E+00  0.10566000000E+00 0.  1.
     999900   -1    0    0    0    0 -0.00000000000E+00 -0.00000000000E+00 -0.74505805969E-08  0.93827000000E+00  0.93827000000E+00 0. -1.
     999902    2    1    2    0    0 -0.19898440741E-01 -0.82065630081E-02  0.10465597330E-01  0.10199962509E+01  0.10197154149E+01 0.  0.
     999903    2    3    3    0    0 -0.11109814087E+00 -0.21601740854E-01  0.67681610216E-01  0.13333369486E+00  0.19688618803E-01 0.  0.
         14    1    1    2    0    0  0.19898440741E-01  0.82065630081E-02 -0.10465597330E-01  0.23933749138E-01  0.00000000000E+00 0. -1.
     999901    1    3    3    0    0  0.91199700126E-01  0.13395177846E-01 -0.57216012886E-01  0.88666255601E+00  0.88000000000E+00 0. -1.
        -11    1    4    4    0    0 -0.66425695110E-01 -0.20775530590E-01  0.34528951778E-01  0.77694950120E-01  0.51100000000E-03 0.  1.
         11    1    4    4    0    0 -0.44672445756E-01 -0.82621026398E-03  0.33152658439E-01  0.55638744736E-01  0.51100000000E-03 0. -1.
</event>
<event>
 8    1  0.1161093E+005  0.1043930E+01  0.7957747E-01            NaN
         13   -1    0    0    0    0  0.00000000000E+00  0.00000000000E+00  0.74505805969E-08  0.10566000000E+00  0.10566000000E+00 0.  1.
     999900   -1    0    0    0    0 -0.00000000000E+00 -0.00000000000E+00 -0.74505805969E-08  0.93827000000E+00  0.93827000000E+00 0. -1.
     999902    2    1    2    0    0 -0.55908044603E-02  0.22064475787E-01 -0.76956846175E-02  0.10199024794E+01  0.10196194122E+01 0.  0.
     999903    2    3    3    0    0 -0.97527765580E-01 -0.12444339886E-01 -0.84396010280E-01  0.13112455258E+00  0.20110571447E-01 0.  0.
         14    1    1    2    0    0  0.55908044603E-02 -0.22064475787E-01  0.76956846175E-02  0.24027520638E-01  0.00000000000E+00 0.  1.
     999901    1    3    3    0    0  0.91936961119E-01  0.34508815673E-01  0.76700325663E-01  0.88877792678E+00  0.88000000000E+00 0.  1.
        -11    1    4    4    0    0 -0.41118716512E-01  0.46598607780E-02 -0.33472144654E-01  0.53226955002E-01  0.51100000000E-03 0.  1.
         11    1    4    4    0    0 -0.56409049068E-01 -0.17104200664E-01 -0.50923865626E-01  0.77897597578E-01  0.51100000000E-03 0. -1.
</event>
<event>
 8    1  0.1161093E+005  0.1043930E+01  0.7957747E-01            NaN
         13   -1    0    0    0    0  0.00000000000E+00  0.00000000000E+00  0.74505805969E-08  0.10566000000E+00  0.10566000000E+00 0. -1.
     999900   -1    0    0    0    0 -0.00000000000E+00 -0.00000000000E+00 -0.74505805969E-08  0.93827000000E+00  0.93827000000E+00 0. -1.
     999902    2    1    2    0    0 -0.20662797690E-01 -0.11631108670E-01  0.57753093408E-02  0.10195253264E+01  0.10192331936E+01 0.  0.
     999903    2    3    3    0    0 -0.12570940544E+00  0.28753859514E-01  0.20882689827E-01  0.13222945215E+00  0.20467101122E-01 0.  0.
         14    1    1    2    0    0  0.20662797690E-01  0.11631108670E-01 -0.57753093408E-02  0.24404673635E-01  0.00000000000E+00 0. -1.
     999901    1    3    3    0    0  0.10504660775E+00 -0.40384968184E-01 -0.15107380486E-01  0.88729587422E+00  0.88000000000E+00 0. -1.
        -11    1    4    4    0    0 -0.77732750111E-01  0.27867099035E-01  0.13702870723E-01  0.83707738206E-01  0.51100000000E-03 0. -1.
         11    1    4    4    0    0 -0.47976655328E-01  0.88676047890E-03  0.71798191031E-02  0.48521713943E-01  0.51100000000E-03 0.  1.
</event>
<event>
 8    1  0.1161093E+005  0.1043930E+01  0.7957747E-01            NaN
         13   -1    0    0    0    0  0.00000000000E+00  0.00000000000E+00  0.74505805969E-08  0.10566000000E+00  0.10566000000E+00 0.  1.
     999900   -1    0    0    0    0 -0.00000000000E+00 -0.00000000000E+00 -0.74505805969E-08  0.93827000000E+00  0.93827000000E+00 0. -1.
     999902    2    1    2    0    0 -0.95481851300E-02  0.12570943373E-01 -0.16458053993E-01  0.10211250883E+01  0.10208704041E+01 0.  0.
     999903    2    3    3    0    0 -0.52105145371E-01 -0.28715248522E-01  0.11349734221E+00  0.12960725364E+00  0.19413444717E-01 0.  0.
         14    1    1    2    0    0  0.95481851300E-02 -0.12570943373E-01  0.16458053993E-01  0.22804911703E-01  0.00000000000E+00 0.  1.
     999901    1    3    3    0    0  0.42556960241E-01  0.41286191895E-01 -0.12995539620E+00  0.89151783466E+00  0.88000000000E+00 0. -1.
        -11    1    4    4    0    0 -0.28729902012E-01 -0.48268476723E-02  0.51320944934E-01  0.59015305116E-01  0.51100000000E-03 0.  1.
         11    1    4    4    0    0 -0.23375243360E-01 -0.23888400850E-01  0.62176397277E-01  0.70591948525E-01  0.51100000000E-03 0. -1.
</event>
<event>
 8    1  0.1161093E+005  0.1043930E+01  0.7957747E-01            NaN
         13   -1    0    0    0    0  0.00000000000E+00  0.00000000000E+00  0.74505805969E-08  0.10566000000E+00  0.10566000000E+00 0. -1.
     999900   -1    0    0    0    0 -0.00000000000E+00 -0.00000000000E+00 -0.74505805969E-08  0.93827000000E+00  0.93827000000E+00 0. -1.
     999902    2    1    2    0    0 -0.38346488444E-02 -0.31636316521E-02 -0.24313587124E-01  0.10191134004E+01  0.10188111990E+01 0.  0.
     999903    2    3    3    0    0  0.10571087690E+00 -0.10870372524E-01  0.65859122367E-01  0.12771521014E+00  0.26092075577E-01 0.  0.
         14    1    1    2    0    0  0.38346488444E-02  0.31636316521E-02  0.24313587124E-01  0.24816599602E-01  0.00000000000E+00 0. -1.
     999901    1    3    3    0    0 -0.10954552574E+00  0.77067408714E-02 -0.90172709490E-01  0.89139819026E+00  0.88000000000E+00 0. -1.
        -11    1    4    4    0    0  0.57957568574E-01 -0.16681812150E-01  0.45143497957E-01  0.75336306921E-01  0.51100000000E-03 0.  1.
         11    1    4    4    0    0  0.47753308324E-01  0.58114396261E-02  0.20715624409E-01  0.52378903216E-01  0.51100000000E-03 0. -1.
</event>
<event>
 8    1  0.1161093E+005  0.1043930E+01  0.7957747E-01            NaN
         13   -1    0    0    0    0  0.00000000000E+00  0.00000000000E+00  0.74505805969E-08  0.10566000000E+00  0.10566000000E+00 0. -1.
     999900   -1    0    0    0    0 -0.00000000000E+00 -0.00000000000E+00 -0.74505805969E-08  0.93827000000E+00  0.93827000000E+00 0.  1.
     999902    2    1    2    0    0 -0.20727681337E-01 -0.15061483664E-01 -0.13536323164E-02  0.10182723036E+01  0.10179490002E+01 0.  0.
     999903    2    3    3    0    0  0.61250139313E-01  0.49423165502E-01  0.97262345732E-01  0.12664247897E+00  0.19599100189E-01 0.  0.
         14    1    1    2    0    0  0.20727681337E-01  0.15061483664E-01  0.13536323164E-02  0.25657696393E-01  0.00000000000E+00 0. -1.
     999901    1    3    3    0    0 -0.81977820649E-01 -0.64484649166E-01 -0.98615978048E-01  0.89162982464E+00  0.88000000000E+00 0.  1.
        -11    1    4    4    0    0  0.10593423434E-01  0.13110425081E-01  0.10687939879E-01  0.19964895334E-01  0.51100000000E-03 0. -1.
         11    1    4    4    0    0  0.50656715879E-01  0.36312740422E-01  0.86574405852E-01  0.10667758364E+00  0.51100000000E-03 0.  1.
</event>
<event>
 8    1  0.1161093E+005  0.1043930E+01  0.7957747E-01            NaN
         13   -1    0    0    0    0  0.00000000000E+00  0.00000000000E+00  0.74505805969E-08  0.10566000000E+00  0.10566000000E+00 0. -1.
     999900   -1    0    0    0    0 -0.00000000000E+00 -0.00000000000E+00 -0.74505805969E-08  0.93827000000E+00  0.93827000000E+00 0.  1.
     999902    2    1    2    0    0  0.98541116496E-02  0.16418172576E-01  0.12320936702E-01  0.10211601649E+01  0.10209062724E+01 0.  0.
     999903    2    3    3    0    0  0.23758237306E-01  0.78595694690E-01 -0.10063087092E+00  0.13165610098E+00  0.21564314987E-01 0.  0.
         14    1    1    2    0    0 -0.98541116496E-02 -0.16418172576E-01 -0.12320936702E-01  0.22769835053E-01  0.00000000000E+00 0.  1.
     999901    1    3    3    0    0 -0.13904125656E-01 -0.62177522114E-01  0.11295180762E+00  0.88950406397E+00  0.88000000000E+00 0. -1.
        -11    1    4    4    0    0  0.17437162322E-01  0.68676459670E-01 -0.73562410059E-01  0.10213814193E+00  0.51100000000E-03 0.  1.
         11    1    4    4    0    0  0.63210749832E-02  0.99192350203E-02 -0.27068460857E-01  0.29517959050E-01  0.51100000000E-03 0. -1.
</event>
<event>
 8    1  0.1161093E+005  0.1043930E+01  0.7957747E-01            NaN
         13   -1    0    0    0    0  0.00000000000E+00  0.00000000000E+00  0.74505805969E-08  0.10566000000E+00  0.10566000000E+00 0.  1.
     999900   -1    0    0    0    0 -0.00000000000E+00 -0.00000000000E+00 -0.74505805969E-08  0.93827000000E+00  0.93827000000E+00 0.  1.
     999902    2    1    2    0    0 -0.12775993827E-01  0.11338230216E-01 -0.16537131177E-01  0.10201548409E+01  0.10198777580E+01 0.  0.
     999903    2    3    3    0    0 -0.26029032505E-01  0.82071794584E-01 -0.99757286200E-01  0.13330396597E+00  0.20128119475E-01 0.  0.
         14    1    1    2    0    0  0.12775993827E-01 -0.11338230216E-01  0.16537131177E-01  0.23775159101E-01  0.00000000000E+00 0.  1.
     999901    1    3    3    0    0  0.13253038678E-01 -0.70733564369E-01  0.83220155023E-01  0.88685087493E+00  0.88000000000E+00 0. -1.
        -11    1    4    4    0    0 -0.20437895547E-01  0.68838084328E-01 -0.70131713959E-01  0.10037483675E+00  0.51100000000E-03 0. -1.
         11    1    4    4    0    0 -0.55911369580E-02  0.13233710256E-01 -0.29625572241E-01  0.32929129221E-01  0.51100000000E-03 0.  1.
</event>
<event>
 8    1  0.1161093E+005  0.1043930E+01  0.7957747E-01            NaN
         13   -1    0    0    0    0  0.00000000000E+00  0.00000000000E+00  0.74505805969E-08  0.10566000000E+00  0.10566000000E+00 0. -1.
     999900   -1    0    0    0    0 -0.00000000000E+00 -0.00000000000E+00 -0.74505805969E-08  0.93827000000E+00  0.93827000000E+00 0.  1.
     999902    2    1    2    0    0 -0.44723182617E-02  0.19105367956E-01  0.13703370661E-01  0.10199967787E+01  0.10197159553E+01 0.  0.
     999903    2    3    3    0    0 -0.37041739775E-01  0.43609158098E-01 -0.11462674474E+00  0.12975533869E+00  0.20574453936E-01 0.  0.
         14    1    1    2    0    0  0.44723182617E-02 -0.19105367956E-01 -0.13703370661E-01  0.23933221322E-01  0.00000000000E+00 0.  1.
     999901    1    3    3    0    0  0.32569421514E-01 -0.24503790142E-01  0.12833011540E+00  0.89024143999E+00  0.88000000000E+00 0. -1.
        -11    1    4    4    0    0 -0.96818141206E-03  0.14068514570E-01 -0.29224945494E-01  0.32453336309E-01  0.51100000000E-03 0. -1.
         11    1    4    4    0    0 -0.36073558363E-01  0.29540643528E-01 -0.85401799243E-01  0.97302002384E-01  0.51100000000E-03 0.  1.
</event>
<event>
 8    1  0.1161093E+005  0.1043930E+01  0.7957747E-01            NaN
         13   -1    0    0    0    0  0.00000000000E+00  0.00000000000E+00  0.74505805969E-08  0.10566000000E+00  0.10566000000E+00 0. -1.
     999900   -1    0    0    0    0 -0.00000000000E+00 -0.00000000000E+00 -0.74505805969E-08  0.93827000000E+00  0.93827000000E+00 0.  1.
     999902    2    1    2    0    0 -0.17666745043E-01  0.14731160646E-01  0.11156041992E-01  0.10183648235E+01  0.10180438770E+01 0.  0.
     999903    2    3    3    0    0  0.61719613108E-01  0.87392778994E-01  0.70962329969E-01  0.12979366898E+00  0.19077100662E-01 0.  0.
         14    1    1    2    0    0  0.17666745043E-01 -0.14731160646E-01 -0.11156041992E-01  0.25565176458E-01  0.00000000000E+00 0.  1.
     999901    1    3    3    0    0 -0.79386358151E-01 -0.72661618349E-01 -0.59806287977E-01  0.88857115456E+00  0.88000000000E+00 0.  1.
        -11    1    4    4    0    0  0.49675235556E-01  0.79911742967E-01  0.57728017622E-01  0.11039157953E+00  0.51100000000E-03 0.  1.
         11    1    4    4    0    0  0.12044377552E-01  0.74810360270E-02  0.13234312347E-01  0.19402089448E-01  0.51100000000E-03 0. -1.
</event>
<event>
 8    1  0.1161093E+005  0.1043930E+01  0.7957747E-01            NaN
         13   -1    0    0    0    0  0.00000000000E+00  0.00000000000E+00  0.74505805969E-08  0.10566000000E+00  0.10566000000E+00 0. -1.
     999900   -1    0    0    0    0 -0.00000000000E+00 -0.00000000000E+00 -0.74505805969E-08  0.93827000000E+00  0.93827000000E+00 0.  1.
     999902    2    1    2    0    0 -0.21550157939E-01 -0.18611844935E-01  0.74981756227E-02  0.10144845807E+01  0.10140571640E+01 0.  0.
     999903    2    3    3    0    0  0.11556638723E+00 -0.37487303147E-01  0.65847737408E-02  0.12366582015E+00  0.22113074710E-01 0.  0.
         14    1    1    2    0    0  0.21550157939E-01  0.18611844935E-01 -0.74981756227E-02  0.29445419283E-01  0.00000000000E+00 0.  1.
     999901    1    3    3    0    0 -0.13711654517E+00  0.18875458212E-01  0.91340188194E-03  0.89081876057E+00  0.88000000000E+00 0.  1.
        -11    1    4    4    0    0  0.94118742184E-01 -0.38840334068E-01  0.29333298398E-02  0.10186154685E+00  0.51100000000E-03 0.  1.
         11    1    4    4    0    0  0.21447645044E-01  0.13530309218E-02  0.36514439010E-02  0.21804273301E-01  0.51100000000E-03 0. -1.
</event>
<event>
 8    1  0.1161093E+005  0.1043930E+01  0.7957747E-01            NaN
         13   -1    0    0    0    0  0.00000000000E+00  0.00000000000E+00  0.74505805969E-08  0.10566000000E+00  0.10566000000E+00 0. -1.
     999900   -1    0    0    0    0 -0.00000000000E+00 -0.00000000000E+00 -0.74505805969E-08  0.93827000000E+00  0.93827000000E+00 0. -1.
     999902    2    1    2    0    0  0.17521114126E-01  0.11161093512E-01  0.11876904334E-01  0.10200005139E+01  0.10197197792E+01 0.  0.
     999903    2    3    3    0    0  0.21000990265E-01  0.96871288218E-01  0.85937528242E-01  0.13273317931E+00  0.20192821889E-01 0.  0.
         14    1    1    2    0    0 -0.17521114126E-01 -0.11161093512E-01 -0.11876904334E-01  0.23929486103E-01  0.00000000000E+00 0.  1.
     999901    1    3    3    0    0 -0.34798761393E-02 -0.85710194706E-01 -0.74060623908E-01  0.88726733459E+00  0.88000000000E+00 0. -1.
        -11    1    4    4    0    0  0.11306742910E-01  0.70100114056E-01  0.49831132528E-01  0.86748321689E-01  0.51100000000E-03 0. -1.
         11    1    4    4    0    0  0.96942473546E-02  0.26771174162E-01  0.36106395715E-01  0.45984857620E-01  0.51100000000E-03 0.  1.
</event>
<event>
 8    1  0.1161093E+005  0.1043930E+01  0.7957747E-01            NaN
         13   -1    0    0    0    0  0.00000000000E+00  0.00000000000E+00  0.74505805969E-08  0.10566000000E+00  0.10566000000E+00 0. -1.
     999900   -1    0    0    0    0 -0.00000000000E+00 -0.00000000000E+00 -0.74505805969E-08  0.93827000000E+00  0.93827000000E+00 0.  1.
     999902    2    1    2    0    0 -0.21180794611E-01  0.68539290973E-02  0.66385696867E-02  0.10206991367E+01  0.10204347380E+01 0.  0.
     999903    2    3    3    0    0  0.11485143288E+00 -0.52145802524E-01  0.75559782993E-02  0.12829419668E+00  0.22187197651E-01 0.  0.
         14    1    1    2    0    0  0.21180794611E-01 -0.68539290973E-02 -0.66385696867E-02  0.23230863348E-01  0.00000000000E+00 0.  1.
     999901    1    3    3    0    0 -0.13603222749E+00  0.58999731621E-01 -0.91740861263E-03  0.89240493997E+00  0.88000000000E+00 0. -1.
        -11    1    4    4    0    0  0.73193905240E-01 -0.36646218786E-01 -0.52813000186E-02  0.82027107510E-01  0.51100000000E-03 0.  1.
         11    1    4    4    0    0  0.41657527636E-01 -0.15499583737E-01  0.12837278318E-01  0.46267089171E-01  0.51100000000E-03 0. -1.
</event>
<event>
 8    1  0.1161093E+005  0.1043930E+01  0.7957747E-01            NaN
         13   -1    0    0    0    0  0.00000000000E+00  0.00000000000E+00  0.74505805969E-08  0.10566000000E+00  0.10566000000E+00 0. -1.
     999900   -1    0    0    0    0 -0.00000000000E+00 -0.00000000000E+00 -0.74505805969E-08  0.93827000000E+00  0.93827000000E+00 0. -1.
     999902    2    1    2    0    0  0.33408487210E-03  0.17983974243E-01 -0.14589561198E-01  0.10207698999E+01  0.10205071280E+01 0.  0.
     999903    2    3    3    0    0  0.23826599322E-01  0.55042034016E-01  0.11396837750E+00  0.13034733634E+00  0.20107328952E-01 0.  0.
         14    1    1    2    0    0 -0.33408487210E-03 -0.17983974243E-01  0.14589561198E-01  0.23160100134E-01  0.00000000000E+00 0. -1.
     999901    1    3    3    0    0 -0.23492514450E-01 -0.37058059773E-01 -0.12855793870E+00  0.89042256352E+00  0.88000000000E+00 0. -1.
        -11    1    4    4    0    0  0.99485777618E-02  0.21235436175E-01  0.65986766544E-01  0.70031653051E-01  0.51100000000E-03 0.  1.
         11    1    4    4    0    0  0.13878021561E-01  0.33806597841E-01  0.47981610956E-01  0.60315683292E-01  0.51100000000E-03 0. -1.
</event>
<event>
 8    1  0.1161093E+005  0.1043930E+01  0.7957747E-01            NaN
         13   -1    0    0    0    0  0.00000000000E+00  0.00000000000E+00  0.74505805969E-08  0.10566000000E+00  0.10566000000E+00 0. -1.
     999900   -1    0    0    0    0 -0.00000000000E+00 -0.00000000000E+00 -0.74505805969E-08  0.93827000000E+00  0.93827000000E+00 0. -1.
     999902    2    1    2    0    0  0.88338928411E-02 -0.22028795558E-01 -0.35181213717E-02  0.10199366119E+01  0.10196543579E+01 0.  0.
     999903    2    3    3    0    0  0.35417158513E-01 -0.11599018022E+00 -0.51185257548E-01  0.13325314653E+00  0.20697184490E-01 0.  0.
         14    1    1    2    0    0 -0.88338928411E-02  0.22028795558E-01  0.35181213717E-02  0.23993388141E-01  0.00000000000E+00 0. -1.
     999901    1    3    3    0    0 -0.26583265672E-01  0.93961384657E-01  0.47667136177E-01  0.88668346533E+00  0.88000000000E+00 0.  1.
        -11    1    4    4    0    0  0.11183382481E-01 -0.28664064274E-01 -0.22750482171E-01  0.38269337392E-01  0.51100000000E-03 0.  1.
         11    1    4    4    0    0  0.24233776032E-01 -0.87326115942E-01 -0.28434775377E-01  0.94983809136E-01  0.51100000000E-03 0. -1.
</event>
<event>
 8    1  0.1161093E+005  0.1043930E+01  0.7957747E-01            NaN
         13   -1    0    0    0    0  0.00000000000E+00  0.00000000000E+00  0.74505805969E-08  0.10566000000E+00  0.10566000000E+00 0. -1.
     999900   -1    0    0    0    0 -0.00000000000E+00 -0.00000000000E+00 -0.74505805969E-08  0.93827000000E+00  0.93827000000E+00 0. -1.
     999902    2    1    2    0    0  0.39147330181E-02  0.60046997932E-02  0.22355067869E-01  0.10204538288E+01  0.10201837512E+01 0.  0.
     999903    2    3    3    0    0  0.11174023564E+00 -0.57426645118E-01 -0.27823131474E-01  0.13019110005E+00  0.19796364709E-01 0.  0.
         14    1    1    2    0    0 -0.39147330181E-02 -0.60046997932E-02 -0.22355067869E-01  0.23476171188E-01  0.00000000000E+00 0.  1.
     999901    1    3    3    0    0 -0.10782550263E+00  0.63431344912E-01  0.50178199344E-01  0.89026272876E+00  0.88000000000E+00 0.  1.
        -11    1    4    4    0    0  0.76974644033E-01 -0.36306118877E-01 -0.27721022334E-01  0.89509475991E-01  0.51100000000E-03 0.  1.
         11    1    4    4    0    0  0.34765591611E-01 -0.21120526241E-01 -0.10210914082E-03  0.40681624059E-01  0.51100000000E-03 0. -1.
</event>
<event>
 8    1  0.1161093E+005  0.1043930E+01  0.7957747E-01            NaN
         13   -1    0    0    0    0  0.00000000000E+00  0.00000000000E+00  0.74505805969E-08  0.10566000000E+00  0.10566000000E+00 0.  1.
     999900   -1    0    0    0    0 -0.00000000000E+00 -0.00000000000E+00 -0.74505805969E-08  0.93827000000E+00  0.93827000000E+00 0. -1.
     999902    2    1    2    0    0 -0.65766112669E-02 -0.83251703000E-02  0.21056053829E-01  0.10203520934E+01  0.10200796424E+01 0.  0.
     999903    2    3    3    0    0 -0.61553509574E-01 -0.34115866837E-01 -0.10628930951E+00  0.12911449269E+00  0.20503853211E-01 0.  0.
         14    1    1    2    0    0  0.65766112669E-02  0.83251703000E-02 -0.21056053829E-01  0.23577906589E-01  0.00000000000E+00 0. -1.
     999901    1    3    3    0    0  0.54976898307E-01  0.25790696537E-01  0.12734536334E+00  0.89123760072E+00  0.88000000000E+00 0.  1.
        -11    1    4    4    0    0 -0.27275430847E-01 -0.63759779194E-02 -0.52961009499E-01  0.59914371151E-01  0.51100000000E-03 0. -1.
         11    1    4    4    0    0 -0.34278078727E-01 -0.27739888917E-01 -0.53328300007E-01  0.69200121539E-01  0.51100000000E-03 0.  1.
</event>
<event>
 8    1  0.1161093E+005  0.1043930E+01  0.7957747E-01            NaN
         13   -1    0    0    0    0  0.00000000000E+00  0.00000000000E+00  0.74505805969E-08  0.10566000000E+00  0.10566000000E+00 0.  1.
     999900   -1    0    0    0    0 -0.00000000000E+00 -0.00000000000E+00 -0.74505805969E-08  0.93827000000E+00  0.93827000000E+00 0.  1.
     999902    2    1    2    0    0  0.77424399343E-02  0.93101667500E-02 -0.21498170313E-01  0.10192562101E+01  0.10189575192E+01 0.  0.
     999903    2    3    3    0    0 -0.38773366454E-01 -0.12057104016E+00 -0.55978913983E-02  0.12836583131E+00  0.20142010537E-01 0.  0.
         14    1    1    2    0    0 -0.77424399343E-02 -0.93101667500E-02  0.21498170313E-01  0.24673789897E-01  0.00000000000E+00 0. -1.
     999901    1    3    3    0    0  0.46515806388E-01  0.12988120691E+00 -0.15900278915E-01  0.89089037879E+00  0.88000000000E+00 0.  1.
        -11    1    4    4    0    0 -0.26842570970E-01 -0.67166674317E-01  0.54497335164E-02  0.72538586087E-01  0.51100000000E-03 0. -1.
         11    1    4    4    0    0 -0.11930795483E-01 -0.53404365845E-01 -0.11047624915E-01  0.55827245225E-01  0.51100000000E-03 0.  1.
</event>
<event>
 8    1  0.1161093E+005  0.1043930E+01  0.7957747E-01            NaN
         13   -1    0    0    0    0  0.00000000000E+00  0.00000000000E+00  0.74505805969E-08  0.10566000000E+00  0.10566000000E+00 0.  1.
     999900   -1    0    0    0    0 -0.00000000000E+00 -0.00000000000E+00 -0.74505805969E-08  0.93827000000E+00  0.93827000000E+00 0. -1.
     999902    2    1    2    0    0 -0.15821889134E-01  0.76519863974E-03 -0.17800612749E-01  0.10201018755E+01  0.10198235420E+01 0.  0.
     999903    2    3    3    0    0 -0.76860641699E-02 -0.10671360195E+00 -0.72138475674E-01  0.13186176853E+00  0.27142179400E-01 0.  0.
         14    1    1    2    0    0  0.15821889134E-01 -0.76519863974E-03  0.17800612749E-01  0.23828124538E-01  0.00000000000E+00 0.  1.
     999901    1    3    3    0    0 -0.81358249645E-02  0.10747880059E+00  0.54337862924E-01  0.88824010694E+00  0.88000000000E+00 0.  1.
        -11    1    4    4    0    0  0.42259998443E-02 -0.82340334997E-01 -0.60853158815E-01  0.10247515748E+00  0.51100000000E-03 0.  1.
         11    1    4    4    0    0 -0.11912064014E-01 -0.24373266953E-01 -0.11285316858E-01  0.29386611043E-01  0.51100000000E-03 0. -1.
</event>
<event>
 8    1  0.1161093E+005  0.1043930E+01  0.7957747E-01            NaN
         13   -1    0    0    0    0  0.00000000000E+00  0.00000000000E+00  0.74505805969E-08  0.10566000000E+00  0.10566000000E+00 0.  1.
     999900   -1    0    0    0    0 -0.00000000000E+00 -0.00000000000E+00 -0.74505805969E-08  0.93827000000E+00  0.93827000000E+00 0.  1.
     999902    2    1    2    0    0 -0.13833070119E-01 -0.16233846377E-01 -0.74114704876E-02  0.10213507730E+01  0.10211011605E+01 0.  0.
     999903    2    3    3    0    0  0.91304735690E-01 -0.16806977364E-01  0.88777842746E-01  0.12988755409E+00  0.19241676056E-01 0.  0.
         14    1    1    2    0    0  0.13833070119E-01  0.16233846377E-01  0.74114704876E-02  0.22579226999E-01  0.00000000000E+00 0.  1.
     999901    1    3    3    0    0 -0.10513780581E+00  0.57313098728E-03 -0.96189313233E-01  0.89146321891E+00  0.88000000000E+00 0.  1.
        -11    1    4    4    0    0  0.62900811968E-01 -0.15962455257E-01  0.50596913799E-01  0.82289859224E-01  0.51100000000E-03 0. -1.
         11    1    4    4    0    0  0.28403923722E-01 -0.84452210693E-03  0.38180928946E-01  0.47597694866E-01  0.51100000000E-03 0.  1.
</event>
<event>
 8    1  0.1609181E+005  0.1043930E+01  0.7957747E-01            NaN
         13   -1    0    0    0    0  0.00000000000E+00  0.00000000000E+00  0.74505805969E-08  0.10566000000E+00  0.10566000000E+00 0. -1.
     999900   -1    0    0    0    0 -0.00000000000E+00 -0.00000000000E+00 -0.74505805969E-08  0.93827000000E+00  0.93827000000E+00 0. -1.
     999902    2    1    2    0    0  0.21942690411E-01  0.10134092821E-02  0.91061934306E-02  0.10201511981E+01  0.10198740293E+01 0.  0.
     999903    2    3    3    0    0 -0.64608653598E-01  0.58005166422E-01 -0.92193693650E-01  0.12829870881E+00  0.20542737955E-01 0.  0.
         14    1    1    2    0    0 -0.21942690411E-01 -0.10134092821E-02 -0.91061934306E-02  0.23778801897E-01  0.00000000000E+00 0. -1.
     999901    1    3    3    0    0  0.86551344009E-01 -0.56991757140E-01  0.10129988708E+00  0.89185248929E+00  0.88000000000E+00 0. -1.
        -11    1    4    4    0    0 -0.20933810006E-01  0.30069564744E-01 -0.46397297727E-01  0.59121683693E-01  0.51100000000E-03 0.  1.
         11    1    4    4    0    0 -0.43674843592E-01  0.27935601678E-01 -0.45796395923E-01  0.69177025120E-01  0.51100000000E-03 0. -1.
</event>
<event>
 8    1  0.1161093E+005  0.1043930E+01  0.7957747E-01            NaN
         13   -1    0    0    0    0  0.00000000000E+00  0.00000000000E+00  0.74505805969E-08  0.10566000000E+00  0.10566000000E+00 0.  1.
     999900   -1    0    0    0    0 -0.00000000000E+00 -0.00000000000E+00 -0.74505805969E-08  0.93827000000E+00  0.93827000000E+00 0. -1.
     999902    2    1    2    0    0 -0.20402154213E-02 -0.14147857928E-01  0.19882975726E-01  0.10194421033E+01  0.10191479504E+01 0.  0.
     999903    2    3    3    0    0  0.93697920839E-01  0.26758263803E-01 -0.80043465955E-01  0.12768855251E+00  0.20052554680E-01 0.  0.
         14    1    1    2    0    0  0.20402154213E-02  0.14147857928E-01 -0.19882975726E-01  0.24487896738E-01  0.00000000000E+00 0. -1.
     999901    1    3    3    0    0 -0.95738136260E-01 -0.40906121731E-01  0.99926441680E-01  0.89175355075E+00  0.88000000000E+00 0. -1.
        -11    1    4    4    0    0  0.87840386098E-01  0.29428697518E-01 -0.71744342311E-01  0.11717292111E+00  0.51100000000E-03 0.  1.
         11    1    4    4    0    0  0.58575347409E-02 -0.26704337150E-02 -0.82991236431E-02  0.10515631399E-01  0.51100000000E-03 0. -1.
</event>
<event>
 8    1  0.1161093E+005  0.1043930E+01  0.7957747E-01            NaN
         13   -1    0    0    0    0  0.00000000000E+00  0.00000000000E+00  0.74505805969E-08  0.10566000000E+00  0.10566000000E+00 0.  1.
     999900   -1    0    0    0    0 -0.00000000000E+00 -0.00000000000E+00 -0.74505805969E-08  0.93827000000E+00  0.93827000000E+00 0.  1.
     999902    2    1    2    0    0 -0.21589762834E-01 -0.88107019183E-02  0.28081067784E-02  0.10204431571E+01  0.10201728309E+01 0.  0.
     999903    2    3    3    0    0 -0.56911255822E-01 -0.11811135048E+00 -0.95251531404E-02  0.13289239855E+00  0.19505868301E-01 0.  0.
         14    1    1    2    0    0  0.21589762834E-01  0.88107019183E-02 -0.28081067784E-02  0.23486842938E-01  0.00000000000E+00 0. -1.
     999901    1    3    3    0    0  0.35321492988E-01  0.10930064856E+00  0.12333259919E-01  0.88755075852E+00  0.88000000000E+00 0. -1.
        -11    1    4    4    0    0 -0.25528312434E-01 -0.32878371850E-01 -0.53130323098E-02  0.41966313926E-01  0.51100000000E-03 0. -1.
         11    1    4    4    0    0 -0.31382943388E-01 -0.85232978627E-01 -0.42121208306E-02  0.90926084619E-01  0.51100000000E-03 0.  1.
</event>
<event>
 8    1  0.1161093E+005  0.1043930E+01  0.7957747E-01            NaN
         13   -1    0    0    0    0  0.00000000000E+00  0.00000000000E+00  0.74505805969E-08  0.10566000000E+00  0.10566000000E+00 0. -1.
     999900   -1    0    0    0    0 -0.00000000000E+00 -0.00000000000E+00 -0.74505805969E-08  0.93827000000E+00  0.93827000000E+00 0. -1.
     999902    2    1    2    0    0  0.16290652197E-01  0.24358170113E-02  0.19551668337E-01  0.10183646663E+01  0.10180437158E+01 0.  0.
     999903    2    3    3    0    0 -0.49869320197E-01 -0.31679974690E-01  0.11415421374E+00  0.13016949021E+00  0.20550955545E-01 0.  0.
         14    1    1    2    0    0 -0.16290652197E-01 -0.24358170113E-02 -0.19551668337E-01  0.25565333721E-01  0.00000000000E+00 0.  1.
     999901    1    3    3    0    0  0.66159972395E-01  0.34115791702E-01 -0.94602545404E-01  0.88819517607E+00  0.88000000000E+00 0. -1.
        -11    1    4    4    0    0 -0.38100305851E-01 -0.12922342226E-01  0.68971473428E-01  0.79849517859E-01  0.51100000000E-03 0.  1.
         11    1    4    4    0    0 -0.11769014347E-01 -0.18757632464E-01  0.45182740314E-01  0.50319972353E-01  0.51100000000E-03 0. -1.
</event>
<event>
 8    1  0.1161093E+005  0.1043930E+01  0.7957747E-01            NaN
         13   -1    0    0    0    0  0.00000000000E+00  0.00000000000E+00  0.74505805969E-08  0.10566000000E+00  0.10566000000E+00 0.  1.
     999900   -1    0    0    0    0 -0.00000000000E+00 -0.00000000000E+00 -0.74505805969E-08  0.93827000000E+00  0.93827000000E+00 0. -1.
     999902    2    1    2    0    0  0.23217322487E-01  0.44199706841E-02 -0.19911660617E-02  0.10202119700E+01  0.10199362327E+01 0.  0.
     999903    2    3    3    0    0  0.25482983733E-01  0.10292788305E+00  0.74843333388E-01  0.13138550645E+00  0.20422908267E-01 0.  0.
         14    1    1    2    0    0 -0.23217322487E-01 -0.44199706841E-02  0.19911660617E-02  0.23718029990E-01  0.00000000000E+00 0.  1.
     999901    1    3    3    0    0 -0.22656612457E-02 -0.98507912371E-01 -0.76834499450E-01  0.88882646356E+00  0.88000000000E+00 0.  1.
        -11    1    4    4    0    0  0.23227544535E-01  0.60606108243E-01  0.52442366548E-01  0.83445084407E-01  0.51100000000E-03 0. -1.
         11    1    4    4    0    0  0.22554391978E-02  0.42321774812E-01  0.22400966840E-01  0.47940422042E-01  0.51100000000E-03 0.  1.
</event>
<event>
 7    1  0.1161093E+005  0.1043930E+01  0.7957747E-01            NaN
         13   -1    0    0    0    0  0.00000000000E+00  0.00000000000E+00  0.74505805969E-08  0.10566000000E+00  0.10566000000E+00 0.  1.
     999900   -1    0    0    0    0 -0.00000000000E+00 -0.00000000000E+00 -0.74505805969E-08  0.93827000000E+00  0.93827000000E+00 0.  1.
     999902    2    1    2    0    0  0.10120318513E-01 -0.11695446480E-01  0.17582570049E-01  0.10205131026E+01  0.10202444028E+01 0.  0.
         14    1    1    2    0    0 -0.10120318513E-01  0.11695446480E-01 -0.17582570049E-01  0.23416897418E-01  0.00000000000E+00 0. -1.
     999901    1    3    3    0    0 -0.67417336191E-01 -0.11619463916E+00  0.17785691813E-01  0.89037218186E+00  0.88000000000E+00 0. -1.
        -11    1    3    3    0    0  0.54085041294E-01  0.73687970890E-01 -0.80870986681E-03  0.91411289665E-01  0.51100000000E-03 0. -1.
         11    1    3    3    0    0  0.23452613409E-01  0.30811221794E-01  0.60558810328E-03  0.38729631061E-01  0.51100000000E-03 0.  1.
</event>
<event>
 8    1  0.1161093E+005  0.1043930E+01  0.7957747E-01            NaN
         13   -1    0    0    0    0  0.00000000000E+00  0.00000000000E+00  0.74505805969E-08  0.10566000000E+00  0.10566000000E+00 0. -1.
     999900   -1    0    0    0    0 -0.00000000000E+00 -0.00000000000E+00 -0.74505805969E-08  0.93827000000E+00  0.93827000000E+00 0. -1.
     999902    2    1    2    0    0 -0.92272968714E-02  0.13504048069E-01  0.17109387559E-01  0.10202607485E+01  0.10199861575E+01 0.  0.
     999903    2    3    3    0    0 -0.68597065305E-01 -0.90856929887E-01  0.61441987237E-01  0.13100186469E+00  0.20635689451E-01 0.  0.
         14    1    1    2    0    0  0.92272968714E-02 -0.13504048069E-01 -0.17109387559E-01  0.23669251455E-01  0.00000000000E+00 0.  1.
     999901    1    3    3    0    0  0.59369768434E-01  0.10436097796E+00 -0.44332599678E-01  0.88925888386E+00  0.88000000000E+00 0.  1.
        -11    1    4    4    0    0 -0.36280811359E-01 -0.31221664764E-01  0.25151440042E-01  0.54073521068E-01  0.51100000000E-03 0.  1.
         11    1    4    4    0    0 -0.32316253946E-01 -0.59635265123E-01  0.36290547195E-01  0.76928343620E-01  0.51100000000E-03 0. -1.
</event>
<event>
 8    1  0.1161093E+005  0.1043930E+01  0.7957747E-01            NaN
         13   -1    0    0    0    0  0.00000000000E+00  0.00000000000E+00  0.74505805969E-08  0.10566000000E+00  0.10566000000E+00 0. -1.
     999900   -1    0    0    0    0 -0.00000000000E+00 -0.00000000000E+00 -0.74505805969E-08  0.93827000000E+00  0.93827000000E+00 0. -1.
     999902    2    1    2    0    0  0.68247411531E-02 -0.23410940874E-01  0.15001034401E-02  0.10194984721E+01  0.10192056883E+01 0.  0.
     999903    2    3    3    0    0 -0.19784222850E-01  0.74757793292E-01 -0.99813199533E-01  0.12786540706E+00  0.20167904977E-01 0.  0.
         14    1    1    2    0    0 -0.68247411531E-02  0.23410940874E-01 -0.15001034401E-02  0.24431527884E-01  0.00000000000E+00 0. -1.
     999901    1    3    3    0    0  0.26608964003E-01 -0.98168734167E-01  0.10131330297E+00  0.89163306505E+00  0.88000000000E+00 0.  1.
        -11    1    4    4    0    0 -0.16122820370E-01  0.67044517448E-01 -0.76295493718E-01  0.10284053743E+00  0.51100000000E-03 0. -1.
         11    1    4    4    0    0 -0.36614024793E-02  0.77132758441E-02 -0.23517705814E-01  0.25024869633E-01  0.51100000000E-03 0.  1.
</event>
<event>
 8    1  0.1161093E+005  0.1043930E+01  0.7957747E-01            NaN
         13   -1    0    0    0    0  0.00000000000E+00  0.00000000000E+00  0.74505805969E-08  0.10566000000E+00  0.10566000000E+00 0. -1.
     999900   -1    0    0    0    0 -0.00000000000E+00 -0.00000000000E+00 -0.74505805969E-08  0.93827000000E+00  0.93827000000E+00 0. -1.
     999902    2    1    2    0    0 -0.15405306643E-02  0.17381309765E-01 -0.16167245442E-01  0.10201421252E+01  0.10198647423E+01 0.  0.
     999903    2    3    3    0    0 -0.21309434540E-01 -0.42629600132E-01 -0.12109641775E+00  0.13165900768E+00  0.19959386309E-01 0.  0.
         14    1    1    2    0    0  0.15405306643E-02 -0.17381309765E-01  0.16167245442E-01  0.23787874832E-01  0.00000000000E+00 0. -1.
     999901    1    3    3    0    0  0.19768903876E-01  0.60010909897E-01  0.10492917231E+00  0.88848311749E+00  0.88000000000E+00 0.  1.
        -11    1    4    4    0    0  0.35326084781E-02 -0.10163824703E-01 -0.24013136453E-01  0.26318710047E-01  0.51100000000E-03 0.  1.
         11    1    4    4    0    0 -0.24842043018E-01 -0.32465775429E-01 -0.97083281299E-01  0.10534029763E+00  0.51100000000E-03 0. -1.
</event>
<event>
 8    1  0.1161093E+005  0.1043930E+01  0.7957747E-01            NaN
         13   -1    0    0    0    0  0.00000000000E+00  0.00000000000E+00  0.74505805969E-08  0.10566000000E+00  0.10566000000E+00 0. -1.
     999900   -1    0    0    0    0 -0.00000000000E+00 -0.00000000000E+00 -0.74505805969E-08  0.93827000000E+00  0.93827000000E+00 0.  1.
     999902    2    1    2    0    0  0.12305299537E-01 -0.97901982036E-02  0.16659297986E-01  0.10210214735E+01  0.10207644433E+01 0.  0.
     999903    2    3    3    0    0 -0.62456507494E-01 -0.80573121967E-01 -0.78117231905E-01  0.12996471845E+00  0.19891777406E-01 0.  0.
         14    1    1    2    0    0 -0.12305299537E-01  0.97901982036E-02 -0.16659297986E-01  0.22908526512E-01  0.00000000000E+00 0.  1.
     999901    1    3    3    0    0  0.74761807031E-01  0.70782923763E-01  0.94776529892E-01  0.89105675504E+00  0.88000000000E+00 0. -1.
        -11    1    4    4    0    0 -0.41515191022E-01 -0.56252081508E-01 -0.64411168381E-01  0.95062439969E-01  0.51100000000E-03 0. -1.
         11    1    4    4    0    0 -0.20941316472E-01 -0.24321040459E-01 -0.13706063524E-01  0.34902278477E-01  0.51100000000E-03 0.  1.
</event>
<event>
 8    1  0.1161093E+005  0.1043930E+01  0.7957747E-01            NaN
         13   -1    0    0    0    0  0.00000000000E+00  0.00000000000E+00  0.74505805969E-08  0.10566000000E+00  0.10566000000E+00 0.  1.
     999900   -1    0    0    0    0 -0.00000000000E+00 -0.00000000000E+00 -0.74505805969E-08  0.93827000000E+00  0.93827000000E+00 0.  1.
     999902    2    1    2    0    0 -0.91014895904E-02  0.20642161851E-01  0.50980893717E-02  0.10208015224E+01  0.10205394758E+01 0.  0.
     999903    2    3    3    0    0 -0.69321129927E-01 -0.60954972134E-01 -0.89276571389E-01  0.12996423430E+00  0.19986703492E-01 0.  0.
         14    1    1    2    0    0  0.91014895904E-02 -0.20642161851E-01 -0.50980893717E-02  0.23128477552E-01  0.00000000000E+00 0. -1.
     999901    1    3    3    0    0  0.60219640337E-01  0.81597133985E-01  0.94374660761E-01  0.89083728815E+00  0.88000000000E+00 0. -1.
        -11    1    4    4    0    0 -0.24636361822E-01 -0.24632204225E-01 -0.47086782980E-01  0.58575780500E-01  0.51100000000E-03 0. -1.
         11    1    4    4    0    0 -0.44684768105E-01 -0.36322767909E-01 -0.42189788409E-01  0.71388453802E-01  0.51100000000E-03 0.  1.
</event>
<event>
 8    1  0.1161093E+005  0.1043930E+01  0.7957747E-01            NaN
         13   -1    0    0    0    0  0.00000000000E+00  0.00000000000E+00  0.74505805969E-08  0.10566000000E+00  0.10566000000E+00 0.  1.
     999900   -1    0    0    0    0 -0.00000000000E+00 -0.00000000000E+00 -0.74505805969E-08  0.93827000000E+00  0.93827000000E+00 0.  1.
     999902    2    1    2    0    0 -0.13621016046E-01 -0.31976888040E-02  0.19484256976E-01  0.10199426375E+01  0.10196605269E+01 0.  0.
     999903    2    3    3    0    0  0.72769829379E-01  0.10404785302E+00  0.14606960581E-01  0.12921890227E+00  0.19046196964E-01 0.  0.
         14    1    1    2    0    0  0.13621016046E-01  0.31976888040E-02 -0.19484256976E-01  0.23987362542E-01  0.00000000000E+00 0. -1.
     999901    1    3    3    0    0 -0.86390845426E-01 -0.10724554183E+00  0.48772963951E-02  0.89072373519E+00  0.88000000000E+00 0. -1.
        -11    1    4    4    0    0  0.73559933611E-01  0.10289171859E+00  0.13201913042E-01  0.12717044160E+00  0.51100000000E-03 0.  1.
         11    1    4    4    0    0 -0.79010423159E-03  0.11561344351E-02  0.14050475389E-02  0.20484606697E-02  0.51100000000E-03 0. -1.
</event>
<event>
 8    1  0.1161093E+005  0.1043930E+01  0.7957747E-01            NaN
         13   -1    0    0    0    0  0.00000000000E+00  0.00000000000E+00  0.74505805969E-08  0.10566000000E+00  0.10566000000E+00 0. -1.
     999900   -1    0    0    0    0 -0.00000000000E+00 -0.00000000000E+00 -0.74505805969E-08  0.93827000000E+00  0.93827000000E+00 0. -1.
     999902    2    1    2    0    0  0.72669246050E-02 -0.21429964483E-01  0.74341139244E-02  0.10201115697E+01  0.10198334654E+01 0.  0.
     999903    2    3    3    0    0  0.21088253388E-02  0.48176925554E-01  0.11952296732E+00  0.13026010112E+00  0.18880967289E-01 0.  0.
         14    1    1    2    0    0 -0.72669246050E-02  0.21429964483E-01 -0.74341139244E-02  0.23818430276E-01  0.00000000000E+00 0.  1.
     999901    1    3    3    0    0  0.51580992663E-02 -0.69606890037E-01 -0.11208885340E+00  0.88985146861E+00  0.88000000000E+00 0. -1.
        -11    1    4    4    0    0  0.91983207575E-02  0.29135058487E-01  0.59474995292E-01  0.66865513711E-01  0.51100000000E-03 0. -1.
         11    1    4    4    0    0 -0.70894954187E-02  0.19041867067E-01  0.60047972027E-01  0.63394587405E-01  0.51100000000E-03 0.  1.
</event>
<event>
 8    1  0.1161093E+005  0.1043930E+01  0.7957747E-01            NaN
         13   -1    0    0    0    0  0.00000000000E+00  0.00000000000E+00  0.74505805969E-08  0.10566000000E+00  0.10566000000E+00 0.  1.
     999900   -1    0    0    0    0 -0.00000000000E+00 -0.00000000000E+00 -0.74505805969E-08  0.93827000000E+00  0.93827000000E+00 0. -1.
     999902    2    1    2    0    0 -0.16062238270E-01  0.17222166996E-01  0.44441917306E-02  0.10199644127E+01  0.10196828202E+01 0.  0.
     999903    2    3    3    0    0 -0.44384666786E-01 -0.78506821241E-01  0.91279881794E-01  0.13007305068E+00  0.21299344228E-01 0.  0.
         14    1    1    2    0    0  0.16062238270E-01 -0.17222166996E-01 -0.44441917306E-02  0.23965587295E-01  0.00000000000E+00 0.  1.
     999901    1    3    3    0    0  0.28322428516E-01  0.95728988236E-01 -0.86835690064E-01  0.88989136203E+00  0.88000000000E+00 0. -1.
        -11    1    4    4    0    0 -0.31925068317E-01 -0.54425789478E-01  0.76577312756E-01  0.99225614118E-01  0.51100000000E-03 0.  1.
         11    1    4    4    0    0 -0.12459598469E-01 -0.24081031763E-01  0.14702569039E-01  0.30847436557E-01  0.51100000000E-03 0. -1.
</event>
<event>
 8    1  0.1161093E+005  0.1043930E+01  0.7957747E-01            NaN
         13   -1    0    0    0    0  0.00000000000E+00  0.00000000000E+00  0.74505805969E-08  0.10566000000E+00  0.10566000000E+00 0.  1.
     999900   -1    0    0    0    0 -0.00000000000E+00 -0.00000000000E+00 -0.74505805969E-08  0.93827000000E+00  0.93827000000E+00 0.  1.
     999902    2    1    2    0    0  0.15058280273E-01 -0.15045112208E-01  0.94256860624E-02  0.10206501640E+01  0.10203846366E+01 0.  0.
     999903    2    3    3    0    0  0.47842758755E-01 -0.92604956361E-01 -0.78919504666E-01  0.13222727811E+00  0.19777698359E-01 0.  0.
         14    1    1    2    0    0 -0.15058280273E-01  0.15045112208E-01 -0.94256860624E-02  0.23279835993E-01  0.00000000000E+00 0. -1.
     999901    1    3    3    0    0 -0.32784478482E-01  0.77559844153E-01  0.88345190729E-01  0.88842288589E+00  0.88000000000E+00 0. -1.
        -11    1    4    4    0    0  0.23122024557E-01 -0.62936621575E-01 -0.44325975696E-01  0.80378477202E-01  0.51100000000E-03 0.  1.
         11    1    4    4    0    0  0.24720734198E-01 -0.29668334786E-01 -0.34593528971E-01  0.51848800911E-01  0.51100000000E-03 0. -1.
</event>
<event>
 8    1  0.1161093E+005  0.1043930E+01  0.7957747E-01            NaN
         13   -1    0    0    0    0  0.00000000000E+00  0.00000000000E+00  0.74505805969E-08  0.10566000000E+00  0.10566000000E+00 0. -1.
     999900   -1    0    0    0    0 -0.00000000000E+00 -0.00000000000E+00 -0.74505805969E-08  0.93827000000E+00  0.93827000000E+00 0.  1.
     999902    2    1    2    0    0 -0.63780348850E-02  0.44235521301E-02  0.21763995979E-01  0.10208233199E+01  0.10205617727E+01 0.  0.
     999903    2    3    3    0    0  0.58618077734E-01  0.33697251379E-02 -0.11235775516E+00  0.12829082791E+00  0.19668179776E-01 0.  0.
         14    1    1    2    0    0  0.63780348850E-02 -0.44235521301E-02 -0.21763995979E-01  0.23106680060E-01  0.00000000000E+00 0.  1.
     999901    1    3    3    0    0 -0.64996112619E-01  0.10538269922E-02  0.13412175114E+00  0.89253249203E+00  0.88000000000E+00 0. -1.
        -11    1    4    4    0    0  0.27920212178E-01  0.10042523930E-01 -0.44175136659E-01  0.53217425293E-01  0.51100000000E-03 0. -1.
         11    1    4    4    0    0  0.30697865557E-01 -0.66727987925E-02 -0.68182618500E-01  0.75073402613E-01  0.51100000000E-03 0.  1.
</event>
<event>
 8    1  0.1161093E+005  0.1043930E+01  0.7957747E-01            NaN
         13   -1    0    0    0    0  0.00000000000E+00  0.00000000000E+00  0.74505805969E-08  0.10566000000E+00  0.10566000000E+00 0.  1.
     999900   -1    0    0    0    0 -0.00000000000E+00 -0.00000000000E+00 -0.74505805969E-08  0.93827000000E+00  0.93827000000E+00 0.  1.
     999902    2    1    2    0    0  0.33284572296E-02 -0.21342982456E-01 -0.53958745370E-03  0.10223223004E+01  0.10220939258E+01 0.  0.
     999903    2    3    3    0    0  0.12476101154E+00  0.31910380112E-01  0.21386207934E-01  0.13211865719E+00  0.20356505782E-01 0.  0.
         14    1    1    2    0    0 -0.33284572296E-02  0.21342982456E-01  0.53958745370E-03  0.21607699606E-01  0.00000000000E+00 0.  1.
     999901    1    3    3    0    0 -0.12143255431E+00 -0.53253362568E-01 -0.21925795387E-01  0.89020364320E+00  0.88000000000E+00 0. -1.
        -11    1    4    4    0    0  0.72595840493E-01  0.14714797132E-01  0.21707441915E-01  0.77189089041E-01  0.51100000000E-03 0. -1.
         11    1    4    4    0    0  0.52165171050E-01  0.17195582980E-01 -0.32123398089E-03  0.54929568148E-01  0.51100000000E-03 0.  1.
</event>
<event>
 8    1  0.1161093E+005  0.1043930E+01  0.7957747E-01            NaN
         13   -1    0    0    0    0  0.00000000000E+00  0.00000000000E+00  0.74505805969E-08  0.10566000000E+00  0.10566000000E+00 0.  1.
     999900   -1    0    0    0    0 -0.00000000000E+00 -0.00000000000E+00 -0.74505805969E-08  0.93827000000E+00  0.93827000000E+00 0. -1.
     999902    2    1    2    0    0 -0.10379049460E-01 -0.89705067075E-02  0.18647979693E-01  0.10207795831E+01  0.10205170334E+01 0.  0.
     999903    2    3    3    0    0 -0.99140407471E-01 -0.84035979768E-01  0.21175771029E-01  0.13313112017E+00  0.19611618764E-01 0.  0.
         14    1    1    2    0    0  0.10379049460E-01  0.89705067075E-02 -0.18647979693E-01  0.23150416949E-01  0.00000000000E+00 0. -1.
     999901    1    3    3    0    0  0.88761358011E-01  0.75065473061E-01 -0.25277913361E-02  0.88764846288E+00  0.88000000000E+00 0. -1.
        -11    1    4    4    0    0 -0.72388115314E-01 -0.71306866427E-01  0.13355172746E-01  0.10248575608E+00  0.51100000000E-03 0.  1.
         11    1    4    4    0    0 -0.26752292157E-01 -0.12729113341E-01  0.78205982828E-02  0.30645364096E-01  0.51100000000E-03 0. -1.
</event>
<event>
 8    1  0.1161093E+005  0.1043930E+01  0.7957747E-01            NaN
         13   -1    0    0    0    0  0.00000000000E+00  0.00000000000E+00  0.74505805969E-08  0.10566000000E+00  0.10566000000E+00 0.  1.
     999900   -1    0    0    0    0 -0.00000000000E+00 -0.00000000000E+00 -0.74505805969E-08  0.93827000000E+00  0.93827000000E+00 0.  1.
     999902    2    1    2    0    0 -0.20633265728E-01 -0.26630906237E-02  0.11081839578E-01  0.10203581763E+01  0.10200858675E+01 0.  0.
     999903    2    3    3    0    0  0.98891273039E-01  0.76445022881E-01  0.23346225876E-01  0.12867739023E+00  0.19735731240E-01 0.  0.
         14    1    1    2    0    0  0.20633265728E-01  0.26630906237E-02 -0.11081839578E-01  0.23571823746E-01  0.00000000000E+00 0. -1.
     999901    1    3    3    0    0 -0.11952453877E+00 -0.79108113505E-01 -0.12264386297E-01  0.89168078602E+00  0.88000000000E+00 0.  1.
        -11    1    4    4    0    0  0.27996895536E-01  0.12276504204E-01  0.97535002110E-02  0.32092531881E-01  0.51100000000E-03 0. -1.
         11    1    4    4    0    0  0.70894377503E-01  0.64168518676E-01  0.13592725665E-01  0.96584858351E-01  0.51100000000E-03 0.  1.
</event>
<event>
 8    1  0.1161093E+005  0.1043930E+01  0.7957747E-01            NaN
         13   -1    0    0    0    0  0.00000000000E+00  0.00000000000E+00  0.74505805969E-08  0.10566000000E+00  0.10566000000E+00 0. -1.
     999900   -1    0    0    0    0 -0.00000000000E+00 -0.00000000000E+00 -0.74505805969E-08  0.93827000000E+00  0.93827000000E+00 0.  1.
     999902    2    1    2    0    0 -0.88172539915E-02 -0.35651754749E-02  0.21485662584E-01  0.10204334441E+01  0.10201628917E+01 0.  0.
     999903    2    3    3    0    0  0.79403346392E-01  0.98839663183E-01 -0.15504480564E-01  0.12934540352E+00  0.20388086172E-01 0.  0.
         14    1    1    2    0    0  0.88172539915E-02  0.35651754749E-02 -0.21485662584E-01  0.23496555935E-01  0.00000000000E+00 0.  1.
     999901    1    3    3    0    0 -0.88220600384E-01 -0.10240483866E+00  0.36990143148E-01  0.89108804055E+00  0.88000000000E+00 0. -1.
        -11    1    4    4    0    0  0.34866187700E-01  0.53195913066E-01 -0.15926661082E-01  0.65569626093E-01  0.51100000000E-03 0.  1.
         11    1    4    4    0    0  0.44537158692E-01  0.45643750117E-01  0.42218051801E-03  0.63775777427E-01  0.51100000000E-03 0. -1.
</event>
<event>
 8    1  0.1161093E+005  0.1043930E+01  0.7957747E-01            NaN
         13   -1    0    0    0    0  0.00000000000E+00  0.00000000000E+00  0.74505805969E-08  0.10566000000E+00  0.10566000000E+00 0.  1.
     999900   -1    0    0    0    0 -0.00000000000E+00 -0.00000000000E+00 -0.74505805969E-08  0.93827000000E+00  0.93827000000E+00 0. -1.
     999902    2    1    2    0    0 -0.13655504365E-01 -0.11101162676E-01 -0.16001704844E-01  0.10201442234E+01  0.10198668900E+01 0.  0.
     999903    2    3    3    0    0  0.97900415821E-02  0.12288843969E+00  0.34289274468E-01  0.12827422736E+00  0.90060834769E-02 0.  0.
         14    1    1    2    0    0  0.13655504365E-01  0.11101162676E-01  0.16001704844E-01  0.23785776635E-01  0.00000000000E+00 0.  1.
     999901    1    3    3    0    0 -0.23445545947E-01 -0.13398960236E+00 -0.50290979312E-01  0.89186999600E+00  0.88000000000E+00 0.  1.
        -11    1    4    4    0    0 -0.21115019577E-03  0.28345825947E-01  0.10845704716E-01  0.30354915003E-01  0.51100000000E-03 0. -1.
         11    1    4    4    0    0  0.10001191778E-01  0.94542613739E-01  0.23443569752E-01  0.97919312361E-01  0.51100000000E-03 0.  1.
</event>
<event>
 8    1  0.1161093E+005  0.1043930E+01  0.7957747E-01            NaN
         13   -1    0    0    0    0  0.00000000000E+00  0.00000000000E+00  0.74505805969E-08  0.10566000000E+00  0.10566000000E+00 0. -1.
     999900   -1    0    0    0    0 -0.00000000000E+00 -0.00000000000E+00 -0.74505805969E-08  0.93827000000E+00  0.93827000000E+00 0.  1.
     999902    2    1    2    0    0 -0.94593937474E-02  0.42835673595E-02  0.21084074229E-01  0.10204275051E+01  0.10201568144E+01 0.  0.
     999903    2    3    3    0    0  0.71975499053E-01  0.60070512663E-02 -0.10367580336E+00  0.12790319777E+00  0.19849399706E-01 0.  0.
         14    1    1    2    0    0  0.94593937474E-02 -0.42835673595E-02 -0.21084074229E-01  0.23502494878E-01  0.00000000000E+00 0.  1.
     999901    1    3    3    0    0 -0.81434892800E-01 -0.17234839068E-02  0.12475987759E+00  0.89252430735E+00  0.88000000000E+00 0. -1.
        -11    1    4    4    0    0  0.24299330576E-01  0.35196703081E-03 -0.51792324285E-01  0.57212650027E-01  0.51100000000E-03 0.  1.
         11    1    4    4    0    0  0.47676168476E-01  0.56550842355E-02 -0.51883479072E-01  0.70690547741E-01  0.51100000000E-03 0. -1.
</event>
<event>
 8    1  0.1161093E+005  0.1043930E+01  0.7957747E-01            NaN
         13   -1    0    0    0    0  0.00000000000E+00  0.00000000000E+00  0.74505805969E-08  0.10566000000E+00  0.10566000000E+00 0.  1.
     999900   -1    0    0    0    0 -0.00000000000E+00 -0.00000000000E+00 -0.74505805969E-08  0.93827000000E+00  0.93827000000E+00 0. -1.
     999902    2    1    2    0    0 -0.83649569683E-02  0.12294705736E-01 -0.15792178248E-01  0.10222384074E+01  0.10220082370E+01 0.  0.
     999903    2    3    3    0    0 -0.97234623325E-01  0.56973357592E-01 -0.71563039073E-01  0.13488031261E+00  0.19258627170E-01 0.  0.
         14    1    1    2    0    0  0.83649569683E-02 -0.12294705736E-01  0.15792178248E-01  0.21691592565E-01  0.00000000000E+00 0.  1.
     999901    1    3    3    0    0  0.88869666357E-01 -0.44678651856E-01  0.55770860826E-01  0.88735809482E+00  0.88000000000E+00 0.  1.
        -11    1    4    4    0    0 -0.62952936659E-01  0.31557509678E-01 -0.53942205351E-01  0.88707222312E-01  0.51100000000E-03 0.  1.
         11    1    4    4    0    0 -0.34281686666E-01  0.25415847913E-01 -0.17620833722E-01  0.46173090300E-01  0.51100000000E-03 0. -1.
</event>
<event>
 7    1  0.1161093E+005  0.1043930E+01  0.7957747E-01            NaN
         13   -1    0    0    0    0  0.00000000000E+00  0.00000000000E+00  0.74505805969E-08  0.10566000000E+00  0.10566000000E+00 0.  1.
     999900   -1    0    0    0    0 -0.00000000000E+00 -0.00000000000E+00 -0.74505805969E-08  0.93827000000E+00  0.93827000000E+00 0. -1.
     999903    2    1    2    0    0 -0.18135134065E-01 -0.65566413566E-01  0.76428328511E-01  0.10423731218E+00  0.19907038344E-01 0.  0.
         14    1    1    2    0    0  0.42613917206E-01  0.30748088605E-01 -0.22049367858E-01  0.56987415413E-01  0.00000000000E+00 0.  1.
     999901    1    1    2    0    0 -0.24478783140E-01  0.34818324961E-01 -0.54378960653E-01  0.88270527241E+00  0.88000000000E+00 0. -1.
        -11    1    3    3    0    0 -0.20934607402E-01 -0.61935738567E-01  0.74798816566E-01  0.99344942395E-01  0.51100000000E-03 0. -1.
         11    1    3    3    0    0  0.27994733365E-02 -0.36306749989E-02  0.16295119454E-02  0.48923697826E-02  0.51100000000E-03 0.  1.
</event>
<event>
 8    1  0.1161093E+005  0.1043930E+01  0.7957747E-01            NaN
         13   -1    0    0    0    0  0.00000000000E+00  0.00000000000E+00  0.74505805969E-08  0.10566000000E+00  0.10566000000E+00 0. -1.
     999900   -1    0    0    0    0 -0.00000000000E+00 -0.00000000000E+00 -0.74505805969E-08  0.93827000000E+00  0.93827000000E+00 0.  1.
     999902    2    1    2    0    0  0.12507210608E-01  0.15826211134E-01 -0.10121001750E-02  0.10237328808E+01  0.10235336280E+01 0.  0.
     999903    2    3    3    0    0  0.12361697237E+00  0.48170641802E-01  0.19121316124E-01  0.13592834389E+00  0.22568193384E-01 0.  0.
         14    1    1    2    0    0 -0.12507210608E-01 -0.15826211134E-01  0.10121001750E-02  0.20197119171E-01  0.00000000000E+00 0.  1.
     999901    1    3    3    0    0 -0.11110976176E+00 -0.32344430668E-01 -0.20133416299E-01  0.88780453694E+00  0.88000000000E+00 0. -1.
        -11    1    4    4    0    0  0.17220393605E-01  0.87438896020E-02 -0.49309577696E-02  0.19939233355E-01  0.51100000000E-03 0. -1.
         11    1    4    4    0    0  0.10639657877E+00  0.39426752200E-01  0.24052273894E-01  0.11598911054E+00  0.51100000000E-03 0.  1.
</event>
<event>
 8    1  0.1161093E+005  0.1043930E+01  0.7957747E-01            NaN
         13   -1    0    0    0    0  0.00000000000E+00  0.00000000000E+00  0.74505805969E-08  0.10566000000E+00  0.10566000000E+00 0.  1.
     999900   -1    0    0    0    0 -0.00000000000E+00 -0.00000000000E+00 -0.74505805969E-08  0.93827000000E+00  0.93827000000E+00 0.  1.
     999902    2    1    2    0    0  0.21424172616E-01 -0.52335457439E-02  0.50793506872E-02  0.10212984959E+01  0.10210477133E+01 0.  0.
     999903    2    3    3    0    0 -0.25295330043E-01  0.34497866384E-01  0.12257856454E+00  0.13137301461E+00  0.20085018687E-01 0.  0.
         14    1    1    2    0    0 -0.21424172616E-01  0.52335457439E-02 -0.50793506872E-02  0.22631504076E-01  0.00000000000E+00 0. -1.
     999901    1    3    3    0    0  0.46719502659E-01 -0.39731412128E-01 -0.11749921385E+00  0.88992548132E+00  0.88000000000E+00 0.  1.
        -11    1    4    4    0    0  0.25560091411E-04  0.15531123155E-01  0.43989799418E-01  0.46653831715E-01  0.51100000000E-03 0. -1.
         11    1    4    4    0    0 -0.25320890134E-01  0.18966743229E-01  0.78588765121E-01  0.84719182894E-01  0.51100000000E-03 0.  1.
</event>
<event>
 8    1  0.1161093E+005  0.1043930E+01  0.7957747E-01            NaN
         13   -1    0    0    0    0  0.00000000000E+00  0.00000000000E+00  0.74505805969E-08  0.10566000000E+00  0.10566000000E+00 0. -1.
     999900   -1    0    0    0    0 -0.00000000000E+00 -0.00000000000E+00 -0.74505805969E-08  0.93827000000E+00  0.93827000000E+00 0.  1.
     999902    2    1    2    0    0 -0.13288048731E-01 -0.18790080336E-01  0.66696484412E-02  0.10199691242E+01  0.10196876437E+01 0.  0.
     999903    2    3    3    0    0 -0.90958709891E-01  0.71490211469E-02  0.93226458668E-01  0.13193891640E+00  0.19801758937E-01 0.  0.
         14    1    1    2    0    0  0.13288048731E-01  0.18790080336E-01 -0.66696484412E-02  0.23960875786E-01  0.00000000000E+00 0.  1.
     999901    1    3    3    0    0  0.77670661160E-01 -0.25939101483E-01 -0.86556810227E-01  0.88803020781E+00  0.88000000000E+00 0.  1.
        -11    1    4    4    0    0 -0.11787609012E-02  0.32323089571E-02  0.39849759737E-02  0.52894662271E-02  0.51100000000E-03 0.  1.
         11    1    4    4    0    0 -0.89779948990E-01  0.39167121897E-02  0.89241482695E-01  0.12664945017E+00  0.51100000000E-03 0. -1.
</event>
<event>
 8    1  0.1161093E+005  0.1043930E+01  0.7957747E-01            NaN
         13   -1    0    0    0    0  0.00000000000E+00  0.00000000000E+00  0.74505805969E-08  0.10566000000E+00  0.10566000000E+00 0.  1.
     999900   -1    0    0    0    0 -0.00000000000E+00 -0.00000000000E+00 -0.74505805969E-08  0.93827000000E+00  0.93827000000E+00 0.  1.
     999902    2    1    2    0    0  0.63297679563E-03 -0.24144487186E-01 -0.65804194631E-03  0.10197682546E+01  0.10194819779E+01 0.  0.
     999903    2    3    3    0    0  0.85713595050E-01  0.83835057048E-01 -0.40232028682E-01  0.12821657691E+00  0.21112491492E-01 0.  0.
         14    1    1    2    0    0 -0.63297679563E-03  0.24144487186E-01  0.65804194631E-03  0.24161745390E-01  0.00000000000E+00 0. -1.
     999901    1    3    3    0    0 -0.85080618255E-01 -0.10797954423E+00  0.39573986736E-01  0.89155167770E+00  0.88000000000E+00 0. -1.
        -11    1    4    4    0    0  0.65567995919E-02  0.88550352931E-02 -0.10439585758E-01  0.15187143995E-01  0.51100000000E-03 0. -1.
         11    1    4    4    0    0  0.79156795458E-01  0.74980021755E-01 -0.29792442924E-01  0.11302943292E+00  0.51100000000E-03 0.  1.
</event>
<event>
 7    1  0.1161093E+005  0.1043930E+01  0.7957747E-01            NaN
         13   -1    0    0    0    0  0.00000000000E+00  0.00000000000E+00  0.74505805969E-08  0.10566000000E+00  0.10566000000E+00 0.  1.
     999900   -1    0    0    0    0 -0.00000000000E+00 -0.00000000000E+00 -0.74505805969E-08  0.93827000000E+00  0.93827000000E+00 0. -1.
     999903    2    1    2    0    0 -0.15359591794E-01 -0.68211329749E-01  0.65714969893E-01  0.97494109605E-01  0.17260984139E-01 0.  0.
         14    1    1    2    0    0 -0.22323994186E-01  0.51389211087E-01 -0.32651548676E-01  0.64848557143E-01  0.00000000000E+00 0. -1.
     999901    1    1    2    0    0  0.37683585980E-01  0.16822118662E-01 -0.33063421216E-01  0.88158733325E+00  0.88000000000E+00 0. -1.
        -11    1    3    3    0    0 -0.18369410423E-01 -0.53199167307E-01  0.55738552675E-01  0.79212587489E-01  0.51100000000E-03 0.  1.
         11    1    3    3    0    0  0.30098186290E-02 -0.15012162442E-01  0.99764172177E-02  0.18281522115E-01  0.51100000000E-03 0. -1.
</event>
<event>
 8    1  0.1161093E+005  0.1043930E+01  0.7957747E-01            NaN
         13   -1    0    0    0    0  0.00000000000E+00  0.00000000000E+00  0.74505805969E-08  0.10566000000E+00  0.10566000000E+00 0. -1.
     999900   -1    0    0    0    0 -0.00000000000E+00 -0.00000000000E+00 -0.74505805969E-08  0.93827000000E+00  0.93827000000E+00 0.  1.
     999902    2    1    2    0    0  0.50003071370E-02  0.22112664264E-01 -0.42626243731E-02  0.10208617760E+01  0.10206011085E+01 0.  0.
     999903    2    3    3    0    0 -0.57401029687E-01 -0.33148865914E-01  0.10951237620E+00  0.12963087757E+00  0.20432287108E-01 0.  0.
         14    1    1    2    0    0 -0.50003071370E-02 -0.22112664264E-01  0.42626243731E-02  0.23068224008E-01  0.00000000000E+00 0.  1.
     999901    1    3    3    0    0  0.62401336824E-01  0.55261530178E-01 -0.11377500058E+00  0.89123089843E+00  0.88000000000E+00 0.  1.
        -11    1    4    4    0    0 -0.23982325187E-01 -0.12413090702E-01  0.26832118649E-01  0.38071780289E-01  0.51100000000E-03 0. -1.
         11    1    4    4    0    0 -0.33418704500E-01 -0.20735775212E-01  0.82680257553E-01  0.91559097277E-01  0.51100000000E-03 0.  1.
</event>
<event>
 8    1  0.1161093E+005  0.1043930E+01  0.7957747E-01            NaN
         13   -1    0    0    0    0  0.00000000000E+00  0.00000000000E+00  0.74505805969E-08  0.10566000000E+00  0.10566000000E+00 0. -1.
     999900   -1    0    0    0    0 -0.00000000000E+00 -0.00000000000E+00 -0.74505805969E-08  0.93827000000E+00  0.93827000000E+00 0. -1.
     999902    2    1    2    0    0  0.12331768729E-01  0.33294089866E-02  0.85741238667E-03  0.10311279439E+01  0.10310484683E+01 0.  0.
     999903    2    3    3    0    0 -0.35513526031E-01 -0.89102024914E-01 -0.99043572590E-01  0.13938081103E+00  0.20420573840E-01 0.  0.
         14    1    1    2    0    0 -0.12331768729E-01 -0.33294089866E-02 -0.85741238667E-03  0.12802056092E-01  0.00000000000E+00 0. -1.
     999901    1    3    3    0    0  0.47845294760E-01  0.92431433900E-01  0.99900984977E-01  0.89174713288E+00  0.88000000000E+00 0.  1.
        -11    1    4    4    0    0 -0.14153277615E-01 -0.61737228451E-01 -0.63060597951E-01  0.89379532215E-01  0.51100000000E-03 0.  1.
         11    1    4    4    0    0 -0.21360248416E-01 -0.27364796463E-01 -0.35982974639E-01  0.50001278811E-01  0.51100000000E-03 0. -1.
</event>
<event>
 8    1  0.1161093E+005  0.1043930E+01  0.7957747E-01            NaN
         13   -1    0    0    0    0  0.00000000000E+00  0.00000000000E+00  0.74505805969E-08  0.10566000000E+00  0.10566000000E+00 0. -1.
     999900   -1    0    0    0    0 -0.00000000000E+00 -0.00000000000E+00 -0.74505805969E-08  0.93827000000E+00  0.93827000000E+00 0.  1.
     999902    2    1    2    0    0  0.16728248857E-02  0.10699481214E-01  0.21144511047E-01  0.10201735779E+01  0.10198969367E+01 0.  0.
     999903    2    3    3    0    0 -0.80369573501E-01  0.85040784939E-01  0.58424081779E-01  0.13245326672E+00  0.20959272055E-01 0.  0.
         14    1    1    2    0    0 -0.16728248857E-02 -0.10699481214E-01 -0.21144511047E-01  0.23756422053E-01  0.00000000000E+00 0. -1.
     999901    1    3    3    0    0  0.82042398387E-01 -0.74341303724E-01 -0.37279570732E-01  0.88772031123E+00  0.88000000000E+00 0. -1.
        -11    1    4    4    0    0 -0.33988534670E-01  0.31522488085E-01  0.34180155442E-01  0.57597151762E-01  0.51100000000E-03 0. -1.
         11    1    4    4    0    0 -0.46381038832E-01  0.53518296853E-01  0.24243926337E-01  0.74856114957E-01  0.51100000000E-03 0.  1.
</event>
<event>
 8    1  0.1161093E+005  0.1043930E+01  0.7957747E-01            NaN
         13   -1    0    0    0    0  0.00000000000E+00  0.00000000000E+00  0.74505805969E-08  0.10566000000E+00  0.10566000000E+00 0. -1.
     999900   -1    0    0    0    0 -0.00000000000E+00 -0.00000000000E+00 -0.74505805969E-08  0.93827000000E+00  0.93827000000E+00 0.  1.
     999902    2    1    2    0    0 -0.39302391264E-02 -0.94280951574E-02  0.21148760258E-01  0.10204437100E+01  0.10201733968E+01 0.  0.
     999903    2    3    3    0    0 -0.33873853334E-01 -0.95109058641E-01 -0.79532353486E-01  0.13006483884E+00  0.19957356421E-01 0.  0.
         14    1    1    2    0    0  0.39302391264E-02  0.94280951574E-02 -0.21148760258E-01  0.23486290008E-01  0.00000000000E+00 0.  1.
     999901    1    3    3    0    0  0.29943614207E-01  0.85680963484E-01  0.10068111374E+00  0.89037887116E+00  0.88000000000E+00 0. -1.
        -11    1    4    4    0    0 -0.20411005727E-02 -0.84960289595E-02 -0.15317120518E-01  0.17641539094E-01  0.51100000000E-03 0.  1.
         11    1    4    4    0    0 -0.31832752761E-01 -0.86613029681E-01 -0.64215232968E-01  0.11242329974E+00  0.51100000000E-03 0. -1.
</event>
<event>
 8    1  0.1161093E+005  0.1043930E+01  0.7957747E-01            NaN
         13   -1    0    0    0    0  0.00000000000E+00  0.00000000000E+00  0.74505805969E-08  0.10566000000E+00  0.10566000000E+00 0. -1.
     999900   -1    0    0    0    0 -0.00000000000E+00 -0.00000000000E+00 -0.74505805969E-08  0.93827000000E+00  0.93827000000E+00 0. -1.
     999902    2    1    2    0    0 -0.44497397405E-02 -0.22931042404E-01  0.18577892432E-02  0.10204974528E+01  0.10202283895E+01 0.  0.
     999903    2    3    3    0    0  0.98345653364E-01 -0.73841861974E-01 -0.43479982897E-01  0.13189500060E+00  0.19526754863E-01 0.  0.
         14    1    1    2    0    0  0.44497397405E-02  0.22931042404E-01 -0.18577892432E-02  0.23432547244E-01  0.00000000000E+00 0.  1.
     999901    1    3    3    0    0 -0.10279539310E+00  0.50910819570E-01  0.45337772140E-01  0.88860245215E+00  0.88000000000E+00 0. -1.
        -11    1    4    4    0    0  0.30733771728E-01 -0.12707402143E-01 -0.14062165457E-01  0.36111610490E-01  0.51100000000E-03 0. -1.
         11    1    4    4    0    0  0.67611881636E-01 -0.61134459831E-01 -0.29417817440E-01  0.95783390111E-01  0.51100000000E-03 0.  1.
</event>
<event>
 8    1  0.1161093E+005  0.1043930E+01  0.7957747E-01            NaN
         13   -1    0    0    0    0  0.00000000000E+00  0.00000000000E+00  0.74505805969E-08  0.10566000000E+00  0.10566000000E+00 0.  1.
     999900   -1    0    0    0    0 -0.00000000000E+00 -0.00000000000E+00 -0.74505805969E-08  0.93827000000E+00  0.93827000000E+00 0. -1.
     999902    2    1    2    0    0 -0.22839021176E-01  0.64151361495E-02  0.35698122264E-02  0.10199400350E+01  0.10196578625E+01 0.  0.
     999903    2    3    3    0    0  0.87821520157E-01  0.75500286232E-01 -0.52064833985E-01  0.12858503996E+00  0.20259638199E-01 0.  0.
         14    1    1    2    0    0  0.22839021176E-01 -0.64151361495E-02 -0.35698122264E-02  0.23989964974E-01  0.00000000000E+00 0. -1.
     999901    1    3    3    0    0 -0.11066054133E+00 -0.69085150082E-01  0.55634646212E-01  0.89135499507E+00  0.88000000000E+00 0.  1.
        -11    1    4    4    0    0  0.41034457964E-01  0.41770004762E-01 -0.16558525060E-01  0.60852328726E-01  0.51100000000E-03 0.  1.
         11    1    4    4    0    0  0.46787062192E-01  0.33730281470E-01 -0.35506308925E-01  0.67732711234E-01  0.51100000000E-03 0. -1.
</event>
<event>
 8    1  0.1161093E+005  0.1043930E+01  0.7957747E-01            NaN
         13   -1    0    0    0    0  0.00000000000E+00  0.00000000000E+00  0.74505805969E-08  0.10566000000E+00  0.10566000000E+00 0.  1.
     999900   -1    0    0    0    0 -0.00000000000E+00 -0.00000000000E+00 -0.74505805969E-08  0.93827000000E+00  0.93827000000E+00 0.  1.
     999902    2    1    2    0    0  0.10574066357E-01 -0.20215513532E-01  0.49034564755E-02  0.10205950101E+01  0.10203282084E+01 0.  0.
     999903    2    3    3    0    0  0.10716386350E+00  0.67400746477E-01 -0.24586963773E-01  0.13049620505E+00  0.19944585172E-01 0.  0.
         14    1    1    2    0    0 -0.10574066357E-01  0.20215513532E-01 -0.49034564755E-02  0.23334989867E-01  0.00000000000E+00 0. -1.
     999901    1    3    3    0    0 -0.96589797144E-01 -0.87616260009E-01  0.29490420249E-01  0.89009880509E+00  0.88000000000E+00 0. -1.
        -11    1    4    4    0    0  0.47322842701E-01  0.38441065348E-01 -0.18601716503E-01  0.63745210991E-01  0.51100000000E-03 0.  1.
         11    1    4    4    0    0  0.59841020800E-01  0.28959681129E-01 -0.59852472707E-02  0.66750994056E-01  0.51100000000E-03 0. -1.
</event>
<event>
 8    1  0.1161093E+005  0.1043930E+01  0.7957747E-01            NaN
         13   -1    0    0    0    0  0.00000000000E+00  0.00000000000E+00  0.74505805969E-08  0.10566000000E+00  0.10566000000E+00 0. -1.
     999900   -1    0    0    0    0 -0.00000000000E+00 -0.00000000000E+00 -0.74505805969E-08  0.93827000000E+00  0.93827000000E+00 0.  1.
     999902    2    1    2    0    0  0.14004030113E-01 -0.11615114767E-01  0.14227104420E-01  0.10208338044E+01  0.10205724972E+01 0.  0.
     999903    2    3    3    0    0 -0.49570062080E-01  0.94246157116E-01 -0.68630931547E-01  0.12835762646E+00  0.20638467012E-01 0.  0.
         14    1    1    2    0    0 -0.14004030113E-01  0.11615114767E-01 -0.14227104420E-01  0.23096195588E-01  0.00000000000E+00 0.  1.
     999901    1    3    3    0    0  0.63574092193E-01 -0.10586127188E+00  0.82858035967E-01  0.89247617795E+00  0.88000000000E+00 0. -1.
        -11    1    4    4    0    0 -0.16483992027E-03  0.15078461405E-01 -0.80943280421E-02  0.17122103784E-01  0.51100000000E-03 0. -1.
         11    1    4    4    0    0 -0.49405222160E-01  0.79167695710E-01 -0.60536603505E-01  0.11123552268E+00  0.51100000000E-03 0.  1.
</event>
<event>
 8    1  0.1161093E+005  0.1043930E+01  0.7957747E-01            NaN
         13   -1    0    0    0    0  0.00000000000E+00  0.00000000000E+00  0.74505805969E-08  0.10566000000E+00  0.10566000000E+00 0.  1.
     999900   -1    0    0    0    0 -0.00000000000E+00 -0.00000000000E+00 -0.74505805969E-08  0.93827000000E+00  0.93827000000E+00 0. -1.
     999902    2    1    2    0    0  0.10774166024E-01  0.16396248754E-01 -0.12196003186E-01  0.10208288719E+01  0.10205674517E+01 0.  0.
     999903    2    3    3    0    0  0.25463525131E-01  0.60518484290E-01  0.11220410824E+00  0.13086373961E+00  0.14989275698E-01 0.  0.
         14    1    1    2    0    0 -0.10774166024E-01 -0.16396248754E-01  0.12196003186E-01  0.23101128120E-01  0.00000000000E+00 0.  1.
     999901    1    3    3    0    0 -0.14689359106E-01 -0.44122235536E-01 -0.12440011142E+00  0.88996513227E+00  0.88000000000E+00 0. -1.
        -11    1    4    4    0    0  0.15795595091E-01  0.38218711648E-01  0.55904211133E-01  0.69539288807E-01  0.51100000000E-03 0. -1.
         11    1    4    4    0    0  0.96679300393E-02  0.22299772642E-01  0.56299897103E-01  0.61324450800E-01  0.51100000000E-03 0.  1.
</event>
<event>
 8    1  0.1161093E+005  0.1043930E+01  0.7957747E-01            NaN
         13   -1    0    0    0    0  0.00000000000E+00  0.00000000000E+00  0.74505805969E-08  0.10566000000E+00  0.10566000000E+00 0.  1.
     999900   -1    0    0    0    0 -0.00000000000E+00 -0.00000000000E+00 -0.74505805969E-08  0.93827000000E+00  0.93827000000E+00 0.  1.
     999902    2    1    2    0    0 -0.17857091524E-01  0.15521213228E-01  0.86839523701E-02  0.10187269286E+01  0.10184151218E+01 0.  0.
     999903    2    3    3    0    0 -0.66056350278E-01 -0.16167566979E-01 -0.10753411503E+00  0.12921358611E+00  0.22532938207E-01 0.  0.
         14    1    1    2    0    0  0.17857091524E-01 -0.15521213228E-01 -0.86839523701E-02  0.25203071371E-01  0.00000000000E+00 0.  1.
     999901    1    3    3    0    0  0.48199258755E-01  0.31688780207E-01  0.11621806740E+00  0.88951334252E+00  0.88000000000E+00 0. -1.
        -11    1    4    4    0    0 -0.57828765932E-01 -0.12334999366E-01 -0.75417567507E-01  0.95835217891E-01  0.51100000000E-03 0. -1.
         11    1    4    4    0    0 -0.82275843468E-02 -0.38325676137E-02 -0.32116547526E-01  0.33378368215E-01  0.51100000000E-03 0.  1.
</event>
<event>
 8    1  0.1161093E+005  0.1043930E+01  0.7957747E-01            NaN
         13   -1    0    0    0    0  0.00000000000E+00  0.00000000000E+00  0.74505805969E-08  0.10566000000E+00  0.10566000000E+00 0. -1.
     999900   -1    0    0    0    0 -0.00000000000E+00 -0.00000000000E+00 -0.74505805969E-08  0.93827000000E+00  0.93827000000E+00 0.  1.
     999902    2    1    2    0    0  0.18496055757E-01 -0.16174607663E-02  0.19655421074E-01  0.10168919558E+01  0.10165324362E+01 0.  0.
     999903    2    3    3    0    0 -0.62563946601E-01  0.83692018533E-01  0.70515526048E-01  0.12760281184E+00  0.19784761703E-01 0.  0.
         14    1    1    2    0    0 -0.18496055757E-01  0.16174607663E-02 -0.19655421074E-01  0.27038044225E-01  0.00000000000E+00 0.  1.
     999901    1    3    3    0    0  0.81060002358E-01 -0.85309479299E-01 -0.50860104974E-01  0.88928914393E+00  0.88000000000E+00 0. -1.
        -11    1    4    4    0    0 -0.41305848012E-01  0.56896306727E-01  0.58105825109E-01  0.91213545221E-01  0.51100000000E-03 0. -1.
         11    1    4    4    0    0 -0.21258098589E-01  0.26795711805E-01  0.12409700939E-01  0.36389266621E-01  0.51100000000E-03 0.  1.
</event>
<event>
 8    1  0.1161093E+005  0.1043930E+01  0.7957747E-01            NaN
         13   -1    0    0    0    0  0.00000000000E+00  0.00000000000E+00  0.74505805969E-08  0.10566000000E+00  0.10566000000E+00 0. -1.
     999900   -1    0    0    0    0 -0.00000000000E+00 -0.00000000000E+00 -0.74505805969E-08  0.93827000000E+00  0.93827000000E+00 0.  1.
     999902    2    1    2    0    0 -0.21754136211E-01  0.31250987527E-02 -0.74023129379E-02  0.10207394217E+01  0.10204759498E+01 0.  0.
     999903    2    3    3    0    0 -0.77096116837E-01 -0.48816040684E-02  0.10496848767E+00  0.13183333053E+00  0.19849492350E-01 0.  0.
         14    1    1    2    0    0  0.21754136211E-01 -0.31250987527E-02  0.74023129379E-02  0.23190578288E-01  0.00000000000E+00 0.  1.
     999901    1    3    3    0    0  0.55341980626E-01  0.80067028211E-02 -0.11237080060E+00  0.88890609118E+00  0.88000000000E+00 0.  1.
        -11    1    4    4    0    0 -0.60292824660E-01 -0.77314634269E-02  0.68549127129E-01  0.91620107964E-01  0.51100000000E-03 0. -1.
         11    1    4    4    0    0 -0.16803292177E-01  0.28498593584E-02  0.36419360537E-01  0.40213222567E-01  0.51100000000E-03 0.  1.
</event>
<event>
 8    1  0.1161093E+005  0.1043930E+01  0.7957747E-01            NaN
         13   -1    0    0    0    0  0.00000000000E+00  0.00000000000E+00  0.74505805969E-08  0.10566000000E+00  0.10566000000E+00 0. -1.
     999900   -1    0    0    0    0 -0.00000000000E+00 -0.00000000000E+00 -0.74505805969E-08  0.93827000000E+00  0.93827000000E+00 0. -1.
     999902    2    1    2    0    0  0.81576907640E-02  0.14409591945E-01 -0.17416364382E-01  0.10198984789E+01  0.10196153163E+01 0.  0.
     999903    2    3    3    0    0  0.10872830282E+00 -0.62802904555E-01  0.26914968077E-01  0.12970665425E+00  0.18257929620E-01 0.  0.
         14    1    1    2    0    0 -0.81576907640E-02 -0.14409591945E-01  0.17416364382E-01  0.24031521111E-01  0.00000000000E+00 0. -1.
     999901    1    3    3    0    0 -0.10057061206E+00  0.77212496499E-01 -0.44331332459E-01  0.89019182464E+00  0.88000000000E+00 0.  1.
        -11    1    4    4    0    0  0.93440867823E-01 -0.52299993678E-01  0.29249180218E-01  0.11100567906E+00  0.51100000000E-03 0.  1.
         11    1    4    4    0    0  0.15287434998E-01 -0.10502910876E-01 -0.23342121411E-02  0.18700975189E-01  0.51100000000E-03 0. -1.
</event>
<event>
 8    1  0.1161093E+005  0.1043930E+01  0.7957747E-01            NaN
         13   -1    0    0    0    0  0.00000000000E+00  0.00000000000E+00  0.74505805969E-08  0.10566000000E+00  0.10566000000E+00 0. -1.
     999900   -1    0    0    0    0 -0.00000000000E+00 -0.00000000000E+00 -0.74505805969E-08  0.93827000000E+00  0.93827000000E+00 0.  1.
     999902    2    1    2    0    0  0.12149558040E-01  0.64175623215E-02  0.18879593801E-01  0.10205797124E+01  0.10203125568E+01 0.  0.
     999903    2    3    3    0    0  0.12256471799E+00  0.33295430960E-01  0.34446846872E-01  0.13313604283E+00  0.20197148872E-01 0.  0.
         14    1    1    2    0    0 -0.12149558040E-01 -0.64175623215E-02 -0.18879593801E-01  0.23350287553E-01  0.00000000000E+00 0.  1.
     999901    1    3    3    0    0 -0.11041515995E+00 -0.26877868639E-01 -0.15567253071E-01  0.88744366961E+00  0.88000000000E+00 0.  1.
        -11    1    4    4    0    0  0.12989760456E-01  0.98014193518E-02  0.72180929420E-02  0.17809089947E-01  0.51100000000E-03 0. -1.
         11    1    4    4    0    0  0.10957495754E+00  0.23494011609E-01  0.27228753930E-01  0.11532695289E+00  0.51100000000E-03 0.  1.
</event>
<event>
 8    1  0.1161093E+005  0.1043930E+01  0.7957747E-01            NaN
         13   -1    0    0    0    0  0.00000000000E+00  0.00000000000E+00  0.74505805969E-08  0.10566000000E+00  0.10566000000E+00 0.  1.
     999900   -1    0    0    0    0 -0.00000000000E+00 -0.00000000000E+00 -0.74505805969E-08  0.93827000000E+00  0.93827000000E+00 0. -1.
     999902    2    1    2    0    0  0.12145967516E-01  0.19968272287E-01 -0.48377041899E-02  0.10200624529E+01  0.10197831867E+01 0.  0.
     999903    2    3    3    0    0  0.89441313461E-01 -0.15200058153E-02  0.93318866051E-01  0.13097807616E+00  0.21089966848E-01 0.  0.
         14    1    1    2    0    0 -0.12145967516E-01 -0.19968272287E-01  0.48377041899E-02  0.23867547148E-01  0.00000000000E+00 0.  1.
     999901    1    3    3    0    0 -0.77295345945E-01  0.21488278103E-01 -0.98156570241E-01  0.88908437669E+00  0.88000000000E+00 0. -1.
        -11    1    4    4    0    0  0.62882110043E-01 -0.10594680031E-01  0.67038134844E-01  0.92524481370E-01  0.51100000000E-03 0. -1.
         11    1    4    4    0    0  0.26559203418E-01  0.90746742161E-02  0.26280731207E-01  0.38453594787E-01  0.51100000000E-03 0.  1.
</event>
<event>
 8    1  0.1161093E+005  0.1043930E+01  0.7957747E-01            NaN
         13   -1    0    0    0    0  0.00000000000E+00  0.00000000000E+00  0.74505805969E-08  0.10566000000E+00  0.10566000000E+00 0.  1.
     999900   -1    0    0    0    0 -0.00000000000E+00 -0.00000000000E+00 -0.74505805969E-08  0.93827000000E+00  0.93827000000E+00 0.  1.
     999902    2    1    2    0    0 -0.26950752297E-03 -0.21579800423E-01  0.94603414214E-02  0.10203660767E+01  0.10200939526E+01 0.  0.
     999903    2    3    3    0    0 -0.33127556812E-01  0.10227797335E-01  0.12537836582E+00  0.13158693483E+00  0.19832900502E-01 0.  0.
         14    1    1    2    0    0  0.26950752297E-03  0.21579800423E-01 -0.94603414214E-02  0.23563923281E-01  0.00000000000E+00 0.  1.
     999901    1    3    3    0    0  0.32858049289E-01 -0.31807597758E-01 -0.11591802440E+00  0.88877914189E+00  0.88000000000E+00 0.  1.
        -11    1    4    4    0    0 -0.23701879154E-01 -0.66181838677E-03  0.57565726643E-01  0.62259867362E-01  0.51100000000E-03 0. -1.
         11    1    4    4    0    0 -0.94256776583E-02  0.10889615722E-01  0.67812639181E-01  0.69327067467E-01  0.51100000000E-03 0.  1.
</event>
<event>
 8    1  0.1161093E+005  0.1043930E+01  0.7957747E-01            NaN
         13   -1    0    0    0    0  0.00000000000E+00  0.00000000000E+00  0.74505805969E-08  0.10566000000E+00  0.10566000000E+00 0.  1.
     999900   -1    0    0    0    0 -0.00000000000E+00 -0.00000000000E+00 -0.74505805969E-08  0.93827000000E+00  0.93827000000E+00 0. -1.
     999902    2    1    2    0    0  0.24103826737E-02 -0.15503064851E-01  0.96975355033E-02  0.10254855656E+01  0.10253196810E+01 0.  0.
     999903    2    3    3    0    0  0.11207562156E+00 -0.25881583308E-01  0.70733472473E-01  0.13652011981E+00  0.20092727080E-01 0.  0.
         14    1    1    2    0    0 -0.24103826737E-02  0.15503064851E-01 -0.96975355033E-02  0.18444434370E-01  0.00000000000E+00 0.  1.
     999901    1    3    3    0    0 -0.10966523889E+00  0.10378518457E-01 -0.61035936970E-01  0.88896544582E+00  0.88000000000E+00 0. -1.
        -11    1    4    4    0    0  0.29250570305E-01  0.22477835210E-03  0.24364658945E-01  0.38072878995E-01  0.51100000000E-03 0. -1.
         11    1    4    4    0    0  0.82825051254E-01 -0.26106361661E-01  0.46368813528E-01  0.98447240812E-01  0.51100000000E-03 0.  1.
</event>
<event>
 8    1  0.1161093E+005  0.1043930E+01  0.7957747E-01            NaN
         13   -1    0    0    0    0  0.00000000000E+00  0.00000000000E+00  0.74505805969E-08  0.10566000000E+00  0.10566000000E+00 0.  1.
     999900   -1    0    0    0    0 -0.00000000000E+00 -0.00000000000E+00 -0.74505805969E-08  0.93827000000E+00  0.93827000000E+00 0. -1.
     999902    2    1    2    0    0  0.21795548856E-01  0.66763282784E-02 -0.19934453754E-02  0.10210478425E+01  0.10207914104E+01 0.  0.
     999903    2    3    3    0    0  0.93518261967E-01 -0.88453566944E-01 -0.25152774442E-01  0.13271783674E+00  0.20289487427E-01 0.  0.
         14    1    1    2    0    0 -0.21795548856E-01 -0.66763282784E-02  0.19934453754E-02  0.22882157540E-01  0.00000000000E+00 0.  1.
     999901    1    3    3    0    0 -0.71722713111E-01  0.95129895223E-01  0.23159329067E-01  0.88833000572E+00  0.88000000000E+00 0.  1.
        -11    1    4    4    0    0  0.14114246111E-01 -0.23988461725E-01 -0.24159100432E-02  0.27942011051E-01  0.51100000000E-03 0.  1.
         11    1    4    4    0    0  0.79404015856E-01 -0.64465105219E-01 -0.22736864399E-01  0.10477582569E+00  0.51100000000E-03 0. -1.
</event>
<event>
 8    1  0.1161093E+005  0.1043930E+01  0.7957747E-01            NaN
         13   -1    0    0    0    0  0.00000000000E+00  0.00000000000E+00  0.74505805969E-08  0.10566000000E+00  0.10566000000E+00 0.  1.
     999900   -1    0    0    0    0 -0.00000000000E+00 -0.00000000000E+00 -0.74505805969E-08  0.93827000000E+00  0.93827000000E+00 0.  1.
     999902    2    1    2    0    0 -0.21202625718E-01 -0.85640317575E-02  0.66052248354E-02  0.10201282569E+01  0.10198505467E+01 0.  0.
     999903    2    3    3    0    0  0.23285669753E-02  0.90645289954E-01 -0.89527504493E-01  0.12904032178E+00  0.20352881131E-01 0.  0.
         14    1    1    2    0    0  0.21202625718E-01  0.85640317575E-02 -0.66052248354E-02  0.23801743054E-01  0.00000000000E+00 0. -1.
     999901    1    3    3    0    0 -0.23531192693E-01 -0.99209321712E-01  0.96132729328E-01  0.89108793516E+00  0.88000000000E+00 0.  1.
        -11    1    4    4    0    0 -0.71813927941E-02  0.17112475449E-01 -0.21602022252E-01  0.28483639248E-01  0.51100000000E-03 0.  1.
         11    1    4    4    0    0  0.95099597693E-02  0.73532814505E-01 -0.67925482240E-01  0.10055668254E+00  0.51100000000E-03 0. -1.
</event>
<event>
 8    1  0.1161093E+005  0.1043930E+01  0.7957747E-01            NaN
         13   -1    0    0    0    0  0.00000000000E+00  0.00000000000E+00  0.74505805969E-08  0.10566000000E+00  0.10566000000E+00 0. -1.
     999900   -1    0    0    0    0 -0.00000000000E+00 -0.00000000000E+00 -0.74505805969E-08  0.93827000000E+00  0.93827000000E+00 0.  1.
     999902    2    1    2    0    0 -0.23620175602E-01  0.91583198137E-02  0.49360810351E-02  0.10181200714E+01  0.10177928706E+01 0.  0.
     999903    2    3    3    0    0  0.96975592173E-01 -0.70278489156E-01  0.33947646897E-01  0.12587839072E+00  0.18697459856E-01 0.  0.
         14    1    1    2    0    0  0.23620175602E-01 -0.91583198137E-02 -0.49360810351E-02  0.25809928580E-01  0.00000000000E+00 0.  1.
     999901    1    3    3    0    0 -0.12059576778E+00  0.79436808970E-01 -0.29011565862E-01  0.89224168070E+00  0.88000000000E+00 0.  1.
        -11    1    4    4    0    0  0.52661268390E-01 -0.35944781146E-01  0.27532356089E-01  0.69451625128E-01  0.51100000000E-03 0.  1.
         11    1    4    4    0    0  0.44314323783E-01 -0.34333708010E-01  0.64152908079E-02  0.56426765592E-01  0.51100000000E-03 0. -1.
</event>
<event>
 8    1  0.1161093E+005  0.1043930E+01  0.7957747E-01            NaN
         13   -1    0    0    0    0  0.00000000000E+00  0.00000000000E+00  0.74505805969E-08  0.10566000000E+00  0.10566000000E+00 0.  1.
     999900   -1    0    0    0    0 -0.00000000000E+00 -0.00000000000E+00 -0.74505805969E-08  0.93827000000E+00  0.93827000000E+00 0. -1.
     999902    2    1    2    0    0 -0.17460050296E-01  0.97051335437E-04  0.18194462222E-01  0.10187129179E+01  0.10184007599E+01 0.  0.
     999903    2    3    3    0    0 -0.19132551130E-01 -0.12600339409E+00 -0.89690060105E-02  0.12930751335E+00  0.19926868891E-01 0.  0.
         14    1    1    2    0    0  0.17460050296E-01 -0.97051335437E-04 -0.18194462222E-01  0.25217082124E-01  0.00000000000E+00 0. -1.
     999901    1    3    3    0    0  0.16725008341E-02  0.12610044543E+00  0.27163468232E-01  0.88940540453E+00  0.88000000000E+00 0.  1.
        -11    1    4    4    0    0  0.20468530873E-03 -0.63566224996E-01 -0.24111072048E-02  0.63614317691E-01  0.51100000000E-03 0. -1.
         11    1    4    4    0    0 -0.19337236439E-01 -0.62437169097E-01 -0.65578988057E-02  0.65693195658E-01  0.51100000000E-03 0.  1.
</event>
<event>
 8    1  0.1161093E+005  0.1043930E+01  0.7957747E-01            NaN
         13   -1    0    0    0    0  0.00000000000E+00  0.00000000000E+00  0.74505805969E-08  0.10566000000E+00  0.10566000000E+00 0.  1.
     999900   -1    0    0    0    0 -0.00000000000E+00 -0.00000000000E+00 -0.74505805969E-08  0.93827000000E+00  0.93827000000E+00 0. -1.
     999902    2    1    2    0    0 -0.46647470812E-02 -0.24945082338E-02  0.19653270910E-01  0.10235772731E+01  0.10233749071E+01 0.  0.
     999903    2    3    3    0    0  0.95282265407E-01  0.61807641664E-01 -0.63680191547E-01  0.13168678776E+00  0.19681173925E-01 0.  0.
         14    1    1    2    0    0  0.46647470812E-02  0.24945082338E-02 -0.19653270910E-01  0.20352726945E-01  0.00000000000E+00 0. -1.
     999901    1    3    3    0    0 -0.99947012488E-01 -0.64302149898E-01  0.83333462457E-01  0.89189048529E+00  0.88000000000E+00 0.  1.
        -11    1    4    4    0    0  0.14005432594E-01  0.18245597886E-01 -0.14165309872E-01  0.27017977518E-01  0.51100000000E-03 0. -1.
         11    1    4    4    0    0  0.81276832813E-01  0.43562043778E-01 -0.49514881676E-01  0.10466881025E+00  0.51100000000E-03 0.  1.
</event>
<event>
 8    1  0.1161093E+005  0.1043930E+01  0.7957747E-01            NaN
         13   -1    0    0    0    0  0.00000000000E+00  0.00000000000E+00  0.74505805969E-08  0.10566000000E+00  0.10566000000E+00 0. -1.
     999900   -1    0    0    0    0 -0.00000000000E+00 -0.00000000000E+00 -0.74505805969E-08  0.93827000000E+00  0.93827000000E+00 0.  1.
     999902    2    1    2    0    0 -0.17288830560E-01  0.12940038282E-01  0.75166703271E-02  0.10210641174E+01  0.10208080541E+01 0.  0.
     999903    2    3    3    0    0  0.47896562512E-01  0.56364783739E-01  0.10707042186E+00  0.13199393267E+00  0.22073818855E-01 0.  0.
         14    1    1    2    0    0  0.17288830560E-01 -0.12940038282E-01 -0.75166703271E-02  0.22865882569E-01  0.00000000000E+00 0.  1.
     999901    1    3    3    0    0 -0.65185393071E-01 -0.43424745457E-01 -0.99553751528E-01  0.88907018476E+00  0.88000000000E+00 0.  1.
        -11    1    4    4    0    0  0.30674858973E-01  0.21542237521E-01  0.62372885928E-01  0.72771237384E-01  0.51100000000E-03 0.  1.
         11    1    4    4    0    0  0.17221703538E-01  0.34822546218E-01  0.44697535928E-01  0.59222695285E-01  0.51100000000E-03 0. -1.
</event>
<event>
 8    1  0.1161093E+005  0.1043930E+01  0.7957747E-01            NaN
         13   -1    0    0    0    0  0.00000000000E+00  0.00000000000E+00  0.74505805969E-08  0.10566000000E+00  0.10566000000E+00 0.  1.
     999900   -1    0    0    0    0 -0.00000000000E+00 -0.00000000000E+00 -0.74505805969E-08  0.93827000000E+00  0.93827000000E+00 0.  1.
     999902    2    1    2    0    0  0.10345352091E-01  0.32387559213E-02  0.20042508883E-01  0.10211436442E+01  0.10208893789E+01 0.  0.
     999903    2    3    3    0    0 -0.74618380453E-01 -0.94245987199E-01  0.48794442455E-01  0.13122860065E+00  0.19744346290E-01 0.  0.
         14    1    1    2    0    0 -0.10345352091E-01 -0.32387559213E-02 -0.20042508883E-01  0.22786355832E-01  0.00000000000E+00 0. -1.
     999901    1    3    3    0    0  0.84963732544E-01  0.97484743120E-01 -0.28751933573E-01  0.88991504351E+00  0.88000000000E+00 0.  1.
        -11    1    4    4    0    0 -0.45341820023E-01 -0.63760601747E-01  0.40690908263E-01  0.88189036248E-01  0.51100000000E-03 0. -1.
         11    1    4    4    0    0 -0.29276560430E-01 -0.30485385452E-01  0.81035341920E-02  0.43039564405E-01  0.51100000000E-03 0.  1.
</event>
<event>
 8    1  0.1161093E+005  0.1043930E+01  0.7957747E-01            NaN
         13   -1    0    0    0    0  0.00000000000E+00  0.00000000000E+00  0.74505805969E-08  0.10566000000E+00  0.10566000000E+00 0. -1.
     999900   -1    0    0    0    0 -0.00000000000E+00 -0.00000000000E+00 -0.74505805969E-08  0.93827000000E+00  0.93827000000E+00 0. -1.
     999902    2    1    2    0    0  0.46844886534E-02 -0.25234348162E-02  0.22830474594E-01  0.10204876723E+01  0.10202183818E+01 0.  0.
     999903    2    3    3    0    0 -0.11749795928E+00  0.50240032459E-01  0.17836683505E-01  0.13046662087E+00  0.19327715477E-01 0.  0.
         14    1    1    2    0    0 -0.46844886534E-02  0.25234348162E-02 -0.22830474594E-01  0.23442327687E-01  0.00000000000E+00 0.  1.
     999901    1    3    3    0    0  0.12218244794E+00 -0.52763467275E-01  0.49937910884E-02  0.89002105144E+00  0.88000000000E+00 0.  1.
        -11    1    4    4    0    0 -0.68355979366E-01  0.35440748851E-01  0.18283980845E-01  0.79140076262E-01  0.51100000000E-03 0. -1.
         11    1    4    4    0    0 -0.49141979916E-01  0.14799283608E-01 -0.44729733989E-03  0.51326544607E-01  0.51100000000E-03 0.  1.
</event>
<event>
 8    1  0.1161093E+005  0.1043930E+01  0.7957747E-01            NaN
         13   -1    0    0    0    0  0.00000000000E+00  0.00000000000E+00  0.74505805969E-08  0.10566000000E+00  0.10566000000E+00 0.  1.
     999900   -1    0    0    0    0 -0.00000000000E+00 -0.00000000000E+00 -0.74505805969E-08  0.93827000000E+00  0.93827000000E+00 0. -1.
     999902    2    1    2    0    0 -0.12649238473E-01 -0.93382715223E-02  0.18818715746E-01  0.10194075488E+01  0.10191125551E+01 0.  0.
     999903    2    3    3    0    0  0.38465809317E-01  0.10306963654E+00  0.65419561493E-01  0.12956490840E+00  0.20109152156E-01 0.  0.
         14    1    1    2    0    0  0.12649238473E-01  0.93382715223E-02 -0.18818715746E-01  0.24522451168E-01  0.00000000000E+00 0. -1.
     999901    1    3    3    0    0 -0.51115047790E-01 -0.11240790806E+00 -0.46600845747E-01  0.88984264043E+00  0.88000000000E+00 0.  1.
        -11    1    4    4    0    0  0.19341296285E-01  0.77609816708E-01  0.47306648792E-01  0.92927657521E-01  0.51100000000E-03 0.  1.
         11    1    4    4    0    0  0.19124513033E-01  0.25459819831E-01  0.18112912701E-01  0.36637250880E-01  0.51100000000E-03 0. -1.
</event>
<event>
 8    1  0.1161093E+005  0.1043930E+01  0.7957747E-01            NaN
         13   -1    0    0    0    0  0.00000000000E+00  0.00000000000E+00  0.74505805969E-08  0.10566000000E+00  0.10566000000E+00 0. -1.
     999900   -1    0    0    0    0 -0.00000000000E+00 -0.00000000000E+00 -0.74505805969E-08  0.93827000000E+00  0.93827000000E+00 0. -1.
     999902    2    1    2    0    0 -0.21974421839E-01 -0.11294886768E-01  0.26311314126E-02  0.10190830176E+01  0.10187800667E+01 0.  0.
     999903    2    3    3    0    0 -0.68690930497E-01  0.52607164175E-01 -0.95198298879E-01  0.13013054320E+00  0.19628665496E-01 0.  0.
         14    1    1    2    0    0  0.21974421839E-01  0.11294886768E-01 -0.26311314126E-02  0.24846982408E-01  0.00000000000E+00 0.  1.
     999901    1    3    3    0    0  0.46716508658E-01 -0.63902050942E-01  0.97829430292E-01  0.88895247439E+00  0.88000000000E+00 0.  1.
        -11    1    4    4    0    0 -0.35612585394E-01  0.30724239963E-01 -0.65215203587E-01  0.80408451420E-01  0.51100000000E-03 0. -1.
         11    1    4    4    0    0 -0.33078345103E-01  0.21882924211E-01 -0.29983095292E-01  0.49722091781E-01  0.51100000000E-03 0.  1.
</event>
<event>
 8    1  0.1161093E+005  0.1043930E+01  0.7957747E-01            NaN
         13   -1    0    0    0    0  0.00000000000E+00  0.00000000000E+00  0.74505805969E-08  0.10566000000E+00  0.10566000000E+00 0. -1.
     999900   -1    0    0    0    0 -0.00000000000E+00 -0.00000000000E+00 -0.74505805969E-08  0.93827000000E+00  0.93827000000E+00 0.  1.
     999902    2    1    2    0    0 -0.44116985240E-02  0.22287195349E-01  0.51276133660E-02  0.10206389163E+01  0.10203731293E+01 0.  0.
     999903    2    3    3    0    0  0.18538952951E-01 -0.35218329891E-01  0.12267725139E+00  0.13066614413E+00  0.20974023853E-01 0.  0.
         14    1    1    2    0    0  0.44116985240E-02 -0.22287195349E-01 -0.51276133660E-02  0.23291083685E-01  0.00000000000E+00 0.  1.
     999901    1    3    3    0    0 -0.22950651475E-01  0.57505525240E-01 -0.11754963802E+00  0.88997277219E+00  0.88000000000E+00 0.  1.
        -11    1    4    4    0    0  0.97166066871E-02 -0.13899425072E-02  0.22169121320E-01  0.24250266942E-01  0.51100000000E-03 0.  1.
         11    1    4    4    0    0  0.88223462640E-02 -0.33828387384E-01  0.10050813007E+00  0.10641587719E+00  0.51100000000E-03 0. -1.
</event>
<event>
 8    1  0.1161093E+005  0.1043930E+01  0.7957747E-01            NaN
         13   -1    0    0    0    0  0.00000000000E+00  0.00000000000E+00  0.74505805969E-08  0.10566000000E+00  0.10566000000E+00 0.  1.
     999900   -1    0    0    0    0 -0.00000000000E+00 -0.00000000000E+00 -0.74505805969E-08  0.93827000000E+00  0.93827000000E+00 0.  1.
     999902    2    1    2    0    0  0.22964745660E-01 -0.12840930302E-01 -0.13128231553E-03  0.10176186665E+01  0.10172784595E+01 0.  0.
     999903    2    3    3    0    0  0.27457174875E-01 -0.20961880598E-01  0.12257635106E+00  0.12905617855E+00  0.20910248492E-01 0.  0.
         14    1    1    2    0    0 -0.22964745660E-01  0.12840930302E-01  0.13128231553E-03  0.26311333476E-01  0.00000000000E+00 0. -1.
     999901    1    3    3    0    0 -0.44924292156E-02  0.81209502960E-02 -0.12270763337E+00  0.88856248798E+00  0.88000000000E+00 0.  1.
        -11    1    4    4    0    0  0.24936025501E-01 -0.24011383903E-01  0.93433582190E-01  0.99641594360E-01  0.51100000000E-03 0. -1.
         11    1    4    4    0    0  0.25211493746E-02  0.30495033055E-02  0.29142768867E-01  0.29414584186E-01  0.51100000000E-03 0.  1.
</event>
<event>
 8    1  0.1161093E+005  0.1043930E+01  0.7957747E-01            NaN
         13   -1    0    0    0    0  0.00000000000E+00  0.00000000000E+00  0.74505805969E-08  0.10566000000E+00  0.10566000000E+00 0. -1.
     999900   -1    0    0    0    0 -0.00000000000E+00 -0.00000000000E+00 -0.74505805969E-08  0.93827000000E+00  0.93827000000E+00 0.  1.
     999902    2    1    2    0    0  0.18102806407E-01 -0.17605160297E-01 -0.23453785839E-02  0.10185695176E+01  0.10182537542E+01 0.  0.
     999903    2    3    3    0    0  0.10576255538E+00  0.69645067614E-01 -0.10790922679E-01  0.12988050498E+00  0.26764678206E-01 0.  0.
         14    1    1    2    0    0 -0.18102806407E-01  0.17605160297E-01  0.23453785839E-02  0.25360482440E-01  0.00000000000E+00 0.  1.
     999901    1    3    3    0    0 -0.87659748971E-01 -0.87250227910E-01  0.84455440953E-02  0.88868901258E+00  0.88000000000E+00 0.  1.
        -11    1    4    4    0    0  0.78815220021E-01  0.55857981874E-01 -0.19129729644E-01  0.98479240062E-01  0.51100000000E-03 0. -1.
         11    1    4    4    0    0  0.26947335357E-01  0.13787085739E-01  0.83388069652E-02  0.31401264921E-01  0.51100000000E-03 0.  1.
</event>
<event>
 8    1  0.1161093E+005  0.1043930E+01  0.7957747E-01            NaN
         13   -1    0    0    0    0  0.00000000000E+00  0.00000000000E+00  0.74505805969E-08  0.10566000000E+00  0.10566000000E+00 0.  1.
     999900   -1    0    0    0    0 -0.00000000000E+00 -0.00000000000E+00 -0.74505805969E-08  0.93827000000E+00  0.93827000000E+00 0.  1.
     999902    2    1    2    0    0 -0.21179492457E-03 -0.19669360494E-01  0.12241703814E-01  0.10207613161E+01  0.10204983472E+01 0.  0.
     999903    2    3    3    0    0  0.54795711241E-01  0.11308607861E+00 -0.18362846031E-01  0.12858057727E+00  0.20118140840E-01 0.  0.
         14    1    1    2    0    0  0.21179492457E-03  0.19669360494E-01 -0.12241703814E-01  0.23168683855E-01  0.00000000000E+00 0. -1.
     999901    1    3    3    0    0 -0.55007506166E-01 -0.13275543910E+00  0.30604549845E-01  0.89218073887E+00  0.88000000000E+00 0.  1.
        -11    1    4    4    0    0  0.40326292136E-01  0.72910020499E-01 -0.20556260651E-01  0.85819006634E-01  0.51100000000E-03 0. -1.
         11    1    4    4    0    0  0.14469419105E-01  0.40176058112E-01  0.21934146204E-02  0.42761570637E-01  0.51100000000E-03 0.  1.
</event>
<event>
 8    1  0.1161093E+005  0.1043930E+01  0.7957747E-01            NaN
         13   -1    0    0    0    0  0.00000000000E+00  0.00000000000E+00  0.74505805969E-08  0.10566000000E+00  0.10566000000E+00 0.  1.
     999900   -1    0    0    0    0 -0.00000000000E+00 -0.00000000000E+00 -0.74505805969E-08  0.93827000000E+00  0.93827000000E+00 0. -1.
     999902    2    1    2    0    0 -0.16906105256E-01  0.46809051705E-02  0.16459573648E-01  0.10198749624E+01  0.10195912388E+01 0.  0.
     999903    2    3    3    0    0 -0.77118293880E-01  0.53096063490E-01 -0.88352306792E-01  0.13029356340E+00  0.20096251842E-01 0.  0.
         14    1    1    2    0    0  0.16906105256E-01 -0.46809051705E-02 -0.16459573648E-01  0.24055037576E-01  0.00000000000E+00 0. -1.
     999901    1    3    3    0    0  0.60212188624E-01 -0.48415158319E-01  0.10481188044E+00  0.88958139903E+00  0.88000000000E+00 0.  1.
        -11    1    4    4    0    0 -0.44936036136E-01  0.41476338187E-01 -0.62174342860E-01  0.87209196786E-01  0.51100000000E-03 0. -1.
         11    1    4    4    0    0 -0.32182257744E-01  0.11619725303E-01 -0.26177963932E-01  0.43084366610E-01  0.51100000000E-03 0.  1.
</event>
<event>
 8    1  0.1733187E+005  0.1043930E+01  0.7957747E-01            NaN
         13   -1    0    0    0    0  0.00000000000E+00  0.00000000000E+00  0.74505805969E-08  0.10566000000E+00  0.10566000000E+00 0.  1.
     999900   -1    0    0    0    0 -0.00000000000E+00 -0.00000000000E+00 -0.74505805969E-08  0.93827000000E+00  0.93827000000E+00 0.  1.
     999902    2    1    2    0    0 -0.16449988730E-01  0.84691476260E-02 -0.14450183863E-01  0.10204537055E+01  0.10201836250E+01 0.  0.
     999903    2    3    3    0    0 -0.78075869034E-01 -0.91415576053E-01 -0.50476446567E-01  0.13193099966E+00  0.20131272769E-01 0.  0.
         14    1    1    2    0    0  0.16449988730E-01 -0.84691476260E-02  0.14450183863E-01  0.23476294520E-01  0.00000000000E+00 0. -1.
     999901    1    3    3    0    0  0.61625880304E-01  0.99884723679E-01  0.36026262705E-01  0.88852270582E+00  0.88000000000E+00 0. -1.
        -11    1    4    4    0    0 -0.44337335597E-01 -0.37716989973E-01 -0.19850278010E-01  0.61503376480E-01  0.51100000000E-03 0. -1.
         11    1    4    4    0    0 -0.33738533437E-01 -0.53698586081E-01 -0.30626168558E-01  0.70427623182E-01  0.51100000000E-03 0.  1.
</event>
<event>
 8    1  0.1161093E+005  0.1043930E+01  0.7957747E-01            NaN
         13   -1    0    0    0    0  0.00000000000E+00  0.00000000000E+00  0.74505805969E-08  0.10566000000E+00  0.10566000000E+00 0.  1.
     999900   -1    0    0    0    0 -0.00000000000E+00 -0.00000000000E+00 -0.74505805969E-08  0.93827000000E+00  0.93827000000E+00 0.  1.
     999902    2    1    2    0    0  0.20346017226E-01  0.47784780381E-02  0.11848422952E-01  0.10199054418E+01  0.10196224452E+01 0.  0.
     999903    2    3    3    0    0 -0.57342211383E-01  0.88173275506E-01  0.74494296298E-01  0.13034675429E+00  0.19447890725E-01 0.  0.
         14    1    1    2    0    0 -0.20346017226E-01 -0.47784780381E-02 -0.11848422952E-01  0.24024558181E-01  0.00000000000E+00 0. -1.
     999901    1    3    3    0    0  0.77688228609E-01 -0.83394797468E-01 -0.62645873345E-01  0.88955868753E+00  0.88000000000E+00 0. -1.
        -11    1    4    4    0    0 -0.25407701525E-01  0.56632322801E-01  0.42887237620E-01  0.75447647772E-01  0.51100000000E-03 0. -1.
         11    1    4    4    0    0 -0.31934509858E-01  0.31540952706E-01  0.31607058677E-01  0.54899106520E-01  0.51100000000E-03 0.  1.
</event>
<event>
 8    1  0.1161093E+005  0.1043930E+01  0.7957747E-01            NaN
         13   -1    0    0    0    0  0.00000000000E+00  0.00000000000E+00  0.74505805969E-08  0.10566000000E+00  0.10566000000E+00 0.  1.
     999900   -1    0    0    0    0 -0.00000000000E+00 -0.00000000000E+00 -0.74505805969E-08  0.93827000000E+00  0.93827000000E+00 0.  1.
     999902    2    1    2    0    0  0.17578404334E-01 -0.15728964583E-01 -0.12237485571E-02  0.10203101315E+01  0.10200366985E+01 0.  0.
     999903    2    3    3    0    0 -0.83930154827E-01 -0.84105035739E-01  0.49819296455E-01  0.13037492764E+00  0.19943207653E-01 0.  0.
         14    1    1    2    0    0 -0.17578404334E-01  0.15728964583E-01  0.12237485571E-02  0.23619868465E-01  0.00000000000E+00 0. -1.
     999901    1    3    3    0    0  0.10150855916E+00  0.68376071156E-01 -0.51043045012E-01  0.88993520390E+00  0.88000000000E+00 0.  1.
        -11    1    4    4    0    0 -0.23993259146E-01 -0.37565027468E-01  0.17333365413E-01  0.47827967243E-01  0.51100000000E-03 0. -1.
         11    1    4    4    0    0 -0.59936895682E-01 -0.46540008272E-01  0.32485931042E-01  0.82546960396E-01  0.51100000000E-03 0.  1.
</event>
<event>
 8    1  0.1161093E+005  0.1043930E+01  0.7957747E-01            NaN
         13   -1    0    0    0    0  0.00000000000E+00  0.00000000000E+00  0.74505805969E-08  0.10566000000E+00  0.10566000000E+00 0. -1.
     999900   -1    0    0    0    0 -0.00000000000E+00 -0.00000000000E+00 -0.74505805969E-08  0.93827000000E+00  0.93827000000E+00 0.  1.
     999902    2    1    2    0    0  0.10490156394E-01 -0.17397992017E-01 -0.13125399003E-01  0.10197430282E+01  0.10194561461E+01 0.  0.
     999903    2    3    3    0    0  0.53164175963E-01  0.40044688332E-01  0.10833217933E+00  0.12852325909E+00  0.18771264714E-01 0.  0.
         14    1    1    2    0    0 -0.10490156394E-01  0.17397992017E-01  0.13125399003E-01  0.24186971831E-01  0.00000000000E+00 0. -1.
     999901    1    3    3    0    0 -0.42674019570E-01 -0.57442680349E-01 -0.12145757833E+00  0.89121976908E+00  0.88000000000E+00 0.  1.
        -11    1    4    4    0    0  0.12107030175E-01  0.16760596498E-02  0.12930299456E-01  0.17800087658E-01  0.51100000000E-03 0.  1.
         11    1    4    4    0    0  0.41057145788E-01  0.38368628682E-01  0.95401879870E-01  0.11072317143E+00  0.51100000000E-03 0. -1.
</event>
<event>
 8    1  0.1161093E+005  0.1043930E+01  0.7957747E-01            NaN
         13   -1    0    0    0    0  0.00000000000E+00  0.00000000000E+00  0.74505805969E-08  0.10566000000E+00  0.10566000000E+00 0. -1.
     999900   -1    0    0    0    0 -0.00000000000E+00 -0.00000000000E+00 -0.74505805969E-08  0.93827000000E+00  0.93827000000E+00 0. -1.
     999902    2    1    2    0    0 -0.71789654149E-02  0.17989551925E-01 -0.12807022005E-01  0.10207097215E+01  0.10204455665E+01 0.  0.
     999903    2    3    3    0    0 -0.67086194906E-01  0.10438255025E+00 -0.46207150378E-01  0.13382292210E+00  0.19421621721E-01 0.  0.
         14    1    1    2    0    0  0.71789654149E-02 -0.17989551925E-01  0.12807022005E-01  0.23220278541E-01  0.00000000000E+00 0. -1.
     999901    1    3    3    0    0  0.59907229491E-01 -0.86392998320E-01  0.33400128373E-01  0.88688679936E+00  0.88000000000E+00 0.  1.
        -11    1    4    4    0    0 -0.40100086847E-01  0.44666473919E-01 -0.20586978744E-01  0.63460189664E-01  0.51100000000E-03 0. -1.
         11    1    4    4    0    0 -0.26986108059E-01  0.59716076327E-01 -0.25620171634E-01  0.70362732434E-01  0.51100000000E-03 0.  1.
</event>
<event>
 8    1  0.1161093E+005  0.1043930E+01  0.7957747E-01            NaN
         13   -1    0    0    0    0  0.00000000000E+00  0.00000000000E+00  0.74505805969E-08  0.10566000000E+00  0.10566000000E+00 0.  1.
     999900   -1    0    0    0    0 -0.00000000000E+00 -0.00000000000E+00 -0.74505805969E-08  0.93827000000E+00  0.93827000000E+00 0.  1.
     999902    2    1    2    0    0 -0.11885660945E-01  0.83950104639E-02 -0.17523000843E-01  0.10211528032E+01  0.10208987446E+01 0.  0.
     999903    2    3    3    0    0 -0.10796006510E+00 -0.18644228256E-01 -0.74263734983E-01  0.13369524223E+00  0.18876772929E-01 0.  0.
         14    1    1    2    0    0  0.11885660945E-01 -0.83950104639E-02  0.17523000843E-01  0.22777196828E-01  0.00000000000E+00 0.  1.
     999901    1    3    3    0    0  0.96074404160E-01  0.27039238720E-01  0.56740734140E-01  0.88745756094E+00  0.88000000000E+00 0.  1.
        -11    1    4    4    0    0 -0.28192236768E-01 -0.12412042698E-01 -0.15982488882E-01  0.34706801780E-01  0.51100000000E-03 0.  1.
         11    1    4    4    0    0 -0.79767828337E-01 -0.62321855587E-02 -0.58281246101E-01  0.98988440449E-01  0.51100000000E-03 0. -1.
</event>
<event>
 8    1  0.1161093E+005  0.1043930E+01  0.7957747E-01            NaN
         13   -1    0    0    0    0  0.00000000000E+00  0.00000000000E+00  0.74505805969E-08  0.10566000000E+00  0.10566000000E+00 0. -1.
     999900   -1    0    0    0    0 -0.00000000000E+00 -0.00000000000E+00 -0.74505805969E-08  0.93827000000E+00  0.93827000000E+00 0. -1.
     999902    2    1    2    0    0 -0.66161542909E-02  0.34079747054E-02  0.23848217597E-01  0.10189475007E+01  0.10186411949E+01 0.  0.
     999903    2    3    3    0    0  0.94801120365E-01  0.56687790743E-01  0.66296422638E-01  0.13050726494E+00  0.20884743349E-01 0.  0.
         14    1    1    2    0    0  0.66161542909E-02 -0.34079747054E-02 -0.23848217597E-01  0.24982499310E-01  0.00000000000E+00 0.  1.
     999901    1    3    3    0    0 -0.10141727466E+00 -0.53279816037E-01 -0.42448205041E-01  0.88844023575E+00  0.88000000000E+00 0.  1.
        -11    1    4    4    0    0  0.44306210953E-01  0.22525008210E-01  0.18498910449E-01  0.53036658385E-01  0.51100000000E-03 0. -1.
         11    1    4    4    0    0  0.50494909412E-01  0.34162782533E-01  0.47797512189E-01  0.77470606551E-01  0.51100000000E-03 0.  1.
</event>
<event>
 8    1  0.1161093E+005  0.1043930E+01  0.7957747E-01            NaN
         13   -1    0    0    0    0  0.00000000000E+00  0.00000000000E+00  0.74505805969E-08  0.10566000000E+00  0.10566000000E+00 0.  1.
     999900   -1    0    0    0    0 -0.00000000000E+00 -0.00000000000E+00 -0.74505805969E-08  0.93827000000E+00  0.93827000000E+00 0.  1.
     999902    2    1    2    0    0 -0.19014308637E-01 -0.11746893870E-01  0.71307064410E-02  0.10204698120E+01  0.10202001062E+01 0.  0.
     999903    2    3    3    0    0  0.46888175620E-01 -0.11263433576E+00 -0.42824945119E-01  0.13085361354E+00  0.20092228509E-01 0.  0.
         14    1    1    2    0    0  0.19014308637E-01  0.11746893870E-01 -0.71307064410E-02  0.23460188041E-01  0.00000000000E+00 0. -1.
     999901    1    3    3    0    0 -0.65902484258E-01  0.10088744189E+00  0.49955651560E-01  0.88961619842E+00  0.88000000000E+00 0. -1.
        -11    1    4    4    0    0  0.56173387461E-02 -0.33770218876E-01 -0.16658179421E-01  0.38075428299E-01  0.51100000000E-03 0. -1.
         11    1    4    4    0    0  0.41270836874E-01 -0.78864116889E-01 -0.26166765697E-01  0.92778185243E-01  0.51100000000E-03 0.  1.
</event>
<event>
 8    1  0.1161093E+005  0.1043930E+01  0.7957747E-01            NaN
         13   -1    0    0    0    0  0.00000000000E+00  0.00000000000E+00  0.74505805969E-08  0.10566000000E+00  0.10566000000E+00 0. -1.
     999900   -1    0    0    0    0 -0.00000000000E+00 -0.00000000000E+00 -0.74505805969E-08  0.93827000000E+00  0.93827000000E+00 0. -1.
     999902    2    1    2    0    0 -0.11118555668E-02 -0.60753786472E-03  0.23215459486E-01  0.10206799917E+01  0.10204151521E+01 0.  0.
     999903    2    3    3    0    0  0.23335545340E-01  0.48278886906E-01 -0.11477328723E+00  0.12825159004E+00  0.20004106807E-01 0.  0.
         14    1    1    2    0    0  0.11118555668E-02  0.60753786472E-03 -0.23215459486E-01  0.23250008262E-01  0.00000000000E+00 0.  1.
     999901    1    3    3    0    0 -0.24447400907E-01 -0.48886424771E-01  0.13798874671E+00  0.89242840170E+00  0.88000000000E+00 0. -1.
        -11    1    4    4    0    0  0.84337473244E-02  0.32626367462E-01 -0.53032632070E-01  0.62835731340E-01  0.51100000000E-03 0.  1.
         11    1    4    4    0    0  0.14901798015E-01  0.15652519445E-01 -0.61740655158E-01  0.65415858700E-01  0.51100000000E-03 0. -1.
</event>
<event>
 8    1  0.1161093E+005  0.1043930E+01  0.7957747E-01            NaN
         13   -1    0    0    0    0  0.00000000000E+00  0.00000000000E+00  0.74505805969E-08  0.10566000000E+00  0.10566000000E+00 0.  1.
     999900   -1    0    0    0    0 -0.00000000000E+00 -0.00000000000E+00 -0.74505805969E-08  0.93827000000E+00  0.93827000000E+00 0.  1.
     999902    2    1    2    0    0  0.77930999304E-02 -0.10476368121E-01 -0.18163800407E-01  0.10215601466E+01  0.10213151927E+01 0.  0.
     999903    2    3    3    0    0 -0.10361152859E+00 -0.46803489489E-01  0.61158466508E-01  0.13025622929E+00  0.17332390428E-01 0.  0.
         14    1    1    2    0    0 -0.77930999304E-02  0.10476368121E-01  0.18163800407E-01  0.22369853392E-01  0.00000000000E+00 0.  1.
     999901    1    3    3    0    0  0.11140462852E+00  0.36327121368E-01 -0.79322266916E-01  0.89130391732E+00  0.88000000000E+00 0. -1.
        -11    1    4    4    0    0 -0.19219306901E-01 -0.14369961903E-01  0.18397800690E-01  0.30242647934E-01  0.51100000000E-03 0.  1.
         11    1    4    4    0    0 -0.84392221687E-01 -0.32433527587E-01  0.42760665819E-01  0.10001358135E+00  0.51100000000E-03 0. -1.
</event>
<event>
 8    1  0.1161093E+005  0.1043930E+01  0.7957747E-01            NaN
         13   -1    0    0    0    0  0.00000000000E+00  0.00000000000E+00  0.74505805969E-08  0.10566000000E+00  0.10566000000E+00 0.  1.
     999900   -1    0    0    0    0 -0.00000000000E+00 -0.00000000000E+00 -0.74505805969E-08  0.93827000000E+00  0.93827000000E+00 0. -1.
     999902    2    1    2    0    0  0.23425148398E-01  0.55893284714E-02 -0.79091883208E-03  0.10198342800E+01  0.10195495843E+01 0.  0.
     999903    2    3    3    0    0 -0.24085301638E-04  0.30538493655E-01 -0.12520082175E+00  0.13042427816E+00  0.20066050760E-01 0.  0.
         14    1    1    2    0    0 -0.23425148398E-01 -0.55893284714E-02  0.79091883208E-03  0.24095720010E-01  0.00000000000E+00 0.  1.
     999901    1    3    3    0    0  0.23449233699E-01 -0.24949165183E-01  0.12440990292E+00  0.88941000183E+00  0.88000000000E+00 0.  1.
        -11    1    4    4    0    0  0.88616378911E-02  0.70193253933E-02 -0.35022758146E-01  0.36805628160E-01  0.51100000000E-03 0.  1.
         11    1    4    4    0    0 -0.88857231927E-02  0.23519168261E-01 -0.90178063603E-01  0.93618650004E-01  0.51100000000E-03 0. -1.
</event>
<event>
 8    1  0.1161093E+005  0.1043930E+01  0.7957747E-01            NaN
         13   -1    0    0    0    0  0.00000000000E+00  0.00000000000E+00  0.74505805969E-08  0.10566000000E+00  0.10566000000E+00 0.  1.
     999900   -1    0    0    0    0 -0.00000000000E+00 -0.00000000000E+00 -0.74505805969E-08  0.93827000000E+00  0.93827000000E+00 0. -1.
     999902    2    1    2    0    0 -0.17326927240E-01 -0.40545403751E-02  0.14870955048E-01  0.10207393336E+01  0.10204758596E+01 0.  0.
     999903    2    3    3    0    0 -0.64923848260E-01 -0.95246949224E-01 -0.61594054642E-01  0.13145399127E+00  0.14115128246E-01 0.  0.
         14    1    1    2    0    0  0.17326927240E-01  0.40545403751E-02 -0.14870955048E-01  0.23190666425E-01  0.00000000000E+00 0. -1.
     999901    1    3    3    0    0  0.47596921020E-01  0.91192408849E-01  0.76465009690E-01  0.88928534230E+00  0.88000000000E+00 0.  1.
        -11    1    4    4    0    0 -0.10134731763E-01 -0.17578874237E-01 -0.16939762189E-01  0.26437592011E-01  0.51100000000E-03 0. -1.
         11    1    4    4    0    0 -0.54789116497E-01 -0.77668074987E-01 -0.44654292454E-01  0.10501639926E+00  0.51100000000E-03 0.  1.
</event>
<event>
 8    1  0.1161093E+005  0.1043930E+01  0.7957747E-01            NaN
         13   -1    0    0    0    0  0.00000000000E+00  0.00000000000E+00  0.74505805969E-08  0.10566000000E+00  0.10566000000E+00 0. -1.
     999900   -1    0    0    0    0 -0.00000000000E+00 -0.00000000000E+00 -0.74505805969E-08  0.93827000000E+00  0.93827000000E+00 0.  1.
     999902    2    1    2    0    0 -0.19775954765E-01 -0.70468885386E-02 -0.11551631328E-01  0.10199677962E+01  0.10196862841E+01 0.  0.
     999903    2    3    3    0    0  0.47463866137E-01  0.91443338469E-01  0.73107915416E-01  0.12789786778E+00  0.19959823303E-01 0.  0.
         14    1    1    2    0    0  0.19775954765E-01  0.70468885386E-02  0.11551631328E-01  0.23962203806E-01  0.00000000000E+00 0. -1.
     999901    1    3    3    0    0 -0.67239820901E-01 -0.98490227008E-01 -0.84659546744E-01  0.89206992842E+00  0.88000000000E+00 0.  1.
        -11    1    4    4    0    0  0.29147280586E-01  0.69204320991E-01  0.44477188427E-01  0.87277049794E-01  0.51100000000E-03 0.  1.
         11    1    4    4    0    0  0.18316585551E-01  0.22239017478E-01  0.28630726990E-01  0.40620817983E-01  0.51100000000E-03 0. -1.
</event>
<event>
 8    1  0.1161093E+005  0.1043930E+01  0.7957747E-01            NaN
         13   -1    0    0    0    0  0.00000000000E+00  0.00000000000E+00  0.74505805969E-08  0.10566000000E+00  0.10566000000E+00 0.  1.
     999900   -1    0    0    0    0 -0.00000000000E+00 -0.00000000000E+00 -0.74505805969E-08  0.93827000000E+00  0.93827000000E+00 0.  1.
     999902    2    1    2    0    0  0.17067050957E-01 -0.14442435788E-01  0.75663064595E-02  0.10203266703E+01  0.10200536245E+01 0.  0.
     999903    2    3    3    0    0 -0.20349005722E-01  0.74053303866E-01  0.10296745915E+00  0.12997121478E+00  0.19805180637E-01 0.  0.
         14    1    1    2    0    0 -0.17067050957E-01  0.14442435788E-01 -0.75663064595E-02  0.23603329708E-01  0.00000000000E+00 0.  1.
     999901    1    3    3    0    0  0.37416056679E-01 -0.88495739654E-01 -0.95401152686E-01  0.89035545552E+00  0.88000000000E+00 0.  1.
        -11    1    4    4    0    0 -0.37161881589E-02  0.49499227044E-01  0.65349332323E-01  0.82065704703E-01  0.51100000000E-03 0.  1.
         11    1    4    4    0    0 -0.16632817563E-01  0.24554076822E-01  0.37618126822E-01  0.47905510072E-01  0.51100000000E-03 0. -1.
</event>
<event>
 8    1  0.1161093E+005  0.1043930E+01  0.7957747E-01            NaN
         13   -1    0    0    0    0  0.00000000000E+00  0.00000000000E+00  0.74505805969E-08  0.10566000000E+00  0.10566000000E+00 0. -1.
     999900   -1    0    0    0    0 -0.00000000000E+00 -0.00000000000E+00 -0.74505805969E-08  0.93827000000E+00  0.93827000000E+00 0. -1.
     999902    2    1    2    0    0 -0.19569159371E-01  0.91764227174E-02 -0.89823063803E-02  0.10205240059E+01  0.10202555592E+01 0.  0.
     999903    2    3    3    0    0 -0.84080867991E-01  0.88030583069E-01  0.48147900256E-01  0.13280580755E+00  0.22364845231E-01 0.  0.
         14    1    1    2    0    0  0.19569159371E-01 -0.91764227174E-02  0.89823063803E-02  0.23405994110E-01  0.00000000000E+00 0.  1.
     999901    1    3    3    0    0  0.64511708620E-01 -0.78854160352E-01 -0.57130206636E-01  0.88771819834E+00  0.88000000000E+00 0.  1.
        -11    1    4    4    0    0 -0.53041794500E-01  0.43995019320E-01  0.35244922296E-01  0.77404517680E-01  0.51100000000E-03 0.  1.
         11    1    4    4    0    0 -0.31039073492E-01  0.44035563750E-01  0.12902977960E-01  0.55401289869E-01  0.51100000000E-03 0. -1.
</event>
<event>
 8    1  0.1161093E+005  0.1043930E+01  0.7957747E-01            NaN
         13   -1    0    0    0    0  0.00000000000E+00  0.00000000000E+00  0.74505805969E-08  0.10566000000E+00  0.10566000000E+00 0. -1.
     999900   -1    0    0    0    0 -0.00000000000E+00 -0.00000000000E+00 -0.74505805969E-08  0.93827000000E+00  0.93827000000E+00 0. -1.
     999902    2    1    2    0    0 -0.12315417495E-01 -0.85015452847E-02 -0.17824888194E-01  0.10206561430E+01  0.10203907535E+01 0.  0.
     999903    2    3    3    0    0  0.93587587941E-01  0.17827518875E-01 -0.87974218154E-01  0.13114526917E+00  0.19574511986E-01 0.  0.
         14    1    1    2    0    0  0.12315417495E-01  0.85015452847E-02  0.17824888194E-01  0.23273856995E-01  0.00000000000E+00 0. -1.
     999901    1    3    3    0    0 -0.10590300544E+00 -0.26329064160E-01  0.70149329960E-01  0.88951087384E+00  0.88000000000E+00 0.  1.
        -11    1    4    4    0    0  0.60672500840E-01  0.22282386800E-02 -0.51844903693E-01  0.79839041613E-01  0.51100000000E-03 0.  1.
         11    1    4    4    0    0  0.32915087101E-01  0.15599280195E-01 -0.36129314461E-01  0.51306227555E-01  0.51100000000E-03 0. -1.
</event>
<event>
 8    1  0.1161093E+005  0.1043930E+01  0.7957747E-01            NaN
         13   -1    0    0    0    0  0.00000000000E+00  0.00000000000E+00  0.74505805969E-08  0.10566000000E+00  0.10566000000E+00 0. -1.
     999900   -1    0    0    0    0 -0.00000000000E+00 -0.00000000000E+00 -0.74505805969E-08  0.93827000000E+00  0.93827000000E+00 0.  1.
     999902    2    1    2    0    0 -0.86634833999E-02  0.98681399669E-02 -0.19034787026E-01  0.10208051379E+01  0.10205431741E+01 0.  0.
     999903    2    3    3    0    0  0.56045236987E-02  0.38250601989E-01  0.12156806233E+00  0.12907743200E+00  0.19689348262E-01 0.  0.
         14    1    1    2    0    0  0.86634833999E-02 -0.98681399669E-02  0.19034787026E-01  0.23124862122E-01  0.00000000000E+00 0.  1.
     999901    1    3    3    0    0 -0.14268007099E-01 -0.28382462022E-01 -0.14060284936E+00  0.89172770587E+00  0.88000000000E+00 0.  1.
        -11    1    4    4    0    0  0.49815437408E-02  0.38559701427E-01  0.97126932432E-01  0.10462107090E+00  0.51100000000E-03 0. -1.
         11    1    4    4    0    0  0.62297995789E-03 -0.30909943809E-03  0.24441129900E-01  0.24456361100E-01  0.51100000000E-03 0.  1.
</event>
<event>
 8    1  0.1161093E+005  0.1043930E+01  0.7957747E-01            NaN
         13   -1    0    0    0    0  0.00000000000E+00  0.00000000000E+00  0.74505805969E-08  0.10566000000E+00  0.10566000000E+00 0. -1.
     999900   -1    0    0    0    0 -0.00000000000E+00 -0.00000000000E+00 -0.74505805969E-08  0.93827000000E+00  0.93827000000E+00 0.  1.
     999902    2    1    2    0    0  0.84031842229E-02  0.14415116590E-01 -0.15757998756E-01  0.10209795400E+01  0.10207215572E+01 0.  0.
     999903    2    3    3    0    0  0.10522256554E-01 -0.12746168834E+00  0.93240156845E-04  0.12947251249E+00  0.20147528864E-01 0.  0.
         14    1    1    2    0    0 -0.84031842229E-02 -0.14415116590E-01  0.15757998756E-01  0.22950460043E-01  0.00000000000E+00 0. -1.
     999901    1    3    3    0    0 -0.21190723306E-02  0.14187680493E+00 -0.15851238913E-01  0.89150702747E+00  0.88000000000E+00 0. -1.
        -11    1    4    4    0    0 -0.43093783844E-02 -0.16915315001E-01  0.38045369463E-02  0.17872723520E-01  0.51100000000E-03 0.  1.
         11    1    4    4    0    0  0.14831634938E-01 -0.11054637334E+00 -0.37112967895E-02  0.11159978897E+00  0.51100000000E-03 0. -1.
</event>
<event>
 8    1  0.1161093E+005  0.1043930E+01  0.7957747E-01            NaN
         13   -1    0    0    0    0  0.00000000000E+00  0.00000000000E+00  0.74505805969E-08  0.10566000000E+00  0.10566000000E+00 0.  1.
     999900   -1    0    0    0    0 -0.00000000000E+00 -0.00000000000E+00 -0.74505805969E-08  0.93827000000E+00  0.93827000000E+00 0. -1.
     999902    2    1    2    0    0  0.26509703885E-02 -0.70204843201E-02 -0.22552608715E-01  0.10201616386E+01  0.10198847160E+01 0.  0.
     999903    2    3    3    0    0  0.96420408745E-01 -0.45296237417E-01  0.71196395601E-01  0.12940543364E+00  0.18116157525E-01 0.  0.
         14    1    1    2    0    0 -0.26509703885E-02  0.70204843201E-02  0.22552608715E-01  0.23768361406E-01  0.00000000000E+00 0.  1.
     999901    1    3    3    0    0 -0.93769438356E-01  0.38275753097E-01 -0.93749004316E-01  0.89075620495E+00  0.88000000000E+00 0.  1.
        -11    1    4    4    0    0  0.48143648706E-01 -0.28138262855E-01  0.28060493355E-01  0.62427759495E-01  0.51100000000E-03 0. -1.
         11    1    4    4    0    0  0.48276760039E-01 -0.17157974562E-01  0.43135902246E-01  0.66977674150E-01  0.51100000000E-03 0.  1.
</event>
<event>
 8    1  0.1161093E+005  0.1043930E+01  0.7957747E-01            NaN
         13   -1    0    0    0    0  0.00000000000E+00  0.00000000000E+00  0.74505805969E-08  0.10566000000E+00  0.10566000000E+00 0. -1.
     999900   -1    0    0    0    0 -0.00000000000E+00 -0.00000000000E+00 -0.74505805969E-08  0.93827000000E+00  0.93827000000E+00 0.  1.
     999902    2    1    2    0    0 -0.18912752594E-01 -0.45539591890E-02 -0.13750213747E-01  0.10201077597E+01  0.10198295653E+01 0.  0.
     999903    2    3    3    0    0  0.37222068637E-01  0.11776032564E+00 -0.34016230916E-01  0.12964573699E+00  0.19948344945E-01 0.  0.
         14    1    1    2    0    0  0.18912752594E-01  0.45539591890E-02  0.13750213747E-01  0.23822240303E-01  0.00000000000E+00 0. -1.
     999901    1    3    3    0    0 -0.56134821231E-01 -0.12231428483E+00  0.20266017169E-01  0.89046202270E+00  0.88000000000E+00 0. -1.
        -11    1    4    4    0    0  0.12718525857E-01  0.18323283190E-01 -0.22729637774E-02  0.22426125215E-01  0.51100000000E-03 0.  1.
         11    1    4    4    0    0  0.24503542780E-01  0.99437042450E-01 -0.31743267138E-01  0.10721961178E+00  0.51100000000E-03 0. -1.
</event>
<event>
 8    1  0.1161093E+005  0.1043930E+01  0.7957747E-01            NaN
         13   -1    0    0    0    0  0.00000000000E+00  0.00000000000E+00  0.74505805969E-08  0.10566000000E+00  0.10566000000E+00 0.  1.
     999900   -1    0    0    0    0 -0.00000000000E+00 -0.00000000000E+00 -0.74505805969E-08  0.93827000000E+00  0.93827000000E+00 0.  1.
     999902    2    1    2    0    0 -0.65137608167E-02  0.21276748152E-01 -0.78434555812E-02  0.10203365923E+01  0.10200637787E+01 0.  0.
     999903    2    3    3    0    0  0.20177367587E-01 -0.67693653676E-01 -0.10701196252E+00  0.12990830124E+00  0.20857844978E-01 0.  0.
         14    1    1    2    0    0  0.65137608167E-02 -0.21276748152E-01  0.78434555812E-02  0.23593407710E-01  0.00000000000E+00 0.  1.
     999901    1    3    3    0    0 -0.26691128403E-01  0.88970401829E-01  0.99168506940E-01  0.89042829105E+00  0.88000000000E+00 0. -1.
        -11    1    4    4    0    0  0.18337777646E-01 -0.54684219930E-01 -0.70426909248E-01  0.91032129853E-01  0.51100000000E-03 0. -1.
         11    1    4    4    0    0  0.18395899408E-02 -0.13009433746E-01 -0.36585053273E-01  0.38876171385E-01  0.51100000000E-03 0.  1.
</event>
<event>
 8    1  0.1161093E+005  0.1043930E+01  0.7957747E-01            NaN
         13   -1    0    0    0    0  0.00000000000E+00  0.00000000000E+00  0.74505805969E-08  0.10566000000E+00  0.10566000000E+00 0.  1.
     999900   -1    0    0    0    0 -0.00000000000E+00 -0.00000000000E+00 -0.74505805969E-08  0.93827000000E+00  0.93827000000E+00 0. -1.
     999902    2    1    2    0    0 -0.23132654547E-01  0.48498211413E-02  0.15504265003E-02  0.10202436264E+01  0.10199686333E+01 0.  0.
     999903    2    3    3    0    0 -0.36649552182E-01  0.12257973894E+00 -0.25191644991E-01  0.13189787252E+00  0.19835516734E-01 0.  0.
         14    1    1    2    0    0  0.23132654547E-01 -0.48498211413E-02 -0.15504265003E-02  0.23686373590E-01  0.00000000000E+00 0. -1.
     999901    1    3    3    0    0  0.13516897635E-01 -0.11772991780E+00  0.26742071491E-01  0.88834575389E+00  0.88000000000E+00 0. -1.
        -11    1    4    4    0    0 -0.24068357517E-01  0.78906995985E-01 -0.65015513207E-02  0.82753435817E-01  0.51100000000E-03 0.  1.
         11    1    4    4    0    0 -0.12581194665E-01  0.43672742955E-01 -0.18690093670E-01  0.49144436703E-01  0.51100000000E-03 0. -1.
</event>
<event>
 8    1  0.1161093E+005  0.1043930E+01  0.7957747E-01            NaN
         13   -1    0    0    0    0  0.00000000000E+00  0.00000000000E+00  0.74505805969E-08  0.10566000000E+00  0.10566000000E+00 0.  1.
     999900   -1    0    0    0    0 -0.00000000000E+00 -0.00000000000E+00 -0.74505805969E-08  0.93827000000E+00  0.93827000000E+00 0. -1.
     999902    2    1    2    0    0 -0.18525685507E-01 -0.43887203222E-02  0.16216458253E-01  0.10189212934E+01  0.10186143366E+01 0.  0.
     999903    2    3    3    0    0  0.47794534889E-01  0.32917220297E-01  0.11448628566E+00  0.13018788912E+00  0.21769609776E-01 0.  0.
         14    1    1    2    0    0  0.18525685507E-01  0.43887203222E-02 -0.16216458253E-01  0.25008706641E-01  0.00000000000E+00 0. -1.
     999901    1    3    3    0    0 -0.66320220396E-01 -0.37305940619E-01 -0.98269827412E-01  0.88873340424E+00  0.88000000000E+00 0. -1.
        -11    1    4    4    0    0  0.24932324372E-01  0.27156636411E-01  0.55171099462E-01  0.66356725632E-01  0.51100000000E-03 0.  1.
         11    1    4    4    0    0  0.22862210517E-01  0.57605838852E-02  0.59315186203E-01  0.63831163484E-01  0.51100000000E-03 0. -1.
</event>
<event>
 8    1  0.1161093E+005  0.1043930E+01  0.7957747E-01            NaN
         13   -1    0    0    0    0  0.00000000000E+00  0.00000000000E+00  0.74505805969E-08  0.10566000000E+00  0.10566000000E+00 0. -1.
     999900   -1    0    0    0    0 -0.00000000000E+00 -0.00000000000E+00 -0.74505805969E-08  0.93827000000E+00  0.93827000000E+00 0. -1.
     999902    2    1    2    0    0  0.78654118358E-02 -0.20176809475E-01  0.13704902285E-01  0.10183020330E+01  0.10179794879E+01 0.  0.
     999903    2    3    3    0    0  0.45400917445E-01 -0.89022438711E-01 -0.80327531888E-01  0.12982539659E+00  0.20393217513E-01 0.  0.
         14    1    1    2    0    0 -0.78654118358E-02  0.20176809475E-01 -0.13704902285E-01  0.25627966961E-01  0.00000000000E+00 0. -1.
     999901    1    3    3    0    0 -0.37535505609E-01  0.68845629235E-01  0.94032434173E-01  0.88847663645E+00  0.88000000000E+00 0.  1.
        -11    1    4    4    0    0  0.17501759569E-01 -0.21539874359E-01 -0.13622766969E-01  0.30921168741E-01  0.51100000000E-03 0. -1.
         11    1    4    4    0    0  0.27899157876E-01 -0.67482564352E-01 -0.66704764919E-01  0.98904227845E-01  0.51100000000E-03 0.  1.
</event>
<event>
 8    1  0.1161093E+005  0.1043930E+01  0.7957747E-01            NaN
         13   -1    0    0    0    0  0.00000000000E+00  0.00000000000E+00  0.74505805969E-08  0.10566000000E+00  0.10566000000E+00 0.  1.
     999900   -1    0    0    0    0 -0.00000000000E+00 -0.00000000000E+00 -0.74505805969E-08  0.93827000000E+00  0.93827000000E+00 0.  1.
     999902    2    1    2    0    0 -0.19147186757E-01  0.11800284706E-01 -0.75414939447E-02  0.10202079510E+01  0.10199321191E+01 0.  0.
     999903    2    3    3    0    0  0.11530035445E+00 -0.20358112345E-01 -0.48772907311E-01  0.12846228470E+00  0.20374926493E-01 0.  0.
         14    1    1    2    0    0  0.19147186757E-01 -0.11800284706E-01  0.75414939447E-02  0.23722049042E-01  0.00000000000E+00 0.  1.
     999901    1    3    3    0    0 -0.13444754120E+00  0.32158397051E-01  0.41231413367E-01  0.89174566626E+00  0.88000000000E+00 0. -1.
        -11    1    4    4    0    0  0.95198281483E-01 -0.18055233314E-01 -0.48178948686E-01  0.10821356877E+00  0.51100000000E-03 0.  1.
         11    1    4    4    0    0  0.20102072964E-01 -0.23028790306E-02 -0.59395862530E-03  0.20248715937E-01  0.51100000000E-03 0. -1.
</event>
<event>
 8    1  0.1161093E+005  0.1043930E+01  0.7957747E-01            NaN
         13   -1    0    0    0    0  0.00000000000E+00  0.00000000000E+00  0.74505805969E-08  0.10566000000E+00  0.10566000000E+00 0. -1.
     999900   -1    0    0    0    0 -0.00000000000E+00 -0.00000000000E+00 -0.74505805969E-08  0.93827000000E+00  0.93827000000E+00 0.  1.
     999902    2    1    2    0    0 -0.14814932788E-01 -0.93463389207E-02 -0.16807864011E-01  0.10196536622E+01  0.10193646307E+01 0.  0.
     999903    2    3    3    0    0 -0.12755525763E+00 -0.22307626271E-01  0.13958567596E-01  0.13183332613E+00  0.20425727174E-01 0.  0.
         14    1    1    2    0    0  0.14814932788E-01  0.93463389207E-02  0.16807864011E-01  0.24276337808E-01  0.00000000000E+00 0. -1.
     999901    1    3    3    0    0  0.11274032484E+00  0.12961287350E-01 -0.30766431608E-01  0.88782033606E+00  0.88000000000E+00 0.  1.
        -11    1    4    4    0    0 -0.47617094082E-01 -0.16456486820E-01  0.11304205928E-01  0.51635741497E-01  0.51100000000E-03 0.  1.
         11    1    4    4    0    0 -0.79938163545E-01 -0.58511394503E-02  0.26543616679E-02  0.80197584632E-01  0.51100000000E-03 0. -1.
</event>
<event>
 8    1  0.1225645E+005  0.1043930E+01  0.7957747E-01            NaN
         13   -1    0    0    0    0  0.00000000000E+00  0.00000000000E+00  0.74505805969E-08  0.10566000000E+00  0.10566000000E+00 0.  1.
     999900   -1    0    0    0    0 -0.00000000000E+00 -0.00000000000E+00 -0.74505805969E-08  0.93827000000E+00  0.93827000000E+00 0. -1.
     999902    2    1    2    0    0 -0.12024445616E-01 -0.10741429955E-02 -0.24241851032E-01  0.10168484857E+01  0.10164877936E+01 0.  0.
     999903    2    3    3    0    0  0.12117951091E+00  0.27631732120E-01  0.21916245610E-02  0.12596911679E+00  0.20382067673E-01 0.  0.
         14    1    1    2    0    0  0.12024445616E-01  0.10741429955E-02  0.24241851032E-01  0.27081514304E-01  0.00000000000E+00 0.  1.
     999901    1    3    3    0    0 -0.13320395653E+00 -0.28705875115E-01 -0.26433475593E-01  0.89087936890E+00  0.88000000000E+00 0. -1.
        -11    1    4    4    0    0  0.80088585520E-01  0.16239943033E-01  0.10903972044E-01  0.82444375234E-01  0.51100000000E-03 0.  1.
         11    1    4    4    0    0  0.41090925393E-01  0.11391789086E-01 -0.87123474832E-02  0.43524741561E-01  0.51100000000E-03 0. -1.
</event>
<event>
 8    1  0.1161093E+005  0.1043930E+01  0.7957747E-01            NaN
         13   -1    0    0    0    0  0.00000000000E+00  0.00000000000E+00  0.74505805969E-08  0.10566000000E+00  0.10566000000E+00 0. -1.
     999900   -1    0    0    0    0 -0.00000000000E+00 -0.00000000000E+00 -0.74505805969E-08  0.93827000000E+00  0.93827000000E+00 0.  1.
     999902    2    1    2    0    0 -0.14153589845E-01  0.84331261921E-02  0.14654545849E-01  0.10218801148E+01  0.10216421935E+01 0.  0.
     999903    2    3    3    0    0  0.10036144935E+00 -0.73352766805E-01  0.34111857683E-01  0.13048726456E+00  0.20254838033E-01 0.  0.
         14    1    1    2    0    0  0.14153589845E-01 -0.84331261921E-02 -0.14654545849E-01  0.22049885191E-01  0.00000000000E+00 0.  1.
     999901    1    3    3    0    0 -0.11451503919E+00  0.81785892998E-01 -0.19457311834E-01  0.89139285025E+00  0.88000000000E+00 0. -1.
        -11    1    4    4    0    0  0.37924001965E-01 -0.37433897105E-01  0.20955825504E-01  0.57261979717E-01  0.51100000000E-03 0. -1.
         11    1    4    4    0    0  0.62437447384E-01 -0.35918869700E-01  0.13156032179E-01  0.73225284841E-01  0.51100000000E-03 0.  1.
</event>
<event>
 8    1  0.1161093E+005  0.1043930E+01  0.7957747E-01            NaN
         13   -1    0    0    0    0  0.00000000000E+00  0.00000000000E+00  0.74505805969E-08  0.10566000000E+00  0.10566000000E+00 0.  1.
     999900   -1    0    0    0    0 -0.00000000000E+00 -0.00000000000E+00 -0.74505805969E-08  0.93827000000E+00  0.93827000000E+00 0.  1.
     999902    2    1    2    0    0 -0.15993176049E-01 -0.16439956718E-01 -0.53404666207E-02  0.10203805957E+01  0.10201088107E+01 0.  0.
     999903    2    3    3    0    0 -0.57086559842E-01 -0.10687309945E+00 -0.52393550112E-01  0.13354306149E+00  0.20197288885E-01 0.  0.
         14    1    1    2    0    0  0.15993176049E-01  0.16439956718E-01  0.53404666207E-02  0.23549404255E-01  0.00000000000E+00 0. -1.
     999901    1    3    3    0    0  0.41093383793E-01  0.90433142733E-01  0.47053083491E-01  0.88683753425E+00  0.88000000000E+00 0. -1.
        -11    1    4    4    0    0 -0.44656508238E-01 -0.64358086676E-01 -0.37128854329E-01  0.86688984268E-01  0.51100000000E-03 0. -1.
         11    1    4    4    0    0 -0.12430051604E-01 -0.42515012775E-01 -0.15264695783E-01  0.46854077223E-01  0.51100000000E-03 0.  1.
</event>
<event>
 8    1  0.1161093E+005  0.1043930E+01  0.7957747E-01            NaN
         13   -1    0    0    0    0  0.00000000000E+00  0.00000000000E+00  0.74505805969E-08  0.10566000000E+00  0.10566000000E+00 0. -1.
     999900   -1    0    0    0    0 -0.00000000000E+00 -0.00000000000E+00 -0.74505805969E-08  0.93827000000E+00  0.93827000000E+00 0. -1.
     999902    2    1    2    0    0  0.10153283027E-01 -0.18836451390E-01 -0.11863648632E-01  0.10194627317E+01  0.10191690803E+01 0.  0.
     999903    2    3    3    0    0 -0.47869815904E-01 -0.12084277004E+00 -0.27246394800E-02  0.13162519562E+00  0.20573626727E-01 0.  0.
         14    1    1    2    0    0 -0.10153283027E-01  0.18836451390E-01  0.11863648632E-01  0.24467268260E-01  0.00000000000E+00 0. -1.
     999901    1    3    3    0    0  0.58023098931E-01  0.10200631865E+00 -0.91390091525E-02  0.88783753612E+00  0.88000000000E+00 0.  1.
        -11    1    4    4    0    0 -0.28049423149E-01 -0.60729468143E-01 -0.10977242594E-01  0.67790850533E-01  0.51100000000E-03 0.  1.
         11    1    4    4    0    0 -0.19820392755E-01 -0.60113301895E-01  0.82526031144E-02  0.63834345089E-01  0.51100000000E-03 0. -1.
</event>
<event>
 8    1  0.1161093E+005  0.1043930E+01  0.7957747E-01            NaN
         13   -1    0    0    0    0  0.00000000000E+00  0.00000000000E+00  0.74505805969E-08  0.10566000000E+00  0.10566000000E+00 0.  1.
     999900   -1    0    0    0    0 -0.00000000000E+00 -0.00000000000E+00 -0.74505805969E-08  0.93827000000E+00  0.93827000000E+00 0. -1.
     999902    2    1    2    0    0  0.17700765083E-01 -0.13542320795E-01  0.63105865356E-02  0.10207667740E+01  0.10205039303E+01 0.  0.
     999903    2    3    3    0    0  0.10873028897E+00  0.71127516654E-01  0.10423146948E-01  0.13201918960E+00  0.20952925024E-01 0.  0.
         14    1    1    2    0    0 -0.17700765083E-01  0.13542320795E-01 -0.63105865356E-02  0.23163226016E-01  0.00000000000E+00 0. -1.
     999901    1    3    3    0    0 -0.91029523883E-01 -0.84669837449E-01 -0.41125604126E-02  0.88874758438E+00  0.88000000000E+00 0. -1.
        -11    1    4    4    0    0  0.64206668436E-01  0.29918472076E-01  0.81860107148E-02  0.71308366518E-01  0.51100000000E-03 0.  1.
         11    1    4    4    0    0  0.44523620530E-01  0.41209044578E-01  0.22371362333E-02  0.60710823085E-01  0.51100000000E-03 0. -1.
</event>
<event>
 8    1  0.1161093E+005  0.1043930E+01  0.7957747E-01            NaN
         13   -1    0    0    0    0  0.00000000000E+00  0.00000000000E+00  0.74505805969E-08  0.10566000000E+00  0.10566000000E+00 0. -1.
     999900   -1    0    0    0    0 -0.00000000000E+00 -0.00000000000E+00 -0.74505805969E-08  0.93827000000E+00  0.93827000000E+00 0. -1.
     999902    2    1    2    0    0  0.91575515519E-03  0.78492475239E-02 -0.21840228049E-01  0.10207040478E+01  0.10204397622E+01 0.  0.
     999903    2    3    3    0    0 -0.97139459549E-01 -0.55497962717E-01  0.60835875374E-01  0.12915313380E+00  0.21527419068E-01 0.  0.
         14    1    1    2    0    0 -0.91575515519E-03 -0.78492475239E-02  0.21840228049E-01  0.23225952196E-01  0.00000000000E+00 0. -1.
     999901    1    3    3    0    0  0.98055214704E-01  0.63347210241E-01 -0.82676103423E-01  0.89155091400E+00  0.88000000000E+00 0.  1.
        -11    1    4    4    0    0 -0.24563337954E-01 -0.83416572294E-02  0.23074481574E-01  0.34722235493E-01  0.51100000000E-03 0. -1.
         11    1    4    4    0    0 -0.72576121595E-01 -0.47156305488E-01  0.37761393801E-01  0.94430898311E-01  0.51100000000E-03 0.  1.
</event>
<event>
 8    1  0.1161093E+005  0.1043930E+01  0.7957747E-01            NaN
         13   -1    0    0    0    0  0.00000000000E+00  0.00000000000E+00  0.74505805969E-08  0.10566000000E+00  0.10566000000E+00 0.  1.
     999900   -1    0    0    0    0 -0.00000000000E+00 -0.00000000000E+00 -0.74505805969E-08  0.93827000000E+00  0.93827000000E+00 0.  1.
     999902    2    1    2    0    0 -0.11413166478E-01 -0.11005040151E-01  0.17879643519E-01  0.10200332862E+01  0.10197533290E+01 0.  0.
     999903    2    3    3    0    0  0.10119269842E+00 -0.57214723569E-01  0.57295474120E-01  0.13078134027E+00  0.17535700737E-01 0.  0.
         14    1    1    2    0    0  0.11413166478E-01  0.11005040151E-01 -0.17879643519E-01  0.23896713794E-01  0.00000000000E+00 0. -1.
     999901    1    3    3    0    0 -0.11260586490E+00  0.46209683418E-01 -0.39415830601E-01  0.88925194594E+00  0.88000000000E+00 0.  1.
        -11    1    4    4    0    0  0.56422629862E-01 -0.39098527291E-01  0.26995720490E-01  0.73764747967E-01  0.51100000000E-03 0. -1.
         11    1    4    4    0    0  0.44770068562E-01 -0.18116196279E-01  0.30299753630E-01  0.57016592301E-01  0.51100000000E-03 0.  1.
</event>
<event>
 8    1  0.1161093E+005  0.1043930E+01  0.7957747E-01            NaN
         13   -1    0    0    0    0  0.00000000000E+00  0.00000000000E+00  0.74505805969E-08  0.10566000000E+00  0.10566000000E+00 0.  1.
     999900   -1    0    0    0    0 -0.00000000000E+00 -0.00000000000E+00 -0.74505805969E-08  0.93827000000E+00  0.93827000000E+00 0. -1.
     999902    2    1    2    0    0  0.24784215888E-01  0.36520209312E-02  0.10829091478E-01  0.10166378063E+01  0.10162714034E+01 0.  0.
     999903    2    3    3    0    0 -0.52690384266E-02  0.11594701769E+00 -0.47734657376E-01  0.12706314555E+00  0.19873896550E-01 0.  0.
         14    1    1    2    0    0 -0.24784215888E-01 -0.36520209312E-02 -0.10829091478E-01  0.27292193688E-01  0.00000000000E+00 0.  1.
     999901    1    3    3    0    0  0.30053254315E-01 -0.11229499676E+00  0.58563748855E-01  0.88957466076E+00  0.88000000000E+00 0. -1.
        -11    1    4    4    0    0  0.50640436826E-03  0.29893668903E-01 -0.21781940687E-01  0.36994620514E-01  0.51100000000E-03 0. -1.
         11    1    4    4    0    0 -0.57754427948E-02  0.86053348789E-01 -0.25952716690E-01  0.90068525034E-01  0.51100000000E-03 0.  1.
</event>
<event>
 8    1  0.1161093E+005  0.1043930E+01  0.7957747E-01            NaN
         13   -1    0    0    0    0  0.00000000000E+00  0.00000000000E+00  0.74505805969E-08  0.10566000000E+00  0.10566000000E+00 0. -1.
     999900   -1    0    0    0    0 -0.00000000000E+00 -0.00000000000E+00 -0.74505805969E-08  0.93827000000E+00  0.93827000000E+00 0. -1.
     999902    2    1    2    0    0  0.22131222660E-01 -0.72276397986E-02 -0.44046982226E-02  0.10202354614E+01  0.10199602764E+01 0.  0.
     999903    2    3    3    0    0  0.97336200571E-01 -0.21537944701E-01 -0.86027194606E-01  0.13314876583E+00  0.19740735200E-01 0.  0.
         14    1    1    2    0    0 -0.22131222660E-01  0.72276397986E-02  0.44046982226E-02  0.23694538609E-01  0.00000000000E+00 0.  1.
     999901    1    3    3    0    0 -0.75204977911E-01  0.14310304902E-01  0.81622496383E-01  0.88708669556E+00  0.88000000000E+00 0.  1.
        -11    1    4    4    0    0  0.28435496679E-01 -0.40129406674E-02 -0.14033715733E-01  0.31966974559E-01  0.51100000000E-03 0. -1.
         11    1    4    4    0    0  0.68900703892E-01 -0.17525004033E-01 -0.71993478873E-01  0.10118179127E+00  0.51100000000E-03 0.  1.
</event>
<event>
 8    1  0.1161093E+005  0.1043930E+01  0.7957747E-01            NaN
         13   -1    0    0    0    0  0.00000000000E+00  0.00000000000E+00  0.74505805969E-08  0.10566000000E+00  0.10566000000E+00 0.  1.
     999900   -1    0    0    0    0 -0.00000000000E+00 -0.00000000000E+00 -0.74505805969E-08  0.93827000000E+00  0.93827000000E+00 0. -1.
     999902    2    1    2    0    0 -0.18664259788E-01  0.13059994294E-01 -0.85483094333E-02  0.10195991217E+01  0.10193087743E+01 0.  0.
     999903    2    3    3    0    0 -0.92143515341E-01  0.93076830580E-01 -0.94823650608E-02  0.13291836318E+00  0.20582813518E-01 0.  0.
         14    1    1    2    0    0  0.18664259788E-01 -0.13059994294E-01  0.85483094333E-02  0.24330878294E-01  0.00000000000E+00 0.  1.
     999901    1    3    3    0    0  0.73479255554E-01 -0.80016836286E-01  0.93405562748E-03  0.88668075853E+00  0.88000000000E+00 0.  1.
        -11    1    4    4    0    0 -0.89278646198E-01  0.89921870836E-01 -0.12983794279E-01  0.12737919593E+00  0.51100000000E-03 0.  1.
         11    1    4    4    0    0 -0.28648691439E-02  0.31549597438E-02  0.35014292181E-02  0.55391672448E-02  0.51100000000E-03 0. -1.
</event>
<event>
 8    1  0.1161093E+005  0.1043930E+01  0.7957747E-01            NaN
         13   -1    0    0    0    0  0.00000000000E+00  0.00000000000E+00  0.74505805969E-08  0.10566000000E+00  0.10566000000E+00 0.  1.
     999900   -1    0    0    0    0 -0.00000000000E+00 -0.00000000000E+00 -0.74505805969E-08  0.93827000000E+00  0.93827000000E+00 0.  1.
     999902    2    1    2    0    0  0.34652817583E-02  0.24929974067E-01  0.30927994902E-02  0.10185710333E+01  0.10182553082E+01 0.  0.
     999903    2    3    3    0    0 -0.16397730159E-01 -0.76666274436E-01 -0.97431710486E-01  0.12681909801E+00  0.21060442075E-01 0.  0.
         14    1    1    2    0    0 -0.34652817583E-02 -0.24929974067E-01 -0.30927994902E-02  0.25358966724E-01  0.00000000000E+00 0. -1.
     999901    1    3    3    0    0  0.19863011917E-01  0.10159624850E+00  0.10052450998E+00  0.89175193527E+00  0.88000000000E+00 0. -1.
        -11    1    4    4    0    0  0.18253492877E-02 -0.38408285224E-01 -0.52205927254E-01  0.64840174547E-01  0.51100000000E-03 0. -1.
         11    1    4    4    0    0 -0.18223079446E-01 -0.38257989212E-01 -0.45225783232E-01  0.61978923458E-01  0.51100000000E-03 0.  1.
</event>
<event>
 8    1  0.1161093E+005  0.1043930E+01  0.7957747E-01            NaN
         13   -1    0    0    0    0  0.00000000000E+00  0.00000000000E+00  0.74505805969E-08  0.10566000000E+00  0.10566000000E+00 0. -1.
     999900   -1    0    0    0    0 -0.00000000000E+00 -0.00000000000E+00 -0.74505805969E-08  0.93827000000E+00  0.93827000000E+00 0.  1.
     999902    2    1    2    0    0 -0.33907980265E-02  0.17243617514E-01 -0.15744209592E-01  0.10203350855E+01  0.10200622366E+01 0.  0.
     999903    2    3    3    0    0 -0.10007805556E+00  0.30399763116E-01 -0.78764795750E-01  0.13270165650E+00  0.21588742132E-01 0.  0.
         14    1    1    2    0    0  0.33907980265E-02 -0.17243617514E-01  0.15744209592E-01  0.23594914535E-01  0.00000000000E+00 0. -1.
     999901    1    3    3    0    0  0.96687257530E-01 -0.13156145602E-01  0.63020586158E-01  0.88763342896E+00  0.88000000000E+00 0.  1.
        -11    1    4    4    0    0 -0.86418935654E-01  0.33100770203E-01 -0.71769965444E-01  0.11711141058E+00  0.51100000000E-03 0.  1.
         11    1    4    4    0    0 -0.13659119902E-01 -0.27010070863E-02 -0.69948303061E-02  0.15590245919E-01  0.51100000000E-03 0. -1.
</event>
<event>
 8    1  0.1161093E+005  0.1043930E+01  0.7957747E-01            NaN
         13   -1    0    0    0    0  0.00000000000E+00  0.00000000000E+00  0.74505805969E-08  0.10566000000E+00  0.10566000000E+00 0. -1.
     999900   -1    0    0    0    0 -0.00000000000E+00 -0.00000000000E+00 -0.74505805969E-08  0.93827000000E+00  0.93827000000E+00 0. -1.
     999902    2    1    2    0    0 -0.21110456408E-01  0.63036066685E-02 -0.93207272539E-02  0.10200079854E+01  0.10197274280E+01 0.  0.
     999903    2    3    3    0    0  0.77113559005E-01  0.70612842066E-01  0.72097600737E-01  0.12848536700E+00  0.19435818823E-01 0.  0.
         14    1    1    2    0    0  0.21110456408E-01 -0.63036066685E-02  0.93207272539E-02  0.23922014616E-01  0.00000000000E+00 0. -1.
     999901    1    3    3    0    0 -0.98224015413E-01 -0.64309235398E-01 -0.81418327991E-01  0.89152261839E+00  0.88000000000E+00 0.  1.
        -11    1    4    4    0    0  0.14164190490E-01  0.11026605469E-01  0.43651564798E-02  0.18480422953E-01  0.51100000000E-03 0. -1.
         11    1    4    4    0    0  0.62949368515E-01  0.59586236597E-01  0.67732444257E-01  0.11000494404E+00  0.51100000000E-03 0.  1.
</event>
<event>
 8    1  0.1161093E+005  0.1043930E+01  0.7957747E-01            NaN
         13   -1    0    0    0    0  0.00000000000E+00  0.00000000000E+00  0.74505805969E-08  0.10566000000E+00  0.10566000000E+00 0. -1.
     999900   -1    0    0    0    0 -0.00000000000E+00 -0.00000000000E+00 -0.74505805969E-08  0.93827000000E+00  0.93827000000E+00 0.  1.
     999902    2    1    2    0    0 -0.19322895309E-01  0.52991500138E-02  0.11886184052E-01  0.10206332911E+01  0.10203673742E+01 0.  0.
     999903    2    3    3    0    0 -0.12214413757E+00  0.22496384741E-01  0.45403103088E-01  0.13384620471E+00  0.20690265218E-01 0.  0.
         14    1    1    2    0    0  0.19322895309E-01 -0.52991500138E-02 -0.11886184052E-01  0.23296708894E-01  0.00000000000E+00 0.  1.
     999901    1    3    3    0    0  0.10282124226E+00 -0.17197234727E-01 -0.33516919037E-01  0.88678708640E+00  0.88000000000E+00 0.  1.
        -11    1    4    4    0    0 -0.56811786097E-01  0.15658779197E-01  0.31023927671E-01  0.66599711821E-01  0.51100000000E-03 0.  1.
         11    1    4    4    0    0 -0.65332351475E-01  0.68376055440E-02  0.14379175417E-01  0.67246492886E-01  0.51100000000E-03 0. -1.
</event>
<event>
 8    1  0.1161093E+005  0.1043930E+01  0.7957747E-01            NaN
         13   -1    0    0    0    0  0.00000000000E+00  0.00000000000E+00  0.74505805969E-08  0.10566000000E+00  0.10566000000E+00 0.  1.
     999900   -1    0    0    0    0 -0.00000000000E+00 -0.00000000000E+00 -0.74505805969E-08  0.93827000000E+00  0.93827000000E+00 0.  1.
     999902    2    1    2    0    0 -0.12387831879E-01 -0.13104144656E-01 -0.12437241005E-01  0.10220242485E+01  0.10217894610E+01 0.  0.
     999903    2    3    3    0    0  0.46916835274E-01  0.11006035551E+00 -0.48790328522E-01  0.13072851494E+00  0.19874032687E-01 0.  0.
         14    1    1    2    0    0  0.12387831879E-01  0.13104144656E-01  0.12437241005E-01  0.21905751520E-01  0.00000000000E+00 0.  1.
     999901    1    3    3    0    0 -0.59304667153E-01 -0.12316450017E+00  0.36353087516E-01  0.89129573354E+00  0.88000000000E+00 0. -1.
        -11    1    4    4    0    0  0.60668857091E-02  0.37601392018E-01 -0.16072921275E-01  0.41343339285E-01  0.51100000000E-03 0.  1.
         11    1    4    4    0    0  0.40849949565E-01  0.72458963492E-01 -0.32717407246E-01  0.89385175660E-01  0.51100000000E-03 0. -1.
</event>
<event>
 8    1  0.1161093E+005  0.1043930E+01  0.7957747E-01            NaN
         13   -1    0    0    0    0  0.00000000000E+00  0.00000000000E+00  0.74505805969E-08  0.10566000000E+00  0.10566000000E+00 0. -1.
     999900   -1    0    0    0    0 -0.00000000000E+00 -0.00000000000E+00 -0.74505805969E-08  0.93827000000E+00  0.93827000000E+00 0. -1.
     999902    2    1    2    0    0 -0.10831423300E-01  0.13212802442E-01  0.22412256547E-01  0.10157483194E+01  0.10153572973E+01 0.  0.
     999903    2    3    3    0    0  0.11568498672E+00  0.31105010859E-01  0.35305042006E-01  0.12642680438E+00  0.19666037277E-01 0.  0.
         14    1    1    2    0    0  0.10831423300E-01 -0.13212802442E-01 -0.22412256547E-01  0.28181680621E-01  0.00000000000E+00 0.  1.
     999901    1    3    3    0    0 -0.12651641002E+00 -0.17892208417E-01 -0.12892785458E-01  0.88932151500E+00  0.88000000000E+00 0. -1.
        -11    1    4    4    0    0  0.59449181268E-01  0.25877048946E-01  0.21123123911E-01  0.68192919723E-01  0.51100000000E-03 0.  1.
         11    1    4    4    0    0  0.56235805449E-01  0.52279619130E-02  0.14181918095E-01  0.58233884656E-01  0.51100000000E-03 0. -1.
</event>
<event>
 8    1  0.1161093E+005  0.1043930E+01  0.7957747E-01            NaN
         13   -1    0    0    0    0  0.00000000000E+00  0.00000000000E+00  0.74505805969E-08  0.10566000000E+00  0.10566000000E+00 0.  1.
     999900   -1    0    0    0    0 -0.00000000000E+00 -0.00000000000E+00 -0.74505805969E-08  0.93827000000E+00  0.93827000000E+00 0.  1.
     999902    2    1    2    0    0  0.22542706244E-01  0.12535095173E-01  0.63272485993E-02  0.10173718319E+01  0.10170251266E+01 0.  0.
     999903    2    3    3    0    0 -0.27713411682E-01  0.11395967618E+00  0.50295194092E-01  0.12903304339E+00  0.19107034146E-01 0.  0.
         14    1    1    2    0    0 -0.22542706244E-01 -0.12535095173E-01 -0.63272485993E-02  0.26558168059E-01  0.00000000000E+00 0.  1.
     999901    1    3    3    0    0  0.50256117926E-01 -0.10142458101E+00 -0.43967945492E-01  0.88833878856E+00  0.88000000000E+00 0.  1.
        -11    1    4    4    0    0 -0.18527886844E-01  0.37799665235E-01  0.18778583098E-01  0.46097652727E-01  0.51100000000E-03 0.  1.
         11    1    4    4    0    0 -0.91855248381E-02  0.76160010948E-01  0.31516610993E-01  0.82935390659E-01  0.51100000000E-03 0. -1.
</event>
<event>
 8    1  0.1161093E+005  0.1043930E+01  0.7957747E-01            NaN
         13   -1    0    0    0    0  0.00000000000E+00  0.00000000000E+00  0.74505805969E-08  0.10566000000E+00  0.10566000000E+00 0.  1.
     999900   -1    0    0    0    0 -0.00000000000E+00 -0.00000000000E+00 -0.74505805969E-08  0.93827000000E+00  0.93827000000E+00 0. -1.
     999902    2    1    2    0    0  0.26242852469E-02  0.15655259236E-01 -0.17118762184E-01  0.10205842074E+01  0.10203171557E+01 0.  0.
     999903    2    3    3    0    0 -0.96060643822E-01 -0.51081040006E-02  0.83688290279E-01  0.12910684125E+00  0.20275761632E-01 0.  0.
         14    1    1    2    0    0 -0.26242852469E-02 -0.15655259236E-01  0.17118762184E-01  0.23345792630E-01  0.00000000000E+00 0.  1.
     999901    1    3    3    0    0  0.98684929069E-01  0.20763363237E-01 -0.10080705246E+00  0.89147736612E+00  0.88000000000E+00 0. -1.
        -11    1    4    4    0    0 -0.79807707116E-02 -0.43879148388E-02  0.14358773512E-01  0.17011231453E-01  0.51100000000E-03 0.  1.
         11    1    4    4    0    0 -0.88079873110E-01 -0.72018916179E-03  0.69329516767E-01  0.11209560980E+00  0.51100000000E-03 0. -1.
</event>
<event>
 8    1  0.1161093E+005  0.1043930E+01  0.7957747E-01            NaN
         13   -1    0    0    0    0  0.00000000000E+00  0.00000000000E+00  0.74505805969E-08  0.10566000000E+00  0.10566000000E+00 0.  1.
     999900   -1    0    0    0    0 -0.00000000000E+00 -0.00000000000E+00 -0.74505805969E-08  0.93827000000E+00  0.93827000000E+00 0.  1.
     999902    2    1    2    0    0  0.16220082769E-01 -0.11681256645E-01 -0.13794410164E-01  0.10196436130E+01  0.10193543392E+01 0.  0.
     999903    2    3    3    0    0  0.19142686697E-01  0.18629818459E-01 -0.12749936075E+00  0.13180572313E+00  0.20078572392E-01 0.  0.
         14    1    1    2    0    0 -0.16220082769E-01  0.11681256645E-01  0.13794410164E-01  0.24286387003E-01  0.00000000000E+00 0.  1.
     999901    1    3    3    0    0 -0.29226039280E-02 -0.30311075104E-01  0.11370495059E+00  0.88783788986E+00  0.88000000000E+00 0. -1.
        -11    1    4    4    0    0  0.53724945619E-02  0.10012389101E-01 -0.19376707140E-01  0.22468411914E-01  0.51100000000E-03 0. -1.
         11    1    4    4    0    0  0.13770192136E-01  0.86174293580E-02 -0.10812265361E+00  0.10933731122E+00  0.51100000000E-03 0.  1.
</event>
<event>
 8    1  0.1161093E+005  0.1043930E+01  0.7957747E-01            NaN
         13   -1    0    0    0    0  0.00000000000E+00  0.00000000000E+00  0.74505805969E-08  0.10566000000E+00  0.10566000000E+00 0. -1.
     999900   -1    0    0    0    0 -0.00000000000E+00 -0.00000000000E+00 -0.74505805969E-08  0.93827000000E+00  0.93827000000E+00 0. -1.
     999902    2    1    2    0    0  0.49635260778E-02 -0.13551796990E-01  0.18410160185E-01  0.10205372278E+01  0.10202690878E+01 0.  0.
     999903    2    3    3    0    0  0.11387101747E+00  0.56039509791E-01 -0.20920551040E-01  0.13022790150E+00  0.20361768010E-01 0.  0.
         14    1    1    2    0    0 -0.49635260778E-02  0.13551796990E-01 -0.18410160185E-01  0.23392772192E-01  0.00000000000E+00 0.  1.
     999901    1    3    3    0    0 -0.10890749139E+00 -0.69591306780E-01  0.39330711224E-01  0.89030932631E+00  0.88000000000E+00 0. -1.
        -11    1    4    4    0    0  0.62093663115E-01  0.38314349777E-01 -0.45691242766E-02  0.73107799964E-01  0.51100000000E-03 0.  1.
         11    1    4    4    0    0  0.51777354356E-01  0.17725160014E-01 -0.16351426763E-01  0.57120101539E-01  0.51100000000E-03 0. -1.
</event>
<event>
 8    1  0.1161093E+005  0.1043930E+01  0.7957747E-01            NaN
         13   -1    0    0    0    0  0.00000000000E+00  0.00000000000E+00  0.74505805969E-08  0.10566000000E+00  0.10566000000E+00 0.  1.
     999900   -1    0    0    0    0 -0.00000000000E+00 -0.00000000000E+00 -0.74505805969E-08  0.93827000000E+00  0.93827000000E+00 0.  1.
     999902    2    1    2    0    0  0.21824131312E-01  0.92361966805E-02  0.32270043296E-02  0.10200131943E+01  0.10197327606E+01 0.  0.
     999903    2    3    3    0    0  0.20755671829E-01 -0.41998749596E-01 -0.11985846751E+00  0.12997038934E+00  0.18208706453E-01 0.  0.
         14    1    1    2    0    0 -0.21824131312E-01 -0.92361966805E-02 -0.32270043296E-02  0.23916805672E-01  0.00000000000E+00 0.  1.
     999901    1    3    3    0    0  0.10684594822E-02  0.51234946277E-01  0.12308547184E+00  0.89004280498E+00  0.88000000000E+00 0. -1.
        -11    1    4    4    0    0  0.69367568929E-03 -0.24804915326E-02 -0.26449389586E-01  0.26579415996E-01  0.51100000000E-03 0.  1.
         11    1    4    4    0    0  0.20061996140E-01 -0.39518258064E-01 -0.93409077927E-01  0.10339097335E+00  0.51100000000E-03 0. -1.
</event>
<event>
 8    1  0.1161093E+005  0.1043930E+01  0.7957747E-01            NaN
         13   -1    0    0    0    0  0.00000000000E+00  0.00000000000E+00  0.74505805969E-08  0.10566000000E+00  0.10566000000E+00 0.  1.
     999900   -1    0    0    0    0 -0.00000000000E+00 -0.00000000000E+00 -0.74505805969E-08  0.93827000000E+00  0.93827000000E+00 0. -1.
     999902    2    1    2    0    0 -0.18057679663E-01 -0.27816125108E-02  0.27872355029E-02  0.10254479589E+01  0.10252813909E+01 0.  0.
     999903    2    3    3    0    0  0.98280614504E-01 -0.51888729771E-01 -0.71455899157E-01  0.13333913663E+00  0.17940467340E-01 0.  0.
         14    1    1    2    0    0  0.18057679663E-01  0.27816125108E-02 -0.27872355029E-02  0.18482041140E-01  0.00000000000E+00 0. -1.
     999901    1    3    3    0    0 -0.11633829417E+00  0.49107117261E-01  0.74243134660E-01  0.89210882223E+00  0.88000000000E+00 0.  1.
        -11    1    4    4    0    0  0.65479212561E-01 -0.43342277806E-01 -0.46716544585E-01  0.91371642110E-01  0.51100000000E-03 0.  1.
         11    1    4    4    0    0  0.32801401944E-01 -0.85464519656E-02 -0.24739354572E-01  0.41967494520E-01  0.51100000000E-03 0. -1.
</event>
<event>
 8    1  0.1161093E+005  0.1043930E+01  0.7957747E-01            NaN
         13   -1    0    0    0    0  0.00000000000E+00  0.00000000000E+00  0.74505805969E-08  0.10566000000E+00  0.10566000000E+00 0. -1.
     999900   -1    0    0    0    0 -0.00000000000E+00 -0.00000000000E+00 -0.74505805969E-08  0.93827000000E+00  0.93827000000E+00 0. -1.
     999902    2    1    2    0    0 -0.30673895247E-04  0.16553512953E-01 -0.17615630967E-01  0.10197570774E+01  0.10194705326E+01 0.  0.
     999903    2    3    3    0    0 -0.12254695931E+00 -0.30338439454E-01 -0.22874997089E-01  0.13001736473E+00  0.21049263525E-01 0.  0.
         14    1    1    2    0    0  0.30673895247E-04 -0.16553512953E-01  0.17615630967E-01  0.24172922586E-01  0.00000000000E+00 0.  1.
     999901    1    3    3    0    0  0.12251628542E+00  0.46891952407E-01  0.52593661218E-02  0.88973971268E+00  0.88000000000E+00 0. -1.
        -11    1    4    4    0    0 -0.11383814718E-01  0.32687270219E-02 -0.22759838023E-02  0.12071331209E-01  0.51100000000E-03 0. -1.
         11    1    4    4    0    0 -0.11116314459E+00 -0.33607166476E-01 -0.20599013287E-01  0.11794603352E+00  0.51100000000E-03 0.  1.
</event>
<event>
 8    1  0.1161093E+005  0.1043930E+01  0.7957747E-01            NaN
         13   -1    0    0    0    0  0.00000000000E+00  0.00000000000E+00  0.74505805969E-08  0.10566000000E+00  0.10566000000E+00 0.  1.
     999900   -1    0    0    0    0 -0.00000000000E+00 -0.00000000000E+00 -0.74505805969E-08  0.93827000000E+00  0.93827000000E+00 0. -1.
     999902    2    1    2    0    0  0.21351497622E-01  0.73713339278E-02  0.74415802244E-02  0.10201476509E+01  0.10198703983E+01 0.  0.
     999903    2    3    3    0    0 -0.12476623483E+00 -0.12566116973E-01 -0.12098699854E-01  0.12766251584E+00  0.20659592522E-01 0.  0.
         14    1    1    2    0    0 -0.21351497622E-01 -0.73713339278E-02 -0.74415802244E-02  0.23782349144E-01  0.00000000000E+00 0.  1.
     999901    1    3    3    0    0  0.14611773245E+00  0.19937450901E-01  0.19540280078E-01  0.89248513502E+00  0.88000000000E+00 0. -1.
        -11    1    4    4    0    0 -0.75703516582E-01 -0.88371932890E-02 -0.17371830527E-01  0.78173908851E-01  0.51100000000E-03 0.  1.
         11    1    4    4    0    0 -0.49062718244E-01 -0.37289236840E-02  0.52731306736E-02  0.49488606987E-01  0.51100000000E-03 0. -1.
</event>
<event>
 8    1  0.1161093E+005  0.1043930E+01  0.7957747E-01            NaN
         13   -1    0    0    0    0  0.00000000000E+00  0.00000000000E+00  0.74505805969E-08  0.10566000000E+00  0.10566000000E+00 0.  1.
     999900   -1    0    0    0    0 -0.00000000000E+00 -0.00000000000E+00 -0.74505805969E-08  0.93827000000E+00  0.93827000000E+00 0. -1.
     999902    2    1    2    0    0  0.17136942264E-01  0.10710360079E-01  0.12582219011E-01  0.10201245628E+01  0.10198467654E+01 0.  0.
     999903    2    3    3    0    0 -0.63096909693E-01 -0.10858666952E+00  0.18034598649E-01  0.12844133393E+00  0.19991115633E-01 0.  0.
         14    1    1    2    0    0 -0.17136942264E-01 -0.10710360079E-01 -0.12582219011E-01  0.23805437161E-01  0.00000000000E+00 0. -1.
     999901    1    3    3    0    0  0.80233851956E-01  0.11929702960E+00 -0.54523796374E-02  0.89168322891E+00  0.88000000000E+00 0. -1.
        -11    1    4    4    0    0 -0.47563418192E-01 -0.62648900721E-01  0.12049966759E-01  0.79577800495E-01  0.51100000000E-03 0. -1.
         11    1    4    4    0    0 -0.15533491501E-01 -0.45937768796E-01  0.59846318898E-02  0.48863533437E-01  0.51100000000E-03 0.  1.
</event>
<event>
 8    1  0.1161093E+005  0.1043930E+01  0.7957747E-01            NaN
         13   -1    0    0    0    0  0.00000000000E+00  0.00000000000E+00  0.74505805969E-08  0.10566000000E+00  0.10566000000E+00 0.  1.
     999900   -1    0    0    0    0 -0.00000000000E+00 -0.00000000000E+00 -0.74505805969E-08  0.93827000000E+00  0.93827000000E+00 0. -1.
     999902    2    1    2    0    0 -0.21960319830E-01  0.94433937900E-02  0.80907433957E-03  0.10200116402E+01  0.10197311696E+01 0.  0.
     999903    2    3    3    0    0 -0.63498937662E-01 -0.90162921358E-01 -0.67777498658E-01  0.13076983239E+00  0.18587422306E-01 0.  0.
         14    1    1    2    0    0  0.21960319830E-01 -0.94433937900E-02 -0.80907433957E-03  0.23918359780E-01  0.00000000000E+00 0.  1.
     999901    1    3    3    0    0  0.41538617832E-01  0.99606315148E-01  0.68586572998E-01  0.88924180783E+00  0.88000000000E+00 0.  1.
        -11    1    4    4    0    0 -0.13729187652E-01 -0.31734865041E-01 -0.26884933330E-01  0.43802431598E-01  0.51100000000E-03 0.  1.
         11    1    4    4    0    0 -0.49769750010E-01 -0.58428056317E-01 -0.40892565328E-01  0.86967400796E-01  0.51100000000E-03 0. -1.
</event>
<event>
 8    1  0.1161093E+005  0.1043930E+01  0.7957747E-01            NaN
         13   -1    0    0    0    0  0.00000000000E+00  0.00000000000E+00  0.74505805969E-08  0.10566000000E+00  0.10566000000E+00 0. -1.
     999900   -1    0    0    0    0 -0.00000000000E+00 -0.00000000000E+00 -0.74505805969E-08  0.93827000000E+00  0.93827000000E+00 0. -1.
     999902    2    1    2    0    0 -0.14825785643E-01  0.14479022116E-01  0.10807649335E-01  0.10205579807E+01  0.10202903218E+01 0.  0.
     999903    2    3    3    0    0  0.96786130211E-01  0.79653354827E-01 -0.29552432426E-01  0.13020195664E+00  0.19157017364E-01 0.  0.
         14    1    1    2    0    0  0.14825785643E-01 -0.14479022116E-01 -0.10807649335E-01  0.23372019286E-01  0.00000000000E+00 0. -1.
     999901    1    3    3    0    0 -0.11161191585E+00 -0.65174332711E-01  0.40360081761E-01  0.89035602407E+00  0.88000000000E+00 0.  1.
        -11    1    4    4    0    0  0.62821922090E-01  0.41684728680E-01 -0.12161944964E-01  0.76370049932E-01  0.51100000000E-03 0.  1.
         11    1    4    4    0    0  0.33964208120E-01  0.37968626146E-01 -0.17390487462E-01  0.53831906708E-01  0.51100000000E-03 0. -1.
</event>
<event>
 8    1  0.1161093E+005  0.1043930E+01  0.7957747E-01            NaN
         13   -1    0    0    0    0  0.00000000000E+00  0.00000000000E+00  0.74505805969E-08  0.10566000000E+00  0.10566000000E+00 0. -1.
     999900   -1    0    0    0    0 -0.00000000000E+00 -0.00000000000E+00 -0.74505805969E-08  0.93827000000E+00  0.93827000000E+00 0. -1.
     999902    2    1    2    0    0 -0.18891485783E-01  0.52468776283E-02 -0.20008608445E-01  0.10159163895E+01  0.10155300823E+01 0.  0.
     999903    2    3    3    0    0  0.22343055087E-01  0.11657575299E+00 -0.43149724322E-01  0.12764282970E+00  0.18484452065E-01 0.  0.
         14    1    1    2    0    0  0.18891485783E-01 -0.52468776283E-02  0.20008608445E-01  0.28013610474E-01  0.00000000000E+00 0.  1.
     999901    1    3    3    0    0 -0.41234540869E-01 -0.11132887536E+00  0.23141115877E-01  0.88827355983E+00  0.88000000000E+00 0. -1.
        -11    1    4    4    0    0  0.15234976482E-01  0.48474684778E-01 -0.25879610805E-01  0.57025563997E-01  0.51100000000E-03 0.  1.
         11    1    4    4    0    0  0.71080786051E-02  0.68101068210E-01 -0.17270113517E-01  0.70617265698E-01  0.51100000000E-03 0. -1.
</event>
<event>
 8    1  0.1161093E+005  0.1043930E+01  0.7957747E-01            NaN
         13   -1    0    0    0    0  0.00000000000E+00  0.00000000000E+00  0.74505805969E-08  0.10566000000E+00  0.10566000000E+00 0.  1.
     999900   -1    0    0    0    0 -0.00000000000E+00 -0.00000000000E+00 -0.74505805969E-08  0.93827000000E+00  0.93827000000E+00 0. -1.
     999902    2    1    2    0    0 -0.17286217077E-01  0.11200035381E-01  0.12220599193E-01  0.10199801119E+01  0.10196988926E+01 0.  0.
     999903    2    3    3    0    0  0.58683253359E-01  0.67443103162E-01 -0.90843927761E-01  0.12893749802E+00  0.19492634383E-01 0.  0.
         14    1    1    2    0    0  0.17286217077E-01 -0.11200035381E-01 -0.12220599193E-01  0.23949888058E-01  0.00000000000E+00 0. -1.
     999901    1    3    3    0    0 -0.75969470436E-01 -0.56243067780E-01  0.10306452695E+00  0.89104261392E+00  0.88000000000E+00 0.  1.
        -11    1    4    4    0    0  0.39432425281E-01  0.39068113332E-01 -0.43741431239E-01  0.70673952562E-01  0.51100000000E-03 0. -1.
         11    1    4    4    0    0  0.19250828078E-01  0.28374989830E-01 -0.47102496522E-01  0.58263545456E-01  0.51100000000E-03 0.  1.
</event>
<event>
 8    1  0.1161093E+005  0.1043930E+01  0.7957747E-01            NaN
         13   -1    0    0    0    0  0.00000000000E+00  0.00000000000E+00  0.74505805969E-08  0.10566000000E+00  0.10566000000E+00 0.  1.
     999900   -1    0    0    0    0 -0.00000000000E+00 -0.00000000000E+00 -0.74505805969E-08  0.93827000000E+00  0.93827000000E+00 0. -1.
     999902    2    1    2    0    0  0.22630070844E-01  0.13024746663E-01  0.62182839888E-02  0.10170891508E+01  0.10167349258E+01 0.  0.
     999903    2    3    3    0    0 -0.24002034944E-01 -0.19610305444E-02 -0.12241421858E+00  0.12638973596E+00  0.20228225888E-01 0.  0.
         14    1    1    2    0    0 -0.22630070844E-01 -0.13024746663E-01 -0.62182839888E-02  0.26840849237E-01  0.00000000000E+00 0. -1.
     999901    1    3    3    0    0  0.46632105788E-01  0.14985777207E-01  0.12863250257E+00  0.89069941480E+00  0.88000000000E+00 0.  1.
        -11    1    4    4    0    0 -0.42739424070E-02  0.23303487846E-02 -0.70739620063E-01  0.70908758816E-01  0.51100000000E-03 0. -1.
         11    1    4    4    0    0 -0.19728092537E-01 -0.42913793290E-02 -0.51674598521E-01  0.55480977146E-01  0.51100000000E-03 0.  1.
</event>
<event>
 8    1  0.1161093E+005  0.1043930E+01  0.7957747E-01            NaN
         13   -1    0    0    0    0  0.00000000000E+00  0.00000000000E+00  0.74505805969E-08  0.10566000000E+00  0.10566000000E+00 0. -1.
     999900   -1    0    0    0    0 -0.00000000000E+00 -0.00000000000E+00 -0.74505805969E-08  0.93827000000E+00  0.93827000000E+00 0.  1.
     999902    2    1    2    0    0  0.22672468947E-01 -0.41299041021E-02 -0.75690772950E-02  0.10196732919E+01  0.10193847332E+01 0.  0.
     999903    2    3    3    0    0  0.96486748944E-01 -0.84789312324E-01  0.24219402393E-01  0.13233739412E+00  0.20680576041E-01 0.  0.
         14    1    1    2    0    0 -0.22672468947E-01  0.41299041021E-02  0.75690772950E-02  0.24256708085E-01  0.00000000000E+00 0. -1.
     999901    1    3    3    0    0 -0.73814279997E-01  0.80659408221E-01 -0.31788479688E-01  0.88733589779E+00  0.88000000000E+00 0.  1.
        -11    1    4    4    0    0  0.23011407763E-01 -0.32761465591E-01  0.88004238139E-02  0.40994476399E-01  0.51100000000E-03 0.  1.
         11    1    4    4    0    0  0.73475341181E-01 -0.52027846733E-01  0.15418978579E-01  0.91342917726E-01  0.51100000000E-03 0. -1.
</event>
<event>
 8    1  0.1161093E+005  0.1043930E+01  0.7957747E-01            NaN
         13   -1    0    0    0    0  0.00000000000E+00  0.00000000000E+00  0.74505805969E-08  0.10566000000E+00  0.10566000000E+00 0.  1.
     999900   -1    0    0    0    0 -0.00000000000E+00 -0.00000000000E+00 -0.74505805969E-08  0.93827000000E+00  0.93827000000E+00 0. -1.
     999902    2    1    2    0    0 -0.87669934523E-02  0.22862319640E-02 -0.22516523916E-01  0.10196590116E+01  0.10193701089E+01 0.  0.
     999903    2    3    3    0    0 -0.52211370461E-01 -0.97815883631E-01  0.61833605705E-01  0.12891618009E+00  0.22405633191E-01 0.  0.
         14    1    1    2    0    0  0.87669934523E-02 -0.22862319640E-02  0.22516523916E-01  0.24270988444E-01  0.00000000000E+00 0.  1.
     999901    1    3    3    0    0  0.43444377008E-01  0.10010211560E+00 -0.84350129621E-01  0.89074283147E+00  0.88000000000E+00 0. -1.
        -11    1    4    4    0    0 -0.49155136203E-01 -0.94092707158E-01  0.52571452939E-01  0.11846384993E+00  0.51100000000E-03 0.  1.
         11    1    4    4    0    0 -0.30562342577E-02 -0.37231764732E-02  0.92621527662E-02  0.10452330159E-01  0.51100000000E-03 0. -1.
</event>
<event>
 8    1  0.1161093E+005  0.1043930E+01  0.7957747E-01            NaN
         13   -1    0    0    0    0  0.00000000000E+00  0.00000000000E+00  0.74505805969E-08  0.10566000000E+00  0.10566000000E+00 0. -1.
     999900   -1    0    0    0    0 -0.00000000000E+00 -0.00000000000E+00 -0.74505805969E-08  0.93827000000E+00  0.93827000000E+00 0. -1.
     999902    2    1    2    0    0  0.18786672497E-01 -0.60185997940E-02 -0.13656275503E-01  0.10199371580E+01  0.10196549170E+01 0.  0.
     999903    2    3    3    0    0  0.11252374870E+00 -0.31101057071E-01  0.57540039722E-01  0.13174535189E+00  0.20423315156E-01 0.  0.
         14    1    1    2    0    0 -0.18786672497E-01  0.60185997940E-02  0.13656275503E-01  0.23992842007E-01  0.00000000000E+00 0. -1.
     999901    1    3    3    0    0 -0.93737076204E-01  0.25082457277E-01 -0.71196315225E-01  0.88819180610E+00  0.88000000000E+00 0. -1.
        -11    1    4    4    0    0  0.46922871123E-01 -0.14175452300E-01  0.35409491943E-01  0.60471419059E-01  0.51100000000E-03 0. -1.
         11    1    4    4    0    0  0.65600877578E-01 -0.16925604771E-01  0.22130547779E-01  0.71273932835E-01  0.51100000000E-03 0.  1.
</event>
<event>
 8    1  0.1161093E+005  0.1043930E+01  0.7957747E-01            NaN
         13   -1    0    0    0    0  0.00000000000E+00  0.00000000000E+00  0.74505805969E-08  0.10566000000E+00  0.10566000000E+00 0. -1.
     999900   -1    0    0    0    0 -0.00000000000E+00 -0.00000000000E+00 -0.74505805969E-08  0.93827000000E+00  0.93827000000E+00 0.  1.
     999902    2    1    2    0    0  0.68920128289E-02 -0.23377872296E-01  0.54229179752E-02  0.10189613638E+01  0.10186554021E+01 0.  0.
     999903    2    3    3    0    0  0.23570752452E-01 -0.25047058660E-01  0.12421808511E+00  0.13082102677E+00  0.22384656786E-01 0.  0.
         14    1    1    2    0    0 -0.68920128289E-02  0.23377872296E-01 -0.54229179752E-02  0.24968636192E-01  0.00000000000E+00 0.  1.
     999901    1    3    3    0    0 -0.16678739623E-01  0.16691863633E-02 -0.11879516713E+00  0.88814033704E+00  0.88000000000E+00 0.  1.
        -11    1    4    4    0    0  0.60357384211E-02 -0.99689979751E-03  0.56706534533E-01  0.57037848199E-01  0.51100000000E-03 0. -1.
         11    1    4    4    0    0  0.17535014031E-01 -0.24050158862E-01  0.67511550573E-01  0.73783178572E-01  0.51100000000E-03 0.  1.
</event>
<event>
 8    1  0.1161093E+005  0.1043930E+01  0.7957747E-01            NaN
         13   -1    0    0    0    0  0.00000000000E+00  0.00000000000E+00  0.74505805969E-08  0.10566000000E+00  0.10566000000E+00 0.  1.
     999900   -1    0    0    0    0 -0.00000000000E+00 -0.00000000000E+00 -0.74505805969E-08  0.93827000000E+00  0.93827000000E+00 0. -1.
     999902    2    1    2    0    0  0.20039912137E-01 -0.10586178408E-01  0.74905407804E-02  0.10200600722E+01  0.10197807497E+01 0.  0.
     999903    2    3    3    0    0 -0.94933808299E-01  0.62423977730E-01  0.56754718951E-01  0.12822129836E+00  0.17618804589E-01 0.  0.
         14    1    1    2    0    0 -0.20039912137E-01  0.10586178408E-01 -0.74905407804E-02  0.23869927795E-01  0.00000000000E+00 0. -1.
     999901    1    3    3    0    0  0.11497372044E+00 -0.73010156138E-01 -0.49264178171E-01  0.89183877385E+00  0.88000000000E+00 0. -1.
        -11    1    4    4    0    0 -0.57600427174E-01  0.27458516054E-01  0.30619136421E-01  0.70778329669E-01  0.51100000000E-03 0. -1.
         11    1    4    4    0    0 -0.37333381124E-01  0.34965461676E-01  0.26135582530E-01  0.57442968687E-01  0.51100000000E-03 0.  1.
</event>
<event>
 8    1  0.1161093E+005  0.1043930E+01  0.7957747E-01            NaN
         13   -1    0    0    0    0  0.00000000000E+00  0.00000000000E+00  0.74505805969E-08  0.10566000000E+00  0.10566000000E+00 0. -1.
     999900   -1    0    0    0    0 -0.00000000000E+00 -0.00000000000E+00 -0.74505805969E-08  0.93827000000E+00  0.93827000000E+00 0. -1.
     999902    2    1    2    0    0  0.57327884272E-02  0.22855671081E-01  0.30504659875E-02  0.10201696989E+01  0.10198929663E+01 0.  0.
     999903    2    3    3    0    0  0.86197150579E-01 -0.94232245805E-01  0.55291762376E-02  0.12877178675E+00  0.15554303422E-01 0.  0.
         14    1    1    2    0    0 -0.57327884272E-02 -0.22855671081E-01 -0.30504659875E-02  0.23760301060E-01  0.00000000000E+00 0.  1.
     999901    1    3    3    0    0 -0.80464362151E-01  0.11708791689E+00 -0.24787102501E-02  0.89139791219E+00  0.88000000000E+00 0.  1.
        -11    1    4    4    0    0  0.16809161388E-01 -0.10228866693E-01  0.15067355729E-02  0.19741048439E-01  0.51100000000E-03 0.  1.
         11    1    4    4    0    0  0.69387989191E-01 -0.84003379112E-01  0.40224406648E-02  0.10903073831E+00  0.51100000000E-03 0. -1.
</event>
<event>
 8    1  0.1161093E+005  0.1043930E+01  0.7957747E-01            NaN
         13   -1    0    0    0    0  0.00000000000E+00  0.00000000000E+00  0.74505805969E-08  0.10566000000E+00  0.10566000000E+00 0.  1.
     999900   -1    0    0    0    0 -0.00000000000E+00 -0.00000000000E+00 -0.74505805969E-08  0.93827000000E+00  0.93827000000E+00 0. -1.
     999902    2    1    2    0    0 -0.11235717908E-02 -0.15936137833E-01  0.18367455642E-01  0.10195869039E+01  0.10192962613E+01 0.  0.
     999903    2    3    3    0    0 -0.44809459886E-01  0.53136891976E-01 -0.10469099998E+00  0.12727366079E+00  0.20173305920E-01 0.  0.
         14    1    1    2    0    0  0.11235717908E-02  0.15936137833E-01 -0.18367455642E-01  0.24343096133E-01  0.00000000000E+00 0.  1.
     999901    1    3    3    0    0  0.43685888095E-01 -0.69073029809E-01  0.12305845562E+00  0.89231324307E+00  0.88000000000E+00 0.  1.
        -11    1    4    4    0    0 -0.17676242390E-01  0.29649101954E-01 -0.66102838779E-01  0.74574561396E-01  0.51100000000E-03 0.  1.
         11    1    4    4    0    0 -0.27133217496E-01  0.23487790022E-01 -0.38588161196E-01  0.52699099397E-01  0.51100000000E-03 0. -1.
</event>
<event>
 8    1  0.1161093E+005  0.1043930E+01  0.7957747E-01            NaN
         13   -1    0    0    0    0  0.00000000000E+00  0.00000000000E+00  0.74505805969E-08  0.10566000000E+00  0.10566000000E+00 0.  1.
     999900   -1    0    0    0    0 -0.00000000000E+00 -0.00000000000E+00 -0.74505805969E-08  0.93827000000E+00  0.93827000000E+00 0. -1.
     999902    2    1    2    0    0  0.36927502651E-02 -0.94061156595E-02  0.21458738656E-01  0.10202110438E+01  0.10199352848E+01 0.  0.
     999903    2    3    3    0    0  0.32085288690E-01  0.25814941039E-01  0.12506182978E+00  0.13297924800E+00  0.18631752425E-01 0.  0.
         14    1    1    2    0    0 -0.36927502651E-02  0.94061156595E-02 -0.21458738656E-01  0.23718956154E-01  0.00000000000E+00 0. -1.
     999901    1    3    3    0    0 -0.28392538425E-01 -0.35221056699E-01 -0.10360309113E+00  0.88723179585E+00  0.88000000000E+00 0. -1.
        -11    1    4    4    0    0  0.27295876266E-01  0.10698561209E-01  0.82633795168E-01  0.87681978182E-01  0.51100000000E-03 0.  1.
         11    1    4    4    0    0  0.47894124245E-02  0.15116379830E-01  0.42428034614E-01  0.45297269816E-01  0.51100000000E-03 0. -1.
</event>
<event>
 8    1  0.1161093E+005  0.1043930E+01  0.7957747E-01            NaN
         13   -1    0    0    0    0  0.00000000000E+00  0.00000000000E+00  0.74505805969E-08  0.10566000000E+00  0.10566000000E+00 0.  1.
     999900   -1    0    0    0    0 -0.00000000000E+00 -0.00000000000E+00 -0.74505805969E-08  0.93827000000E+00  0.93827000000E+00 0. -1.
     999902    2    1    2    0    0  0.46393927925E-02  0.15478497186E-01 -0.18217986986E-01  0.10195783493E+01  0.10192874999E+01 0.  0.
     999903    2    3    3    0    0  0.99376088011E-01 -0.77443735701E-01 -0.21801347687E-01  0.12962193283E+00  0.21293370865E-01 0.  0.
         14    1    1    2    0    0 -0.46393927925E-02 -0.15478497186E-01  0.18217986986E-01  0.24351650672E-01  0.00000000000E+00 0.  1.
     999901    1    3    3    0    0 -0.94736695219E-01  0.92922232887E-01  0.35833607003E-02  0.88995641649E+00  0.88000000000E+00 0.  1.
        -11    1    4    4    0    0  0.71830860011E-01 -0.64400500935E-01 -0.22768609995E-01  0.99125010430E-01  0.51100000000E-03 0. -1.
         11    1    4    4    0    0  0.27545228000E-01 -0.13043234767E-01  0.96726230816E-03  0.30496922404E-01  0.51100000000E-03 0.  1.
</event>
<event>
 8    1  0.1161093E+005  0.1043930E+01  0.7957747E-01            NaN
         13   -1    0    0    0    0  0.00000000000E+00  0.00000000000E+00  0.74505805969E-08  0.10566000000E+00  0.10566000000E+00 0.  1.
     999900   -1    0    0    0    0 -0.00000000000E+00 -0.00000000000E+00 -0.74505805969E-08  0.93827000000E+00  0.93827000000E+00 0.  1.
     999902    2    1    2    0    0  0.13694055622E-01  0.19109204365E-01  0.67381789294E-02  0.10194740824E+01  0.10191807066E+01 0.  0.
     999903    2    3    3    0    0  0.78507030507E-01 -0.81696221222E-01  0.59817525701E-01  0.12976633678E+00  0.20580072402E-01 0.  0.
         14    1    1    2    0    0 -0.13694055622E-01 -0.19109204365E-01 -0.67381789294E-02  0.24455917610E-01  0.00000000000E+00 0. -1.
     999901    1    3    3    0    0 -0.64812974884E-01  0.10080542559E+00 -0.53079346772E-01  0.88970774561E+00  0.88000000000E+00 0.  1.
        -11    1    4    4    0    0  0.15106966879E-01 -0.24524291773E-01  0.79987458672E-02  0.29898200476E-01  0.51100000000E-03 0.  1.
         11    1    4    4    0    0  0.63400063627E-01 -0.57171929449E-01  0.51818779834E-01  0.99868136306E-01  0.51100000000E-03 0. -1.
</event>
<event>
 8    1  0.1161093E+005  0.1043930E+01  0.7957747E-01            NaN
         13   -1    0    0    0    0  0.00000000000E+00  0.00000000000E+00  0.74505805969E-08  0.10566000000E+00  0.10566000000E+00 0. -1.
     999900   -1    0    0    0    0 -0.00000000000E+00 -0.00000000000E+00 -0.74505805969E-08  0.93827000000E+00  0.93827000000E+00 0. -1.
     999902    2    1    2    0    0  0.52974396154E-02 -0.44451472809E-02 -0.22698034405E-01  0.10202018950E+01  0.10199259206E+01 0.  0.
     999903    2    3    3    0    0 -0.56679869238E-01  0.56027589775E-01 -0.10361701391E+00  0.13225706565E+00  0.20093467823E-01 0.  0.
         14    1    1    2    0    0 -0.52974396154E-02  0.44451472809E-02  0.22698034405E-01  0.23728104996E-01  0.00000000000E+00 0. -1.
     999901    1    3    3    0    0  0.61977308854E-01 -0.60472737055E-01  0.80918979503E-01  0.88794482936E+00  0.88000000000E+00 0. -1.
        -11    1    4    4    0    0 -0.55974210992E-02  0.16936682682E-01 -0.21285192725E-01  0.27775940912E-01  0.51100000000E-03 0. -1.
         11    1    4    4    0    0 -0.51082448139E-01  0.39090907093E-01 -0.82331821184E-01  0.10448112473E+00  0.51100000000E-03 0.  1.
</event>
<event>
 8    1  0.1161093E+005  0.1043930E+01  0.7957747E-01            NaN
         13   -1    0    0    0    0  0.00000000000E+00  0.00000000000E+00  0.74505805969E-08  0.10566000000E+00  0.10566000000E+00 0. -1.
     999900   -1    0    0    0    0 -0.00000000000E+00 -0.00000000000E+00 -0.74505805969E-08  0.93827000000E+00  0.93827000000E+00 0.  1.
     999902    2    1    2    0    0 -0.39899457527E-02 -0.61812711229E-02 -0.22460104427E-01  0.10202956168E+01  0.10200218437E+01 0.  0.
     999903    2    3    3    0    0 -0.11474583652E+00  0.43588208752E-01 -0.43110793753E-01  0.13171792212E+00  0.20604162843E-01 0.  0.
         14    1    1    2    0    0  0.39899457527E-02  0.61812711229E-02  0.22460104427E-01  0.23634383230E-01  0.00000000000E+00 0. -1.
     999901    1    3    3    0    0  0.11075589077E+00 -0.49769479875E-01  0.20650689326E-01  0.88857769465E+00  0.88000000000E+00 0.  1.
        -11    1    4    4    0    0 -0.42846155183E-01  0.96120474507E-02 -0.73598061208E-02  0.44526535204E-01  0.51100000000E-03 0.  1.
         11    1    4    4    0    0 -0.71899681341E-01  0.33976161302E-01 -0.35750987632E-01  0.87191386911E-01  0.51100000000E-03 0. -1.
</event>
<event>
 8    1  0.1161093E+005  0.1043930E+01  0.7957747E-01            NaN
         13   -1    0    0    0    0  0.00000000000E+00  0.00000000000E+00  0.74505805969E-08  0.10566000000E+00  0.10566000000E+00 0. -1.
     999900   -1    0    0    0    0 -0.00000000000E+00 -0.00000000000E+00 -0.74505805969E-08  0.93827000000E+00  0.93827000000E+00 0.  1.
     999902    2    1    2    0    0 -0.16912712098E-01  0.16664698244E-01  0.14965895597E-02  0.10201394183E+01  0.10198619715E+01 0.  0.
     999903    2    3    3    0    0 -0.10487719134E+00 -0.22008154111E-01  0.74007911625E-01  0.13194392688E+00  0.21176514059E-01 0.  0.
         14    1    1    2    0    0  0.16912712098E-01 -0.16664698244E-01 -0.14965895597E-02  0.23790581716E-01  0.00000000000E+00 0. -1.
     999901    1    3    3    0    0  0.87964479241E-01  0.38672852355E-01 -0.72511322065E-01  0.88819549140E+00  0.88000000000E+00 0.  1.
        -11    1    4    4    0    0 -0.80816388879E-01 -0.10800059327E-01  0.47188792124E-01  0.94207076252E-01  0.51100000000E-03 0. -1.
         11    1    4    4    0    0 -0.24060802460E-01 -0.11208094784E-01  0.26819119501E-01  0.37736850631E-01  0.51100000000E-03 0.  1.
</event>
<event>
 8    1  0.1161093E+005  0.1043930E+01  0.7957747E-01            NaN
         13   -1    0    0    0    0  0.00000000000E+00  0.00000000000E+00  0.74505805969E-08  0.10566000000E+00  0.10566000000E+00 0.  1.
     999900   -1    0    0    0    0 -0.00000000000E+00 -0.00000000000E+00 -0.74505805969E-08  0.93827000000E+00  0.93827000000E+00 0. -1.
     999902    2    1    2    0    0  0.55744101892E-02  0.19306514033E-01  0.10799407988E-01  0.10211167857E+01  0.10208619139E+01 0.  0.
     999903    2    3    3    0    0  0.79823251194E-01  0.44858140097E-01 -0.92494158936E-01  0.13160268411E+00  0.19495970452E-01 0.  0.
         14    1    1    2    0    0 -0.55744101892E-02 -0.19306514033E-01 -0.10799407988E-01  0.22813214284E-01  0.00000000000E+00 0. -1.
     999901    1    3    3    0    0 -0.74248841005E-01 -0.25551626064E-01  0.10329356692E+00  0.88951410160E+00  0.88000000000E+00 0.  1.
        -11    1    4    4    0    0  0.74025257466E-01  0.42173330586E-01 -0.77008777258E-01  0.11484311669E+00  0.51100000000E-03 0.  1.
         11    1    4    4    0    0  0.57979937279E-02  0.26848095110E-02 -0.15485381679E-01  0.16759567420E-01  0.51100000000E-03 0. -1.
</event>
<event>
 8    1  0.1161093E+005  0.1043930E+01  0.7957747E-01            NaN
         13   -1    0    0    0    0  0.00000000000E+00  0.00000000000E+00  0.74505805969E-08  0.10566000000E+00  0.10566000000E+00 0.  1.
     999900   -1    0    0    0    0 -0.00000000000E+00 -0.00000000000E+00 -0.74505805969E-08  0.93827000000E+00  0.93827000000E+00 0.  1.
     999902    2    1    2    0    0  0.13582783270E-01 -0.12534861516E-01 -0.15055476067E-01  0.10200913315E+01  0.10198127488E+01 0.  0.
     999903    2    3    3    0    0  0.51949998138E-01  0.98499914669E-01  0.61945687971E-01  0.12895164329E+00  0.19754051562E-01 0.  0.
         14    1    1    2    0    0 -0.13582783270E-01  0.12534861516E-01  0.15055476067E-01  0.23838668465E-01  0.00000000000E+00 0.  1.
     999901    1    3    3    0    0 -0.38367214869E-01 -0.11103477618E+00 -0.77001164038E-01  0.89113968824E+00  0.88000000000E+00 0.  1.
        -11    1    4    4    0    0  0.20668839983E-01  0.57826741223E-01  0.38942022989E-01  0.72717777896E-01  0.51100000000E-03 0.  1.
         11    1    4    4    0    0  0.31281158156E-01  0.40673173446E-01  0.23003664982E-01  0.56233865395E-01  0.51100000000E-03 0. -1.
</event>
<event>
 8    1  0.1161093E+005  0.1043930E+01  0.7957747E-01            NaN
         13   -1    0    0    0    0  0.00000000000E+00  0.00000000000E+00  0.74505805969E-08  0.10566000000E+00  0.10566000000E+00 0.  1.
     999900   -1    0    0    0    0 -0.00000000000E+00 -0.00000000000E+00 -0.74505805969E-08  0.93827000000E+00  0.93827000000E+00 0.  1.
     999902    2    1    2    0    0 -0.14789007187E-01  0.17161712558E-01 -0.76837356433E-02  0.10200076484E+01  0.10197270831E+01 0.  0.
     999903    2    3    3    0    0  0.10467519403E+00 -0.68138961506E-01 -0.17521251569E-01  0.12779428992E+00  0.20605144014E-01 0.  0.
         14    1    1    2    0    0  0.14789007187E-01 -0.17161712558E-01  0.76837356433E-02  0.23922351577E-01  0.00000000000E+00 0. -1.
     999901    1    3    3    0    0 -0.11946420122E+00  0.85300674065E-01  0.98375159253E-02  0.89221335850E+00  0.88000000000E+00 0. -1.
        -11    1    4    4    0    0  0.19938077146E-01 -0.12742814833E-01 -0.11663729001E-01  0.26385790595E-01  0.51100000000E-03 0.  1.
         11    1    4    4    0    0  0.84737116884E-01 -0.55396146674E-01 -0.58575225677E-02  0.10140849933E+00  0.51100000000E-03 0. -1.
</event>
<event>
 8    1  0.1161093E+005  0.1043930E+01  0.7957747E-01            NaN
         13   -1    0    0    0    0  0.00000000000E+00  0.00000000000E+00  0.74505805969E-08  0.10566000000E+00  0.10566000000E+00 0.  1.
     999900   -1    0    0    0    0 -0.00000000000E+00 -0.00000000000E+00 -0.74505805969E-08  0.93827000000E+00  0.93827000000E+00 0. -1.
     999902    2    1    2    0    0  0.32469253737E-02 -0.23020834307E-01  0.42355268787E-02  0.10202986432E+01  0.10200249410E+01 0.  0.
     999903    2    3    3    0    0 -0.10643833841E+00  0.63873639519E-01  0.28356249793E-01  0.12891583208E+00  0.20155722528E-01 0.  0.
         14    1    1    2    0    0 -0.32469253737E-02  0.23020834307E-01 -0.42355268787E-02  0.23631356807E-01  0.00000000000E+00 0.  1.
     999901    1    3    3    0    0  0.10968526378E+00 -0.86894473826E-01 -0.24120722915E-01  0.89138281111E+00  0.88000000000E+00 0.  1.
        -11    1    4    4    0    0 -0.18427749477E-01  0.70338905108E-02  0.11383196775E-01  0.22779285685E-01  0.51100000000E-03 0. -1.
         11    1    4    4    0    0 -0.88010588930E-01  0.56839749008E-01  0.16973053018E-01  0.10613654640E+00  0.51100000000E-03 0.  1.
</event>
<event>
 7    1  0.1161093E+005  0.1043930E+01  0.7957747E-01            NaN
         13   -1    0    0    0    0  0.00000000000E+00  0.00000000000E+00  0.74505805969E-08  0.10566000000E+00  0.10566000000E+00 0.  1.
     999900   -1    0    0    0    0 -0.00000000000E+00 -0.00000000000E+00 -0.74505805969E-08  0.93827000000E+00  0.93827000000E+00 0.  1.
     999903    2    1    2    0    0  0.60635346096E-01 -0.67808506836E-01 -0.65365652194E-01  0.11392061618E+00  0.20750891747E-01 0.  0.
         14    1    1    2    0    0  0.18058080773E-01  0.28368836594E-01 -0.23705252649E-01  0.41143944561E-01  0.00000000000E+00 0. -1.
     999901    1    1    2    0    0 -0.78693426869E-01  0.39439670243E-01  0.89070904843E-01  0.88886543926E+00  0.88000000000E+00 0. -1.
        -11    1    3    3    0    0  0.18698331020E-01 -0.36279872934E-01 -0.29596508442E-01  0.50418956713E-01  0.51100000000E-03 0.  1.
         11    1    3    3    0    0  0.41937015076E-01 -0.31528633902E-01 -0.35769143752E-01  0.63501659466E-01  0.51100000000E-03 0. -1.
</event>
<event>
 8    1  0.1161093E+005  0.1043930E+01  0.7957747E-01            NaN
         13   -1    0    0    0    0  0.00000000000E+00  0.00000000000E+00  0.74505805969E-08  0.10566000000E+00  0.10566000000E+00 0.  1.
     999900   -1    0    0    0    0 -0.00000000000E+00 -0.00000000000E+00 -0.74505805969E-08  0.93827000000E+00  0.93827000000E+00 0.  1.
     999902    2    1    2    0    0 -0.65557790708E-02  0.16606553125E-01  0.18712220733E-01  0.10180668399E+01  0.10177382706E+01 0.  0.
     999903    2    3    3    0    0  0.21804520647E-01 -0.99573607361E-01 -0.70338197404E-01  0.12552434048E+00  0.20458681171E-01 0.  0.
         14    1    1    2    0    0  0.65557790708E-02 -0.16606553125E-01 -0.18712220733E-01  0.25863160106E-01  0.00000000000E+00 0. -1.
     999901    1    3    3    0    0 -0.28360299717E-01  0.11618016049E+00  0.89050418137E-01  0.89254249941E+00  0.88000000000E+00 0. -1.
        -11    1    4    4    0    0  0.47403009620E-02 -0.63441441595E-01 -0.37899772044E-01  0.74053634663E-01  0.51100000000E-03 0.  1.
         11    1    4    4    0    0  0.17064219685E-01 -0.36132165766E-01 -0.32438425360E-01  0.51470705816E-01  0.51100000000E-03 0. -1.
</event>
<event>
 8    1  0.1161093E+005  0.1043930E+01  0.7957747E-01            NaN
         13   -1    0    0    0    0  0.00000000000E+00  0.00000000000E+00  0.74505805969E-08  0.10566000000E+00  0.10566000000E+00 0. -1.
     999900   -1    0    0    0    0 -0.00000000000E+00 -0.00000000000E+00 -0.74505805969E-08  0.93827000000E+00  0.93827000000E+00 0. -1.
     999902    2    1    2    0    0  0.14657403577E-01 -0.74282694870E-02 -0.17589994555E-01  0.10198587189E+01  0.10195746073E+01 0.  0.
     999903    2    3    3    0    0 -0.33010958553E-01 -0.10327448616E+00  0.67449413921E-01  0.12930244832E+00  0.20355756613E-01 0.  0.
         14    1    1    2    0    0 -0.14657403577E-01  0.74282694870E-02  0.17589994555E-01  0.24071281138E-01  0.00000000000E+00 0. -1.
     999901    1    3    3    0    0  0.47668362130E-01  0.95846216678E-01 -0.85039408475E-01  0.89055627054E+00  0.88000000000E+00 0. -1.
        -11    1    4    4    0    0 -0.31202564499E-01 -0.74433534845E-01  0.43025862418E-01  0.91462763454E-01  0.51100000000E-03 0.  1.
         11    1    4    4    0    0 -0.18083940536E-02 -0.28840951320E-01  0.24423551503E-01  0.37839684871E-01  0.51100000000E-03 0. -1.
</event>
<event>
 8    1  0.1161093E+005  0.1043930E+01  0.7957747E-01            NaN
         13   -1    0    0    0    0  0.00000000000E+00  0.00000000000E+00  0.74505805969E-08  0.10566000000E+00  0.10566000000E+00 0. -1.
     999900   -1    0    0    0    0 -0.00000000000E+00 -0.00000000000E+00 -0.74505805969E-08  0.93827000000E+00  0.93827000000E+00 0. -1.
     999902    2    1    2    0    0  0.14501471715E-01  0.14736305575E-01 -0.51625374009E-02  0.10226203032E+01  0.10223982499E+01 0.  0.
     999903    2    3    3    0    0 -0.68852439670E-01 -0.49287795930E-01  0.96881623991E-01  0.13051046079E+00  0.21840009872E-01 0.  0.
         14    1    1    2    0    0 -0.14501471715E-01 -0.14736305575E-01  0.51625374009E-02  0.21309696767E-01  0.00000000000E+00 0.  1.
     999901    1    3    3    0    0  0.83353911385E-01  0.64024101505E-01 -0.10204416139E+00  0.89210984245E+00  0.88000000000E+00 0.  1.
        -11    1    4    4    0    0 -0.56972010614E-01 -0.48243769106E-01  0.89182305478E-01  0.11630570056E+00  0.51100000000E-03 0.  1.
         11    1    4    4    0    0 -0.11880429056E-01 -0.10440268244E-02  0.76993185130E-02  0.14204760228E-01  0.51100000000E-03 0. -1.
</event>
<event>
 8    1  0.1161093E+005  0.1043930E+01  0.7957747E-01            NaN
         13   -1    0    0    0    0  0.00000000000E+00  0.00000000000E+00  0.74505805969E-08  0.10566000000E+00  0.10566000000E+00 0.  1.
     999900   -1    0    0    0    0 -0.00000000000E+00 -0.00000000000E+00 -0.74505805969E-08  0.93827000000E+00  0.93827000000E+00 0. -1.
     999902    2    1    2    0    0 -0.11887375340E-01 -0.17453701152E-01 -0.11240081736E-01  0.10200076085E+01  0.10197270422E+01 0.  0.
     999903    2    3    3    0    0 -0.74896245063E-01 -0.17306515159E-01 -0.10614770710E+00  0.13266461020E+00  0.20581547225E-01 0.  0.
         14    1    1    2    0    0  0.11887375340E-01  0.17453701152E-01  0.11240081736E-01  0.23922391474E-01  0.00000000000E+00 0. -1.
     999901    1    3    3    0    0  0.63008869723E-01 -0.14718599260E-03  0.94907625360E-01  0.88734299833E+00  0.88000000000E+00 0.  1.
        -11    1    4    4    0    0 -0.56171871229E-01 -0.11846020165E-01 -0.62561030124E-01  0.84910252162E-01  0.51100000000E-03 0. -1.
         11    1    4    4    0    0 -0.18724373834E-01 -0.54604949943E-02 -0.43586676973E-01  0.47754358038E-01  0.51100000000E-03 0.  1.
</event>
<event>
 8    1  0.1161093E+005  0.1043930E+01  0.7957747E-01            NaN
         13   -1    0    0    0    0  0.00000000000E+00  0.00000000000E+00  0.74505805969E-08  0.10566000000E+00  0.10566000000E+00 0. -1.
     999900   -1    0    0    0    0 -0.00000000000E+00 -0.00000000000E+00 -0.74505805969E-08  0.93827000000E+00  0.93827000000E+00 0. -1.
     999902    2    1    2    0    0  0.96213167869E-02  0.19130907931E-01  0.12118433828E-01  0.10193247604E+01  0.10190277471E+01 0.  0.
     999903    2    3    3    0    0 -0.92189690505E-01  0.99897132881E-02 -0.86101577449E-01  0.12797958979E+00  0.19145766006E-01 0.  0.
         14    1    1    2    0    0 -0.96213167869E-02 -0.19130907931E-01 -0.12118433828E-01  0.24605239552E-01  0.00000000000E+00 0. -1.
     999901    1    3    3    0    0  0.10181100729E+00  0.91411946424E-02  0.98220011276E-01  0.89134517066E+00  0.88000000000E+00 0. -1.
        -11    1    4    4    0    0 -0.40005522122E-01 -0.16257231669E-03 -0.48440780190E-01  0.62827052584E-01  0.51100000000E-03 0. -1.
         11    1    4    4    0    0 -0.52184168383E-01  0.10152285605E-01 -0.37660797259E-01  0.65152537203E-01  0.51100000000E-03 0.  1.
</event>
<event>
 8    1  0.1161093E+005  0.1043930E+01  0.7957747E-01            NaN
         13   -1    0    0    0    0  0.00000000000E+00  0.00000000000E+00  0.74505805969E-08  0.10566000000E+00  0.10566000000E+00 0. -1.
     999900   -1    0    0    0    0 -0.00000000000E+00 -0.00000000000E+00 -0.74505805969E-08  0.93827000000E+00  0.93827000000E+00 0. -1.
     999902    2    1    2    0    0  0.19986438722E-01  0.91846447007E-02 -0.83160554705E-02  0.10204146389E+01  0.10201436482E+01 0.  0.
     999903    2    3    3    0    0 -0.59179628893E-01  0.11268372474E+00  0.19505705596E-01  0.13038465272E+00  0.20489871098E-01 0.  0.
         14    1    1    2    0    0 -0.19986438722E-01 -0.91846447007E-02  0.83160554705E-02  0.23515361142E-01  0.00000000000E+00 0.  1.
     999901    1    3    3    0    0  0.79166067615E-01 -0.10349908004E+00 -0.27821761067E-01  0.89002998613E+00  0.88000000000E+00 0. -1.
        -11    1    4    4    0    0 -0.46744398317E-01  0.68004946078E-01  0.11533432897E-01  0.83324622175E-01  0.51100000000E-03 0. -1.
         11    1    4    4    0    0 -0.12435230575E-01  0.44678778662E-01  0.79722726994E-02  0.47060030548E-01  0.51100000000E-03 0.  1.
</event>
<event>
 8    1  0.1161093E+005  0.1043930E+01  0.7957747E-01            NaN
         13   -1    0    0    0    0  0.00000000000E+00  0.00000000000E+00  0.74505805969E-08  0.10566000000E+00  0.10566000000E+00 0. -1.
     999900   -1    0    0    0    0 -0.00000000000E+00 -0.00000000000E+00 -0.74505805969E-08  0.93827000000E+00  0.93827000000E+00 0.  1.
     999902    2    1    2    0    0 -0.17634977981E-01 -0.78337953665E-02 -0.13592874415E-01  0.10203264614E+01  0.10200534108E+01 0.  0.
     999903    2    3    3    0    0  0.93619970350E-01 -0.15274866458E-01  0.83465319485E-01  0.12799618285E+00  0.20458320400E-01 0.  0.
         14    1    1    2    0    0  0.17634977981E-01  0.78337953665E-02  0.13592874415E-01  0.23603538572E-01  0.00000000000E+00 0. -1.
     999901    1    3    3    0    0 -0.11125494833E+00  0.74410710911E-02 -0.97058193900E-01  0.89233027858E+00  0.88000000000E+00 0.  1.
        -11    1    4    4    0    0  0.47444230364E-01 -0.10104127868E-01  0.29476288953E-01  0.56764083065E-01  0.51100000000E-03 0. -1.
         11    1    4    4    0    0  0.46175739985E-01 -0.51707385895E-02  0.53989030532E-01  0.71232099783E-01  0.51100000000E-03 0.  1.
</event>
<event>
 8    1  0.1161093E+005  0.1043930E+01  0.7957747E-01            NaN
         13   -1    0    0    0    0  0.00000000000E+00  0.00000000000E+00  0.74505805969E-08  0.10566000000E+00  0.10566000000E+00 0. -1.
     999900   -1    0    0    0    0 -0.00000000000E+00 -0.00000000000E+00 -0.74505805969E-08  0.93827000000E+00  0.93827000000E+00 0.  1.
     999902    2    1    2    0    0  0.15113942777E-01  0.17303840107E-01  0.68069203616E-02  0.10199677732E+01  0.10196862606E+01 0.  0.
     999903    2    3    3    0    0 -0.65861404613E-01  0.10223387968E+00  0.45461288348E-01  0.13133720953E+00  0.19830357980E-01 0.  0.
         14    1    1    2    0    0 -0.15113942777E-01 -0.17303840107E-01 -0.68069203616E-02  0.23962226806E-01  0.00000000000E+00 0.  1.
     999901    1    3    3    0    0  0.80975347389E-01 -0.84930039574E-01 -0.38654367987E-01  0.88863056366E+00  0.88000000000E+00 0. -1.
        -11    1    4    4    0    0 -0.60857313984E-01  0.80622461373E-01  0.38058158535E-01  0.10794572013E+00  0.51100000000E-03 0.  1.
         11    1    4    4    0    0 -0.50040906288E-02  0.21611418307E-01  0.74031298131E-02  0.23391489399E-01  0.51100000000E-03 0. -1.
</event>
<event>
 8    1  0.1161093E+005  0.1043930E+01  0.7957747E-01            NaN
         13   -1    0    0    0    0  0.00000000000E+00  0.00000000000E+00  0.74505805969E-08  0.10566000000E+00  0.10566000000E+00 0.  1.
     999900   -1    0    0    0    0 -0.00000000000E+00 -0.00000000000E+00 -0.74505805969E-08  0.93827000000E+00  0.93827000000E+00 0.  1.
     999902    2    1    2    0    0  0.17581382459E-02  0.98083673265E-02  0.23559966275E-01  0.10183493993E+01  0.10180280605E+01 0.  0.
     999903    2    3    3    0    0  0.70226921828E-01 -0.10480039701E+00 -0.33852268341E-02  0.12787245599E+00  0.20614593795E-01 0.  0.
         14    1    1    2    0    0 -0.17581382459E-02 -0.98083673265E-02 -0.23559966275E-01  0.25580600669E-01  0.00000000000E+00 0. -1.
     999901    1    3    3    0    0 -0.68468783582E-01  0.11460876434E+00  0.26945193109E-01  0.89047694334E+00  0.88000000000E+00 0. -1.
        -11    1    4    4    0    0 -0.12541646665E-02 -0.29092316103E-02  0.90186729133E-03  0.33333231443E-02  0.51100000000E-03 0. -1.
         11    1    4    4    0    0  0.71481086494E-01 -0.10189116540E+00 -0.42870941254E-02  0.12453913285E+00  0.51100000000E-03 0.  1.
</event>
<event>
 8    1  0.1161093E+005  0.1043930E+01  0.7957747E-01            NaN
         13   -1    0    0    0    0  0.00000000000E+00  0.00000000000E+00  0.74505805969E-08  0.10566000000E+00  0.10566000000E+00 0.  1.
     999900   -1    0    0    0    0 -0.00000000000E+00 -0.00000000000E+00 -0.74505805969E-08  0.93827000000E+00  0.93827000000E+00 0. -1.
     999902    2    1    2    0    0 -0.17912158503E-02  0.88559939908E-02 -0.21852256047E-01  0.10202834743E+01  0.10200094165E+01 0.  0.
     999903    2    3    3    0    0 -0.94168360777E-01 -0.84912250056E-01 -0.23713026247E-01  0.13049165428E+00  0.19697559271E-01 0.  0.
         14    1    1    2    0    0  0.17912158503E-02 -0.88559939908E-02  0.21852256047E-01  0.23646525710E-01  0.00000000000E+00 0. -1.
     999901    1    3    3    0    0  0.92377144926E-01  0.93768244047E-01  0.18607702002E-02  0.88979182001E+00  0.88000000000E+00 0. -1.
        -11    1    4    4    0    0 -0.48700437271E-01 -0.51961110967E-01 -0.53827164862E-02  0.71420756094E-01  0.51100000000E-03 0.  1.
         11    1    4    4    0    0 -0.45467923506E-01 -0.32951139089E-01 -0.18330309761E-01  0.59070898183E-01  0.51100000000E-03 0. -1.
</event>
<event>
 8    1  0.1161093E+005  0.1043930E+01  0.7957747E-01            NaN
         13   -1    0    0    0    0  0.00000000000E+00  0.00000000000E+00  0.74505805969E-08  0.10566000000E+00  0.10566000000E+00 0.  1.
     999900   -1    0    0    0    0 -0.00000000000E+00 -0.00000000000E+00 -0.74505805969E-08  0.93827000000E+00  0.93827000000E+00 0. -1.
     999902    2    1    2    0    0  0.41966014936E-02 -0.42644782433E-03 -0.20740696340E-01  0.10227647028E+01  0.10225456799E+01 0.  0.
     999903    2    3    3    0    0 -0.76710353136E-01 -0.42312949168E-02 -0.10878514411E+00  0.13466997982E+00  0.19985338368E-01 0.  0.
         14    1    1    2    0    0 -0.41966014936E-02  0.42644782433E-03  0.20740696340E-01  0.21165297222E-01  0.00000000000E+00 0.  1.
     999901    1    3    3    0    0  0.80906954629E-01  0.38048470924E-02  0.88044447771E-01  0.88809472296E+00  0.88000000000E+00 0.  1.
        -11    1    4    4    0    0 -0.66459088659E-01  0.28188796211E-03 -0.81452165142E-01  0.10512662010E+00  0.51100000000E-03 0. -1.
         11    1    4    4    0    0 -0.10251264477E-01 -0.45131828789E-02 -0.27332978968E-01  0.29543359717E-01  0.51100000000E-03 0.  1.
</event>
<event>
 8    1  0.1161093E+005  0.1043930E+01  0.7957747E-01            NaN
         13   -1    0    0    0    0  0.00000000000E+00  0.00000000000E+00  0.74505805969E-08  0.10566000000E+00  0.10566000000E+00 0.  1.
     999900   -1    0    0    0    0 -0.00000000000E+00 -0.00000000000E+00 -0.74505805969E-08  0.93827000000E+00  0.93827000000E+00 0. -1.
     999902    2    1    2    0    0  0.17246953388E-01  0.11749896939E-01  0.10878709619E-01  0.10203956888E+01  0.10201242561E+01 0.  0.
     999903    2    3    3    0    0 -0.91032653799E-02  0.12604060422E+00  0.33736874313E-01  0.13231956851E+00  0.20029682214E-01 0.  0.
         14    1    1    2    0    0 -0.17246953388E-01 -0.11749896939E-01 -0.10878709619E-01  0.23534311169E-01  0.00000000000E+00 0. -1.
     999901    1    3    3    0    0  0.26350218768E-01 -0.11429070728E+00 -0.22858164694E-01  0.88807612033E+00  0.88000000000E+00 0. -1.
        -11    1    4    4    0    0  0.55527990180E-02  0.51285814445E-01  0.10200425842E-01  0.52586862890E-01  0.51100000000E-03 0.  1.
         11    1    4    4    0    0 -0.14656064398E-01  0.74754789770E-01  0.23536448471E-01  0.79732705616E-01  0.51100000000E-03 0. -1.
</event>
<event>
 8    1  0.1161093E+005  0.1043930E+01  0.7957747E-01            NaN
         13   -1    0    0    0    0  0.00000000000E+00  0.00000000000E+00  0.74505805969E-08  0.10566000000E+00  0.10566000000E+00 0. -1.
     999900   -1    0    0    0    0 -0.00000000000E+00 -0.00000000000E+00 -0.74505805969E-08  0.93827000000E+00  0.93827000000E+00 0.  1.
     999902    2    1    2    0    0 -0.29014860580E-01  0.40296014284E-02  0.75975349112E-02  0.10136674430E+01  0.10132156052E+01 0.  0.
     999903    2    3    3    0    0 -0.97987141393E-02  0.18349410345E-01 -0.12109880051E+00  0.12398375537E+00  0.16563105126E-01 0.  0.
         14    1    1    2    0    0  0.29014860580E-01 -0.40296014284E-02 -0.75975349112E-02  0.30262557045E-01  0.00000000000E+00 0. -1.
     999901    1    3    3    0    0 -0.19216146441E-01 -0.14319808917E-01  0.12869633542E+00  0.88968368759E+00  0.88000000000E+00 0. -1.
        -11    1    4    4    0    0 -0.33775642525E-02  0.18672289001E-01 -0.71879963714E-01  0.74344149880E-01  0.51100000000E-03 0.  1.
         11    1    4    4    0    0 -0.64211498869E-02 -0.32287865529E-03 -0.49218836794E-01  0.49639605486E-01  0.51100000000E-03 0. -1.
</event>
<event>
 8    1  0.1161093E+005  0.1043930E+01  0.7957747E-01            NaN
         13   -1    0    0    0    0  0.00000000000E+00  0.00000000000E+00  0.74505805969E-08  0.10566000000E+00  0.10566000000E+00 0. -1.
     999900   -1    0    0    0    0 -0.00000000000E+00 -0.00000000000E+00 -0.74505805969E-08  0.93827000000E+00  0.93827000000E+00 0. -1.
     999902    2    1    2    0    0 -0.70568665743E-02 -0.19181731299E-01 -0.12057368229E-01  0.10201998860E+01  0.10199238644E+01 0.  0.
     999903    2    3    3    0    0 -0.15531768820E-01 -0.10732736448E+00  0.72127184801E-01  0.13175826407E+00  0.19937661763E-01 0.  0.
         14    1    1    2    0    0  0.70568665743E-02  0.19181731299E-01  0.12057368229E-01  0.23730113992E-01  0.00000000000E+00 0. -1.
     999901    1    3    3    0    0  0.84749022458E-02  0.88145633177E-01 -0.84184553030E-01  0.88844162193E+00  0.88000000000E+00 0. -1.
        -11    1    4    4    0    0  0.22591397211E-02 -0.38076284681E-01  0.31835446360E-01  0.49685651182E-01  0.51100000000E-03 0. -1.
         11    1    4    4    0    0 -0.17790908541E-01 -0.69251079794E-01  0.40291738441E-01  0.82072612892E-01  0.51100000000E-03 0.  1.
</event>
<event>
 8    1  0.1161093E+005  0.1043930E+01  0.7957747E-01            NaN
         13   -1    0    0    0    0  0.00000000000E+00  0.00000000000E+00  0.74505805969E-08  0.10566000000E+00  0.10566000000E+00 0. -1.
     999900   -1    0    0    0    0 -0.00000000000E+00 -0.00000000000E+00 -0.74505805969E-08  0.93827000000E+00  0.93827000000E+00 0. -1.
     999902    2    1    2    0    0 -0.42904328345E-02  0.47082489262E-03  0.23830321298E-01  0.10197119550E+01  0.10194243265E+01 0.  0.
     999903    2    3    3    0    0  0.93767909829E-02 -0.77485207805E-01  0.10562618057E+00  0.13238197206E+00  0.16619713219E-01 0.  0.
         14    1    1    2    0    0  0.42904328345E-02 -0.47082489262E-03 -0.23830321298E-01  0.24218044991E-01  0.00000000000E+00 0.  1.
     999901    1    3    3    0    0 -0.13667223817E-01  0.77956032698E-01 -0.81795859273E-01  0.88732998295E+00  0.88000000000E+00 0.  1.
        -11    1    4    4    0    0  0.80900235289E-02 -0.54507339327E-01  0.85951713217E-01  0.10210022844E+00  0.51100000000E-03 0. -1.
         11    1    4    4    0    0  0.12867674539E-02 -0.22977868479E-01  0.19674467355E-01  0.30281743626E-01  0.51100000000E-03 0.  1.
</event>
<event>
 8    1  0.1161093E+005  0.1043930E+01  0.7957747E-01            NaN
         13   -1    0    0    0    0  0.00000000000E+00  0.00000000000E+00  0.74505805969E-08  0.10566000000E+00  0.10566000000E+00 0. -1.
     999900   -1    0    0    0    0 -0.00000000000E+00 -0.00000000000E+00 -0.74505805969E-08  0.93827000000E+00  0.93827000000E+00 0. -1.
     999902    2    1    2    0    0  0.18702180355E-01  0.18079254324E-01  0.78595131033E-02  0.10167564295E+01  0.10163932477E+01 0.  0.
     999903    2    3    3    0    0  0.11688921496E+00  0.39322748177E-01  0.37287375844E-01  0.13055217602E+00  0.21074989179E-01 0.  0.
         14    1    1    2    0    0 -0.18702180355E-01 -0.18079254324E-01 -0.78595131033E-02  0.27173570490E-01  0.00000000000E+00 0.  1.
     999901    1    3    3    0    0 -0.98187034604E-01 -0.21243493853E-01 -0.29427862741E-01  0.88620425349E+00  0.88000000000E+00 0. -1.
        -11    1    4    4    0    0  0.64559451049E-01  0.22519858748E-01  0.31504342502E-01  0.75285134490E-01  0.51100000000E-03 0.  1.
         11    1    4    4    0    0  0.52329763910E-01  0.16802889429E-01  0.57830333424E-02  0.55267041532E-01  0.51100000000E-03 0. -1.
</event>
<event>
 8    1  0.1161093E+005  0.1043930E+01  0.7957747E-01            NaN
         13   -1    0    0    0    0  0.00000000000E+00  0.00000000000E+00  0.74505805969E-08  0.10566000000E+00  0.10566000000E+00 0. -1.
     999900   -1    0    0    0    0 -0.00000000000E+00 -0.00000000000E+00 -0.74505805969E-08  0.93827000000E+00  0.93827000000E+00 0.  1.
     999902    2    1    2    0    0  0.17330268300E-01 -0.12659323715E-02 -0.15148917381E-01  0.10208772240E+01  0.10206169095E+01 0.  0.
     999903    2    3    3    0    0  0.24520329544E-02 -0.12864349186E+00  0.14934372677E-01  0.13107308324E+00  0.20048870244E-01 0.  0.
         14    1    1    2    0    0 -0.17330268300E-01  0.12659323715E-02  0.15148917381E-01  0.23052776013E-01  0.00000000000E+00 0.  1.
     999901    1    3    3    0    0  0.14878235345E-01  0.12737755949E+00 -0.30083290058E-01  0.88980414075E+00  0.88000000000E+00 0. -1.
        -11    1    4    4    0    0 -0.45203809768E-02 -0.73107474098E-01  0.16470059295E-01  0.75077697004E-01  0.51100000000E-03 0.  1.
         11    1    4    4    0    0  0.69724139312E-02 -0.55536017767E-01 -0.15356866177E-02  0.55995386237E-01  0.51100000000E-03 0. -1.
</event>
<event>
 8    1  0.1161093E+005  0.1043930E+01  0.7957747E-01            NaN
         13   -1    0    0    0    0  0.00000000000E+00  0.00000000000E+00  0.74505805969E-08  0.10566000000E+00  0.10566000000E+00 0.  1.
     999900   -1    0    0    0    0 -0.00000000000E+00 -0.00000000000E+00 -0.74505805969E-08  0.93827000000E+00  0.93827000000E+00 0. -1.
     999902    2    1    2    0    0 -0.13597569611E-01 -0.14619401324E-01 -0.12164919333E-01  0.10205503923E+01  0.10202825575E+01 0.  0.
     999903    2    3    3    0    0  0.83067909015E-01 -0.29455467285E-01  0.92609478351E-01  0.12895519377E+00  0.16882667398E-01 0.  0.
         14    1    1    2    0    0  0.13597569611E-01  0.14619401324E-01  0.12164919333E-01  0.23379607712E-01  0.00000000000E+00 0.  1.
     999901    1    3    3    0    0 -0.96665478626E-01  0.14836065961E-01 -0.10477439768E+00  0.89159519852E+00  0.88000000000E+00 0. -1.
        -11    1    4    4    0    0  0.74534229595E-01 -0.21957255800E-01  0.85551109222E-01  0.11557130212E+00  0.51100000000E-03 0. -1.
         11    1    4    4    0    0  0.85336794205E-02 -0.74982114850E-02  0.70583691297E-02  0.13383891650E-01  0.51100000000E-03 0.  1.
</event>
<event>
 8    1  0.1161093E+005  0.1043930E+01  0.7957747E-01            NaN
         13   -1    0    0    0    0  0.00000000000E+00  0.00000000000E+00  0.74505805969E-08  0.10566000000E+00  0.10566000000E+00 0.  1.
     999900   -1    0    0    0    0 -0.00000000000E+00 -0.00000000000E+00 -0.74505805969E-08  0.93827000000E+00  0.93827000000E+00 0. -1.
     999902    2    1    2    0    0  0.12322163293E-01 -0.14277945102E-01 -0.15635319709E-01  0.10194318644E+01  0.10191374625E+01 0.  0.
     999903    2    3    3    0    0  0.97216885497E-01  0.19994350170E-01 -0.84459444464E-01  0.13200949360E+00  0.21028832039E-01 0.  0.
         14    1    1    2    0    0 -0.12322163293E-01  0.14277945102E-01  0.15635319709E-01  0.24498135581E-01  0.00000000000E+00 0. -1.
     999901    1    3    3    0    0 -0.84894722204E-01 -0.34272295272E-01  0.68824124755E-01  0.88742237082E+00  0.88000000000E+00 0.  1.
        -11    1    4    4    0    0  0.18319228559E-01 -0.32121231738E-02 -0.10281742254E-01  0.21257638982E-01  0.51100000000E-03 0. -1.
         11    1    4    4    0    0  0.78897656938E-01  0.23206473344E-01 -0.74177702209E-01  0.11075185462E+00  0.51100000000E-03 0.  1.
</event>
<event>
 8    1  0.1161093E+005  0.1043930E+01  0.7957747E-01            NaN
         13   -1    0    0    0    0  0.00000000000E+00  0.00000000000E+00  0.74505805969E-08  0.10566000000E+00  0.10566000000E+00 0. -1.
     999900   -1    0    0    0    0 -0.00000000000E+00 -0.00000000000E+00 -0.74505805969E-08  0.93827000000E+00  0.93827000000E+00 0.  1.
     999902    2    1    2    0    0 -0.16277599000E-01  0.14271014435E-02  0.15574682403E-01  0.10213563964E+01  0.10211069096E+01 0.  0.
     999903    2    3    3    0    0 -0.12826839391E+00  0.31172913706E-01  0.23808193060E-02  0.13366228832E+00  0.20866422645E-01 0.  0.
         14    1    1    2    0    0  0.16277599000E-01 -0.14271014435E-02 -0.15574682403E-01  0.22573603605E-01  0.00000000000E+00 0.  1.
     999901    1    3    3    0    0  0.11199079491E+00 -0.29745812262E-01  0.13193863097E-01  0.88769410808E+00  0.88000000000E+00 0.  1.
        -11    1    4    4    0    0 -0.23013317888E-01  0.25982614124E-02  0.78502757323E-02  0.24459184628E-01  0.51100000000E-03 0. -1.
         11    1    4    4    0    0 -0.10525507602E+00  0.28574652293E-01 -0.54694564263E-02  0.10920310369E+00  0.51100000000E-03 0.  1.
</event>
<event>
 8    1  0.1161093E+005  0.1043930E+01  0.7957747E-01            NaN
         13   -1    0    0    0    0  0.00000000000E+00  0.00000000000E+00  0.74505805969E-08  0.10566000000E+00  0.10566000000E+00 0.  1.
     999900   -1    0    0    0    0 -0.00000000000E+00 -0.00000000000E+00 -0.74505805969E-08  0.93827000000E+00  0.93827000000E+00 0.  1.
     999902    2    1    2    0    0 -0.15647826633E-01  0.43454879937E-02  0.17324889305E-01  0.10201836417E+01  0.10199072376E+01 0.  0.
     999903    2    3    3    0    0 -0.93042120896E-02 -0.49554597976E-01  0.12074495907E+00  0.13246681096E+00  0.20636964883E-01 0.  0.
         14    1    1    2    0    0  0.15647826633E-01 -0.43454879937E-02 -0.17324889305E-01  0.23746358324E-01  0.00000000000E+00 0. -1.
     999901    1    3    3    0    0 -0.63436145435E-02  0.53900085970E-01 -0.10342006977E+00  0.88771683072E+00  0.88000000000E+00 0.  1.
        -11    1    4    4    0    0 -0.39134953317E-02 -0.36726096629E-01  0.62667016406E-01  0.72742956260E-01  0.51100000000E-03 0.  1.
         11    1    4    4    0    0 -0.53907167579E-02 -0.12828501347E-01  0.58077942669E-01  0.59723854695E-01  0.51100000000E-03 0. -1.
</event>
<event>
 8    1  0.1161093E+005  0.1043930E+01  0.7957747E-01            NaN
         13   -1    0    0    0    0  0.00000000000E+00  0.00000000000E+00  0.74505805969E-08  0.10566000000E+00  0.10566000000E+00 0.  1.
     999900   -1    0    0    0    0 -0.00000000000E+00 -0.00000000000E+00 -0.74505805969E-08  0.93827000000E+00  0.93827000000E+00 0.  1.
     999902    2    1    2    0    0 -0.19647966162E-01  0.11265834173E-01  0.66999503741E-02  0.10203111319E+01  0.10200377223E+01 0.  0.
     999903    2    3    3    0    0 -0.78596076752E-01  0.10317343739E+00  0.23819709643E-01  0.13339796063E+00  0.20137921133E-01 0.  0.
         14    1    1    2    0    0  0.19647966162E-01 -0.11265834173E-01 -0.66999503741E-02  0.23618868070E-01  0.00000000000E+00 0. -1.
     999901    1    3    3    0    0  0.58948110590E-01 -0.91907603221E-01 -0.17119759269E-01  0.88691317130E+00  0.88000000000E+00 0.  1.
        -11    1    4    4    0    0 -0.22973938137E-01  0.46209321630E-01  0.10726717324E-01  0.52710784709E-01  0.51100000000E-03 0.  1.
         11    1    4    4    0    0 -0.55622138615E-01  0.56964115764E-01  0.13092992319E-01  0.80687175919E-01  0.51100000000E-03 0. -1.
</event>
<event>
 8    1  0.1161093E+005  0.1043930E+01  0.7957747E-01            NaN
         13   -1    0    0    0    0  0.00000000000E+00  0.00000000000E+00  0.74505805969E-08  0.10566000000E+00  0.10566000000E+00 0.  1.
     999900   -1    0    0    0    0 -0.00000000000E+00 -0.00000000000E+00 -0.74505805969E-08  0.93827000000E+00  0.93827000000E+00 0.  1.
     999902    2    1    2    0    0  0.51396443522E-02  0.57761252050E-02  0.22559346834E-01  0.10200824908E+01  0.10198036989E+01 0.  0.
     999903    2    3    3    0    0 -0.11586007090E+00  0.36716352947E-01 -0.38450168360E-01  0.12917262456E+00  0.20868753799E-01 0.  0.
         14    1    1    2    0    0 -0.51396443522E-02 -0.57761252050E-02 -0.22559346834E-01  0.23847509221E-01  0.00000000000E+00 0. -1.
     999901    1    3    3    0    0  0.12099971526E+00 -0.30940227742E-01  0.61009515194E-01  0.89090986622E+00  0.88000000000E+00 0. -1.
        -11    1    4    4    0    0 -0.45255849130E-01  0.45267682231E-02 -0.18077189282E-01  0.48945167324E-01  0.51100000000E-03 0. -1.
         11    1    4    4    0    0 -0.70604221773E-01  0.32189584724E-01 -0.20372979078E-01  0.80227457235E-01  0.51100000000E-03 0.  1.
</event>
<event>
 8    1  0.1161093E+005  0.1043930E+01  0.7957747E-01            NaN
         13   -1    0    0    0    0  0.00000000000E+00  0.00000000000E+00  0.74505805969E-08  0.10566000000E+00  0.10566000000E+00 0.  1.
     999900   -1    0    0    0    0 -0.00000000000E+00 -0.00000000000E+00 -0.74505805969E-08  0.93827000000E+00  0.93827000000E+00 0.  1.
     999902    2    1    2    0    0 -0.22451872313E-01 -0.35955540132E-04 -0.93848067189E-02  0.10195956116E+01  0.10193051794E+01 0.  0.
     999903    2    3    3    0    0 -0.71068033329E-01 -0.10706131571E+00 -0.20558652169E-01  0.13170889940E+00  0.20292494142E-01 0.  0.
         14    1    1    2    0    0  0.22451872313E-01  0.35955540132E-04  0.93848067189E-02  0.24334388431E-01  0.00000000000E+00 0. -1.
     999901    1    3    3    0    0  0.48616161015E-01  0.10702536017E+00  0.11173845450E-01  0.88788671217E+00  0.88000000000E+00 0.  1.
        -11    1    4    4    0    0 -0.34649432480E-01 -0.70126979573E-01 -0.12163810134E-01  0.79161833185E-01  0.51100000000E-03 0. -1.
         11    1    4    4    0    0 -0.36418600849E-01 -0.36934336136E-01 -0.83948420346E-02  0.52547066211E-01  0.51100000000E-03 0.  1.
</event>
<event>
 8    1  0.1161093E+005  0.1043930E+01  0.7957747E-01            NaN
         13   -1    0    0    0    0  0.00000000000E+00  0.00000000000E+00  0.74505805969E-08  0.10566000000E+00  0.10566000000E+00 0.  1.
     999900   -1    0    0    0    0 -0.00000000000E+00 -0.00000000000E+00 -0.74505805969E-08  0.93827000000E+00  0.93827000000E+00 0. -1.
     999902    2    1    2    0    0  0.11893072766E-01  0.64061789685E-02 -0.19773483252E-01  0.10199826630E+01  0.10197015043E+01 0.  0.
     999903    2    3    3    0    0 -0.79610452393E-01 -0.32949621441E-01 -0.96737453881E-01  0.13102528107E+00  0.19646567437E-01 0.  0.
         14    1    1    2    0    0 -0.11893072766E-01 -0.64061789685E-02  0.19773483252E-01  0.23947336986E-01  0.00000000000E+00 0.  1.
     999901    1    3    3    0    0  0.91503525159E-01  0.39355800409E-01  0.76963970628E-01  0.88895738195E+00  0.88000000000E+00 0.  1.
        -11    1    4    4    0    0 -0.58898438143E-01 -0.33000190409E-01 -0.70840575031E-01  0.97860547589E-01  0.51100000000E-03 0. -1.
         11    1    4    4    0    0 -0.20712014250E-01  0.50568968023E-04 -0.25896878850E-01  0.33164733478E-01  0.51100000000E-03 0.  1.
</event>
<event>
 8    1  0.1161093E+005  0.1043930E+01  0.7957747E-01            NaN
         13   -1    0    0    0    0  0.00000000000E+00  0.00000000000E+00  0.74505805969E-08  0.10566000000E+00  0.10566000000E+00 0. -1.
     999900   -1    0    0    0    0 -0.00000000000E+00 -0.00000000000E+00 -0.74505805969E-08  0.93827000000E+00  0.93827000000E+00 0.  1.
     999902    2    1    2    0    0  0.10145530355E-01 -0.17098134316E-01 -0.11679308501E-01  0.10208717210E+01  0.10206112808E+01 0.  0.
     999903    2    3    3    0    0  0.10606939379E+00 -0.42468513461E-01 -0.66305917143E-01  0.13361239584E+00  0.20037633087E-01 0.  0.
         14    1    1    2    0    0 -0.10145530355E-01  0.17098134316E-01  0.11679308501E-01  0.23058278998E-01  0.00000000000E+00 0. -1.
     999901    1    3    3    0    0 -0.95923863434E-01  0.25370379145E-01  0.54626608642E-01  0.88725932516E+00  0.88000000000E+00 0. -1.
        -11    1    4    4    0    0  0.53903288271E-01 -0.31420852391E-01 -0.40354398057E-01  0.74307287765E-01  0.51100000000E-03 0.  1.
         11    1    4    4    0    0  0.52166105517E-01 -0.11047661070E-01 -0.25951519086E-01  0.59305108075E-01  0.51100000000E-03 0. -1.
</event>
<event>
 8    1  0.1161093E+005  0.1043930E+01  0.7957747E-01            NaN
         13   -1    0    0    0    0  0.00000000000E+00  0.00000000000E+00  0.74505805969E-08  0.10566000000E+00  0.10566000000E+00 0. -1.
     999900   -1    0    0    0    0 -0.00000000000E+00 -0.00000000000E+00 -0.74505805969E-08  0.93827000000E+00  0.93827000000E+00 0. -1.
     999902    2    1    2    0    0 -0.19435791522E-01 -0.13146893511E-01  0.44877347946E-02  0.10200400321E+01  0.10197602349E+01 0.  0.
     999903    2    3    3    0    0  0.11192623459E-01 -0.80084171466E-01  0.10219083067E+00  0.13157810615E+00  0.18195680943E-01 0.  0.
         14    1    1    2    0    0  0.19435791522E-01  0.13146893511E-01 -0.44877347946E-02  0.23889967866E-01  0.00000000000E+00 0.  1.
     999901    1    3    3    0    0 -0.30628414981E-01  0.66937277955E-01 -0.97703095875E-01  0.88846192599E+00  0.88000000000E+00 0. -1.
        -11    1    4    4    0    0  0.11731316801E-01 -0.32289994672E-01  0.34310286544E-01  0.48556404661E-01  0.51100000000E-03 0. -1.
         11    1    4    4    0    0 -0.53869334197E-03 -0.47794176794E-01  0.67880544126E-01  0.83021701487E-01  0.51100000000E-03 0.  1.
</event>
<event>
 8    1  0.1161093E+005  0.1043930E+01  0.7957747E-01            NaN
         13   -1    0    0    0    0  0.00000000000E+00  0.00000000000E+00  0.74505805969E-08  0.10566000000E+00  0.10566000000E+00 0. -1.
     999900   -1    0    0    0    0 -0.00000000000E+00 -0.00000000000E+00 -0.74505805969E-08  0.93827000000E+00  0.93827000000E+00 0.  1.
     999902    2    1    2    0    0  0.11792449542E-01  0.12089647105E-01  0.17238238536E-01  0.10197974846E+01  0.10195119083E+01 0.  0.
     999903    2    3    3    0    0  0.10925083209E-01  0.12909075333E+00  0.16075619482E-01  0.13205238440E+00  0.19890365630E-01 0.  0.
         14    1    1    2    0    0 -0.11792449542E-01 -0.12089647105E-01 -0.17238238536E-01  0.24132515433E-01  0.00000000000E+00 0.  1.
     999901    1    3    3    0    0  0.86736633300E-03 -0.11700110623E+00  0.11626190535E-02  0.88774510016E+00  0.88000000000E+00 0. -1.
        -11    1    4    4    0    0 -0.26983828980E-02  0.62232664089E-01  0.13673287309E-01  0.63776215446E-01  0.51100000000E-03 0. -1.
         11    1    4    4    0    0  0.13623466107E-01  0.66858089246E-01  0.24023321736E-02  0.68276168956E-01  0.51100000000E-03 0.  1.
</event>
<event>
 8    1  0.1161093E+005  0.1043930E+01  0.7957747E-01            NaN
         13   -1    0    0    0    0  0.00000000000E+00  0.00000000000E+00  0.74505805969E-08  0.10566000000E+00  0.10566000000E+00 0.  1.
     999900   -1    0    0    0    0 -0.00000000000E+00 -0.00000000000E+00 -0.74505805969E-08  0.93827000000E+00  0.93827000000E+00 0.  1.
     999902    2    1    2    0    0  0.13423076527E-01 -0.10661199647E-01 -0.15572756902E-01  0.10207707487E+01  0.10205079963E+01 0.  0.
     999903    2    3    3    0    0  0.27253485781E-01  0.10928752265E+00  0.60239038050E-01  0.12929646170E+00  0.20057871519E-01 0.  0.
         14    1    1    2    0    0 -0.13423076527E-01  0.10661199647E-01  0.15572756902E-01  0.23159251260E-01  0.00000000000E+00 0.  1.
     999901    1    3    3    0    0 -0.13830409254E-01 -0.11994872229E+00 -0.75811794952E-01  0.89147428704E+00  0.88000000000E+00 0.  1.
        -11    1    4    4    0    0 -0.14308737485E-02  0.96731273726E-02  0.85568635709E-03  0.98290443580E-02  0.51100000000E-03 0. -1.
         11    1    4    4    0    0  0.28684359530E-01  0.99614395273E-01  0.59383351693E-01  0.11946741734E+00  0.51100000000E-03 0.  1.
</event>
<event>
 8    1  0.1161093E+005  0.1043930E+01  0.7957747E-01            NaN
         13   -1    0    0    0    0  0.00000000000E+00  0.00000000000E+00  0.74505805969E-08  0.10566000000E+00  0.10566000000E+00 0.  1.
     999900   -1    0    0    0    0 -0.00000000000E+00 -0.00000000000E+00 -0.74505805969E-08  0.93827000000E+00  0.93827000000E+00 0.  1.
     999902    2    1    2    0    0 -0.11546188643E-01  0.16127076427E-02 -0.19795110662E-01  0.10209569352E+01  0.10206984383E+01 0.  0.
     999903    2    3    3    0    0  0.20217928031E-01  0.30196867982E-01  0.12184711691E+00  0.12860692882E+00  0.19297844254E-01 0.  0.
         14    1    1    2    0    0  0.11546188643E-01 -0.16127076427E-02  0.19795110662E-01  0.22973064755E-01  0.00000000000E+00 0.  1.
     999901    1    3    3    0    0 -0.31764116673E-01 -0.28584160339E-01 -0.14164222757E+00  0.89235000642E+00  0.88000000000E+00 0.  1.
        -11    1    4    4    0    0  0.10210281990E-01  0.83855470313E-02  0.20043483356E-01  0.24011863805E-01  0.51100000000E-03 0.  1.
         11    1    4    4    0    0  0.10007646040E-01  0.21811320951E-01  0.10180363355E+00  0.10459506502E+00  0.51100000000E-03 0. -1.
</event>
<event>
 8    1  0.1161093E+005  0.1043930E+01  0.7957747E-01            NaN
         13   -1    0    0    0    0  0.00000000000E+00  0.00000000000E+00  0.74505805969E-08  0.10566000000E+00  0.10566000000E+00 0. -1.
     999900   -1    0    0    0    0 -0.00000000000E+00 -0.00000000000E+00 -0.74505805969E-08  0.93827000000E+00  0.93827000000E+00 0. -1.
     999902    2    1    2    0    0  0.10047736416E-01 -0.18102859486E-01  0.12239733789E-01  0.10198783553E+01  0.10195947126E+01 0.  0.
     999903    2    3    3    0    0  0.65401624407E-01  0.10883452743E+00  0.13537110192E-01  0.12904793582E+00  0.18649116655E-01 0.  0.
         14    1    1    2    0    0 -0.10047736416E-01  0.18102859486E-01 -0.12239733789E-01  0.24051644681E-01  0.00000000000E+00 0.  1.
     999901    1    3    3    0    0 -0.55353887991E-01 -0.12693738692E+00 -0.12973764031E-02  0.89083041950E+00  0.88000000000E+00 0.  1.
        -11    1    4    4    0    0  0.50398926130E-01  0.71215622826E-01  0.34869819452E-02  0.87316303482E-01  0.51100000000E-03 0.  1.
         11    1    4    4    0    0  0.15002698277E-01  0.37618904603E-01  0.10050128246E-01  0.41731632342E-01  0.51100000000E-03 0. -1.
</event>
<event>
 8    1  0.1161093E+005  0.1043930E+01  0.7957747E-01            NaN
         13   -1    0    0    0    0  0.00000000000E+00  0.00000000000E+00  0.74505805969E-08  0.10566000000E+00  0.10566000000E+00 0. -1.
     999900   -1    0    0    0    0 -0.00000000000E+00 -0.00000000000E+00 -0.74505805969E-08  0.93827000000E+00  0.93827000000E+00 0.  1.
     999902    2    1    2    0    0 -0.16026172522E-01 -0.59002440695E-02  0.17506357784E-01  0.10194734334E+01  0.10191800419E+01 0.  0.
     999903    2    3    3    0    0  0.65440856073E-01  0.10800827438E+00  0.10960226418E-01  0.12837586348E+00  0.20296373647E-01 0.  0.
         14    1    1    2    0    0  0.16026172522E-01  0.59002440695E-02 -0.17506357784E-01  0.24456566575E-01  0.00000000000E+00 0.  1.
     999901    1    3    3    0    0 -0.81467028595E-01 -0.11390851845E+00  0.65461313656E-02  0.89109756994E+00  0.88000000000E+00 0.  1.
        -11    1    4    4    0    0  0.32260737885E-01  0.53549623538E-01 -0.47436622351E-02  0.62698332054E-01  0.51100000000E-03 0. -1.
         11    1    4    4    0    0  0.33180118188E-01  0.54458650843E-01  0.15703888654E-01  0.65677531428E-01  0.51100000000E-03 0.  1.
</event>
<event>
 8    1  0.1161093E+005  0.1043930E+01  0.7957747E-01            NaN
         13   -1    0    0    0    0  0.00000000000E+00  0.00000000000E+00  0.74505805969E-08  0.10566000000E+00  0.10566000000E+00 0. -1.
     999900   -1    0    0    0    0 -0.00000000000E+00 -0.00000000000E+00 -0.74505805969E-08  0.93827000000E+00  0.93827000000E+00 0.  1.
     999902    2    1    2    0    0  0.13128458787E-01 -0.10079229402E-01 -0.19046050400E-01  0.10186970982E+01  0.10183845436E+01 0.  0.
     999903    2    3    3    0    0  0.49998069139E-01  0.10430912915E+00 -0.55221963712E-01  0.12979172563E+00  0.20401603485E-01 0.  0.
         14    1    1    2    0    0 -0.13128458787E-01  0.10079229402E-01  0.19046050400E-01  0.25232901761E-01  0.00000000000E+00 0. -1.
     999901    1    3    3    0    0 -0.36869610352E-01 -0.11438835855E+00  0.36175913312E-01  0.88890537260E+00  0.88000000000E+00 0.  1.
        -11    1    4    4    0    0  0.15373066205E-01  0.16655913349E-01 -0.15795272692E-01  0.27631546726E-01  0.51100000000E-03 0.  1.
         11    1    4    4    0    0  0.34625002934E-01  0.87653215804E-01 -0.39426691020E-01  0.10216017891E+00  0.51100000000E-03 0. -1.
</event>
<event>
 8    1  0.1161093E+005  0.1043930E+01  0.7957747E-01            NaN
         13   -1    0    0    0    0  0.00000000000E+00  0.00000000000E+00  0.74505805969E-08  0.10566000000E+00  0.10566000000E+00 0. -1.
     999900   -1    0    0    0    0 -0.00000000000E+00 -0.00000000000E+00 -0.74505805969E-08  0.93827000000E+00  0.93827000000E+00 0. -1.
     999902    2    1    2    0    0 -0.21575210239E-01  0.66563438771E-02  0.72707139127E-02  0.10202095470E+01  0.10199337527E+01 0.  0.
     999903    2    3    3    0    0  0.10721713311E+00  0.67404322338E-01  0.12245450036E-01  0.12874864902E+00  0.19682664337E-01 0.  0.
         14    1    1    2    0    0  0.21575210239E-01 -0.66563438771E-02 -0.72707139127E-02  0.23720453020E-01  0.00000000000E+00 0.  1.
     999901    1    3    3    0    0 -0.12879234335E+00 -0.60747978461E-01 -0.49747361235E-02  0.89146089796E+00  0.88000000000E+00 0. -1.
        -11    1    4    4    0    0  0.63174441913E-01  0.50701327248E-01  0.59547893443E-02  0.81224105614E-01  0.51100000000E-03 0.  1.
         11    1    4    4    0    0  0.44042691198E-01  0.16702995090E-01  0.62906606920E-02  0.47524543405E-01  0.51100000000E-03 0. -1.
</event>
<event>
 8    1  0.1161093E+005  0.1043930E+01  0.7957747E-01            NaN
         13   -1    0    0    0    0  0.00000000000E+00  0.00000000000E+00  0.74505805969E-08  0.10566000000E+00  0.10566000000E+00 0.  1.
     999900   -1    0    0    0    0 -0.00000000000E+00 -0.00000000000E+00 -0.74505805969E-08  0.93827000000E+00  0.93827000000E+00 0. -1.
     999902    2    1    2    0    0  0.90436814930E-02 -0.11041836772E-01  0.19111612018E-01  0.10200770327E+01  0.10197981117E+01 0.  0.
     999903    2    3    3    0    0  0.88031469760E-01 -0.96509604381E-01 -0.51417435066E-03  0.13219810995E+00  0.20308434071E-01 0.  0.
         14    1    1    2    0    0 -0.90436814930E-02  0.11041836772E-01 -0.19111612018E-01  0.23852967283E-01  0.00000000000E+00 0. -1.
     999901    1    3    3    0    0 -0.78987788267E-01  0.85467767609E-01  0.19625786369E-01  0.88787892276E+00  0.88000000000E+00 0. -1.
        -11    1    4    4    0    0  0.61280198981E-01 -0.73490915112E-01 -0.83191446543E-02  0.96050229984E-01  0.51100000000E-03 0. -1.
         11    1    4    4    0    0  0.26751270779E-01 -0.23018689270E-01  0.78049703036E-02  0.36147879971E-01  0.51100000000E-03 0.  1.
</event>
<event>
 8    1  0.1161093E+005  0.1043930E+01  0.7957747E-01            NaN
         13   -1    0    0    0    0  0.00000000000E+00  0.00000000000E+00  0.74505805969E-08  0.10566000000E+00  0.10566000000E+00 0.  1.
     999900   -1    0    0    0    0 -0.00000000000E+00 -0.00000000000E+00 -0.74505805969E-08  0.93827000000E+00  0.93827000000E+00 0. -1.
     999902    2    1    2    0    0  0.61621407136E-02 -0.21184204588E-01  0.35882683280E-02  0.10215778598E+01  0.10213332979E+01 0.  0.
     999903    2    3    3    0    0  0.36538378657E-01 -0.12714799910E+00  0.14905029472E-01  0.13462853167E+00  0.20025355078E-01 0.  0.
         14    1    1    2    0    0 -0.61621407136E-02  0.21184204588E-01 -0.35882683280E-02  0.22352140206E-01  0.00000000000E+00 0.  1.
     999901    1    3    3    0    0 -0.30376237943E-01  0.10596379451E+00 -0.11316761144E-01  0.88694932813E+00  0.88000000000E+00 0. -1.
        -11    1    4    4    0    0  0.13079317142E-01 -0.28332150015E-01  0.10646997696E-01  0.32975732627E-01  0.51100000000E-03 0. -1.
         11    1    4    4    0    0  0.23459061515E-01 -0.98815849084E-01  0.42580317755E-02  0.10165279904E+00  0.51100000000E-03 0.  1.
</event>
<event>
 8    1  0.1161093E+005  0.1043930E+01  0.7957747E-01            NaN
         13   -1    0    0    0    0  0.00000000000E+00  0.00000000000E+00  0.74505805969E-08  0.10566000000E+00  0.10566000000E+00 0.  1.
     999900   -1    0    0    0    0 -0.00000000000E+00 -0.00000000000E+00 -0.74505805969E-08  0.93827000000E+00  0.93827000000E+00 0. -1.
     999902    2    1    2    0    0  0.19002692884E-01  0.11935367980E-01  0.77820535969E-02  0.10201788799E+01  0.10199023637E+01 0.  0.
     999903    2    3    3    0    0  0.42282108677E-01  0.66958240753E-01 -0.10355619661E+00  0.13115376574E+00  0.14361117379E-01 0.  0.
         14    1    1    2    0    0 -0.19002692884E-01 -0.11935367980E-01 -0.77820535969E-02  0.23751120055E-01  0.00000000000E+00 0.  1.
     999901    1    3    3    0    0 -0.23279415793E-01 -0.55022872773E-01  0.11133825021E+00  0.88902511421E+00  0.88000000000E+00 0. -1.
        -11    1    4    4    0    0  0.14302138009E-01  0.12368481386E-01 -0.20417970224E-01  0.27833165693E-01  0.51100000000E-03 0. -1.
         11    1    4    4    0    0  0.27979970668E-01  0.54589759366E-01 -0.83138226387E-01  0.10332060005E+00  0.51100000000E-03 0.  1.
</event>
<event>
 8    1  0.1161093E+005  0.1043930E+01  0.7957747E-01            NaN
         13   -1    0    0    0    0  0.00000000000E+00  0.00000000000E+00  0.74505805969E-08  0.10566000000E+00  0.10566000000E+00 0. -1.
     999900   -1    0    0    0    0 -0.00000000000E+00 -0.00000000000E+00 -0.74505805969E-08  0.93827000000E+00  0.93827000000E+00 0.  1.
     999902    2    1    2    0    0 -0.19076272997E-01 -0.14456692128E-01  0.53168760573E-02  0.10194112458E+01  0.10191163421E+01 0.  0.
     999903    2    3    3    0    0 -0.86764506426E-01  0.87148611141E-01  0.38345860065E-01  0.13036892484E+00  0.20067176683E-01 0.  0.
         14    1    1    2    0    0  0.19076272997E-01  0.14456692128E-01 -0.53168760573E-02  0.24518754245E-01  0.00000000000E+00 0. -1.
     999901    1    3    3    0    0  0.67688233429E-01 -0.10160530327E+00 -0.33028984008E-01  0.88904232092E+00  0.88000000000E+00 0.  1.
        -11    1    4    4    0    0 -0.29258412462E-01  0.19855325436E-01  0.17369367696E-01  0.39398536814E-01  0.51100000000E-03 0. -1.
         11    1    4    4    0    0 -0.57506093964E-01  0.67293285705E-01  0.20976492369E-01  0.90970388023E-01  0.51100000000E-03 0.  1.
</event>
<event>
 7    1  0.1161093E+005  0.1043930E+01  0.7957747E-01            NaN
         13   -1    0    0    0    0  0.00000000000E+00  0.00000000000E+00  0.74505805969E-08  0.10566000000E+00  0.10566000000E+00 0. -1.
     999900   -1    0    0    0    0 -0.00000000000E+00 -0.00000000000E+00 -0.74505805969E-08  0.93827000000E+00  0.93827000000E+00 0.  1.
     999903    2    1    2    0    0  0.56861960990E-01  0.20003297968E-01 -0.75924838704E-01  0.99041021582E-01  0.20276298641E-01 0.  0.
         14    1    1    2    0    0 -0.40239202378E-01 -0.24940035620E-01  0.43232493492E-01  0.64111210239E-01  0.00000000000E+00 0. -1.
     999901    1    1    2    0    0 -0.16622758612E-01  0.49367376522E-02  0.32692345212E-01  0.88077776818E+00  0.88000000000E+00 0. -1.
        -11    1    3    3    0    0  0.11042979079E-01  0.38082458600E-02 -0.42453182740E-02  0.12439211057E-01  0.51100000000E-03 0. -1.
         11    1    3    3    0    0  0.45818981911E-01  0.16195052108E-01 -0.71679520430E-01  0.86601810525E-01  0.51100000000E-03 0.  1.
</event>
<event>
 8    1  0.1161093E+005  0.1043930E+01  0.7957747E-01            NaN
         13   -1    0    0    0    0  0.00000000000E+00  0.00000000000E+00  0.74505805969E-08  0.10566000000E+00  0.10566000000E+00 0. -1.
     999900   -1    0    0    0    0 -0.00000000000E+00 -0.00000000000E+00 -0.74505805969E-08  0.93827000000E+00  0.93827000000E+00 0.  1.
     999902    2    1    2    0    0  0.15845197839E-01  0.17995368194E-01 -0.37226735268E-02  0.10196655843E+01  0.10193768400E+01 0.  0.
     999903    2    3    3    0    0 -0.32306492490E-01  0.68777633090E-01 -0.10559030348E+00  0.13102930452E+00  0.15661870371E-01 0.  0.
         14    1    1    2    0    0 -0.15845197839E-01 -0.17995368194E-01  0.37226735268E-02  0.24264415699E-01  0.00000000000E+00 0. -1.
     999901    1    3    3    0    0  0.48151690330E-01 -0.50782264896E-01  0.10186762995E+00  0.88863627978E+00  0.88000000000E+00 0. -1.
        -11    1    4    4    0    0 -0.20996088778E-01  0.39917495542E-01 -0.49696705239E-01  0.67113827390E-01  0.51100000000E-03 0. -1.
         11    1    4    4    0    0 -0.11310403712E-01  0.28860137548E-01 -0.55893598242E-01  0.63915477131E-01  0.51100000000E-03 0.  1.
</event>
<event>
 8    1  0.1161093E+005  0.1043930E+01  0.7957747E-01            NaN
         13   -1    0    0    0    0  0.00000000000E+00  0.00000000000E+00  0.74505805969E-08  0.10566000000E+00  0.10566000000E+00 0. -1.
     999900   -1    0    0    0    0 -0.00000000000E+00 -0.00000000000E+00 -0.74505805969E-08  0.93827000000E+00  0.93827000000E+00 0.  1.
     999902    2    1    2    0    0 -0.75179515584E-02 -0.31669411842E-02  0.22235715862E-01  0.10202450645E+01  0.10199701051E+01 0.  0.
     999903    2    3    3    0    0  0.92361580061E-01  0.58124466598E-01  0.70155486218E-01  0.13118440179E+00  0.19453532763E-01 0.  0.
         14    1    1    2    0    0  0.75179515584E-02  0.31669411842E-02 -0.22235715862E-01  0.23684935550E-01  0.00000000000E+00 0.  1.
     999901    1    3    3    0    0 -0.99879531619E-01 -0.61291407782E-01 -0.47919770356E-01  0.88906066266E+00  0.88000000000E+00 0.  1.
        -11    1    4    4    0    0  0.71906989637E-01  0.52571476478E-01  0.51186533233E-01  0.10273605795E+00  0.51100000000E-03 0.  1.
         11    1    4    4    0    0  0.20454590424E-01  0.55529901200E-02  0.18968952986E-01  0.28448343836E-01  0.51100000000E-03 0. -1.
</event>
<event>
 8    1  0.1161093E+005  0.1043930E+01  0.7957747E-01            NaN
         13   -1    0    0    0    0  0.00000000000E+00  0.00000000000E+00  0.74505805969E-08  0.10566000000E+00  0.10566000000E+00 0. -1.
     999900   -1    0    0    0    0 -0.00000000000E+00 -0.00000000000E+00 -0.74505805969E-08  0.93827000000E+00  0.93827000000E+00 0.  1.
     999902    2    1    2    0    0  0.16989623753E-01 -0.14987968906E-01 -0.61246841660E-02  0.10204609079E+01  0.10201909950E+01 0.  0.
     999903    2    3    3    0    0  0.47887784477E-01 -0.78081270439E-01  0.93348167373E-01  0.13207455659E+00  0.18435928233E-01 0.  0.
         14    1    1    2    0    0 -0.16989623753E-01  0.14987968906E-01  0.61246841660E-02  0.23469092086E-01  0.00000000000E+00 0. -1.
     999901    1    3    3    0    0 -0.30898160723E-01  0.63093301534E-01 -0.99472851539E-01  0.88838635133E+00  0.88000000000E+00 0.  1.
        -11    1    4    4    0    0  0.18735890214E-01 -0.42722532581E-01  0.37683914866E-01  0.59971551030E-01  0.51100000000E-03 0. -1.
         11    1    4    4    0    0  0.29151894263E-01 -0.35358737858E-01  0.55664252507E-01  0.72103005556E-01  0.51100000000E-03 0.  1.
</event>
<event>
 7    1  0.1161093E+005  0.1043930E+01  0.7957747E-01            NaN
         13   -1    0    0    0    0  0.00000000000E+00  0.00000000000E+00  0.74505805969E-08  0.10566000000E+00  0.10566000000E+00 0. -1.
     999900   -1    0    0    0    0 -0.00000000000E+00 -0.00000000000E+00 -0.74505805969E-08  0.93827000000E+00  0.93827000000E+00 0.  1.
     999902    2    1    2    0    0 -0.10236646712E-01  0.14875802360E-01 -0.15437001783E-01  0.10201733282E+01  0.10198966811E+01 0.  0.
         14    1    1    2    0    0  0.10236646712E-01 -0.14875802360E-01  0.15437001783E-01  0.23756671816E-01  0.00000000000E+00 0. -1.
     999901    1    3    3    0    0  0.10214201186E-01 -0.14571403972E-01  0.10713819396E+00  0.88667651842E+00  0.88000000000E+00 0. -1.
        -11    1    3    3    0    0 -0.19509710354E-01  0.22692906235E-01 -0.12305361562E+00  0.12664142383E+00  0.51100000000E-03 0. -1.
         11    1    3    3    0    0 -0.94113754288E-03  0.67543000970E-02  0.47841987784E-03  0.68553859304E-02  0.51100000000E-03 0.  1.
</event>
<event>
 8    1  0.1161093E+005  0.1043930E+01  0.7957747E-01            NaN
         13   -1    0    0    0    0  0.00000000000E+00  0.00000000000E+00  0.74505805969E-08  0.10566000000E+00  0.10566000000E+00 0.  1.
     999900   -1    0    0    0    0 -0.00000000000E+00 -0.00000000000E+00 -0.74505805969E-08  0.93827000000E+00  0.93827000000E+00 0. -1.
     999902    2    1    2    0    0  0.13476648407E-01 -0.64123753579E-02 -0.22502708145E-01  0.10169279541E+01  0.10165694041E+01 0.  0.
     999903    2    3    3    0    0 -0.49298869737E-01  0.11057713672E+00  0.27226741368E-01  0.12558047427E+00  0.19273773661E-01 0.  0.
         14    1    1    2    0    0 -0.13476648407E-01  0.64123753579E-02  0.22502708145E-01  0.27002045920E-01  0.00000000000E+00 0.  1.
     999901    1    3    3    0    0  0.62775518143E-01 -0.11698951207E+00 -0.49729449513E-01  0.89134747981E+00  0.88000000000E+00 0.  1.
        -11    1    4    4    0    0 -0.23998815217E-01  0.48703236371E-01  0.21805925182E-01  0.58512459005E-01  0.51100000000E-03 0.  1.
         11    1    4    4    0    0 -0.25300054520E-01  0.61873900345E-01  0.54208161858E-02  0.67068015266E-01  0.51100000000E-03 0. -1.
</event>
<event>
 8    1  0.1161093E+005  0.1043930E+01  0.7957747E-01            NaN
         13   -1    0    0    0    0  0.00000000000E+00  0.00000000000E+00  0.74505805969E-08  0.10566000000E+00  0.10566000000E+00 0.  1.
     999900   -1    0    0    0    0 -0.00000000000E+00 -0.00000000000E+00 -0.74505805969E-08  0.93827000000E+00  0.93827000000E+00 0. -1.
     999902    2    1    2    0    0  0.52040184860E-02  0.15949052025E-01 -0.17480031657E-01  0.10197018021E+01  0.10194139294E+01 0.  0.
     999903    2    3    3    0    0  0.17020830803E-01  0.10226068884E+00  0.76614693750E-01  0.13040817616E+00  0.19736361069E-01 0.  0.
         14    1    1    2    0    0 -0.52040184860E-02 -0.15949052025E-01  0.17480031657E-01  0.24228197944E-01  0.00000000000E+00 0.  1.
     999901    1    3    3    0    0 -0.11816812317E-01 -0.86311636817E-01 -0.94094725407E-01  0.88929362589E+00  0.88000000000E+00 0. -1.
        -11    1    4    4    0    0  0.75486171242E-02  0.42874796380E-01  0.44402496806E-01  0.62185791212E-01  0.51100000000E-03 0. -1.
         11    1    4    4    0    0  0.94722136789E-02  0.59385892462E-01  0.32212196945E-01  0.68222384951E-01  0.51100000000E-03 0.  1.
</event>
<event>
 8    1  0.1161093E+005  0.1043930E+01  0.7957747E-01            NaN
         13   -1    0    0    0    0  0.00000000000E+00  0.00000000000E+00  0.74505805969E-08  0.10566000000E+00  0.10566000000E+00 0.  1.
     999900   -1    0    0    0    0 -0.00000000000E+00 -0.00000000000E+00 -0.74505805969E-08  0.93827000000E+00  0.93827000000E+00 0. -1.
     999902    2    1    2    0    0  0.15703055055E-01  0.86423721769E-02  0.15494392597E-01  0.10202371163E+01  0.10199619703E+01 0.  0.
     999903    2    3    3    0    0  0.96616254039E-01 -0.36481949281E-01 -0.77235804631E-01  0.13052815288E+00  0.20164225975E-01 0.  0.
         14    1    1    2    0    0 -0.15703055055E-01 -0.86423721769E-02 -0.15494392597E-01  0.23692883676E-01  0.00000000000E+00 0. -1.
     999901    1    3    3    0    0 -0.80913198983E-01  0.45124321458E-01  0.92730197228E-01  0.88970896345E+00  0.88000000000E+00 0.  1.
        -11    1    4    4    0    0  0.51643473681E-01 -0.29656289961E-01 -0.47541028635E-01  0.76203375468E-01  0.51100000000E-03 0.  1.
         11    1    4    4    0    0  0.44972780358E-01 -0.68256593199E-02 -0.29694775996E-01  0.54324777411E-01  0.51100000000E-03 0. -1.
</event>
<event>
 8    1  0.1161093E+005  0.1043930E+01  0.7957747E-01            NaN
         13   -1    0    0    0    0  0.00000000000E+00  0.00000000000E+00  0.74505805969E-08  0.10566000000E+00  0.10566000000E+00 0. -1.
     999900   -1    0    0    0    0 -0.00000000000E+00 -0.00000000000E+00 -0.74505805969E-08  0.93827000000E+00  0.93827000000E+00 0. -1.
     999902    2    1    2    0    0 -0.13763911990E-01 -0.89100984857E-02  0.18064155693E-01  0.10195343272E+01  0.10192424126E+01 0.  0.
     999903    2    3    3    0    0  0.17295335132E-01  0.10698407728E+00 -0.65293682118E-01  0.12748911206E+00  0.15668036314E-01 0.  0.
         14    1    1    2    0    0  0.13763911990E-01  0.89100984857E-02 -0.18064155693E-01  0.24395672755E-01  0.00000000000E+00 0.  1.
     999901    1    3    3    0    0 -0.31059247122E-01 -0.11589417576E+00  0.83357837811E-01  0.89204521518E+00  0.88000000000E+00 0. -1.
        -11    1    4    4    0    0  0.41196925059E-02  0.58646730935E-01 -0.41882219553E-01  0.72185818215E-01  0.51100000000E-03 0. -1.
         11    1    4    4    0    0  0.13175642626E-01  0.48337346340E-01 -0.23411462565E-01  0.55303293846E-01  0.51100000000E-03 0.  1.
</event>
<event>
 8    1  0.1161093E+005  0.1043930E+01  0.7957747E-01            NaN
         13   -1    0    0    0    0  0.00000000000E+00  0.00000000000E+00  0.74505805969E-08  0.10566000000E+00  0.10566000000E+00 0. -1.
     999900   -1    0    0    0    0 -0.00000000000E+00 -0.00000000000E+00 -0.74505805969E-08  0.93827000000E+00  0.93827000000E+00 0. -1.
     999902    2    1    2    0    0 -0.90012292175E-02 -0.77827296701E-02  0.21067673850E-01  0.10197341349E+01  0.10194470393E+01 0.  0.
     999903    2    3    3    0    0 -0.11903308182E+00  0.22702786557E-01  0.47868085902E-01  0.13195339764E+00  0.20881916005E-01 0.  0.
         14    1    1    2    0    0  0.90012292175E-02  0.77827296701E-02 -0.21067673850E-01  0.24195865143E-01  0.00000000000E+00 0.  1.
     999901    1    3    3    0    0  0.11003185260E+00 -0.30485516227E-01 -0.26800412052E-01  0.88778073722E+00  0.88000000000E+00 0. -1.
        -11    1    4    4    0    0 -0.40902936535E-01  0.32780544552E-02  0.68798668755E-02  0.41609969327E-01  0.51100000000E-03 0. -1.
         11    1    4    4    0    0 -0.78130145285E-01  0.19424732102E-01  0.40988219027E-01  0.90343428314E-01  0.51100000000E-03 0.  1.
</event>
<event>
 8    1  0.1161093E+005  0.1043930E+01  0.7957747E-01            NaN
         13   -1    0    0    0    0  0.00000000000E+00  0.00000000000E+00  0.74505805969E-08  0.10566000000E+00  0.10566000000E+00 0. -1.
     999900   -1    0    0    0    0 -0.00000000000E+00 -0.00000000000E+00 -0.74505805969E-08  0.93827000000E+00  0.93827000000E+00 0.  1.
     999902    2    1    2    0    0  0.10878749447E-01  0.20219370214E-01  0.38393395806E-02  0.10206510256E+01  0.10203855180E+01 0.  0.
     999903    2    3    3    0    0  0.67181979454E-01 -0.10743421909E+00 -0.16862040859E-01  0.12941927137E+00  0.20235849034E-01 0.  0.
         14    1    1    2    0    0 -0.10878749447E-01 -0.20219370214E-01 -0.38393395806E-02  0.23278974415E-01  0.00000000000E+00 0. -1.
     999901    1    3    3    0    0 -0.56303230008E-01  0.12765358930E+00  0.20701380440E-01  0.89123175422E+00  0.88000000000E+00 0. -1.
        -11    1    4    4    0    0  0.48951026644E-01 -0.71367190316E-01 -0.20187499595E-01  0.88866614226E-01  0.51100000000E-03 0. -1.
         11    1    4    4    0    0  0.18230952810E-01 -0.36067028769E-01  0.33254587365E-02  0.40552657144E-01  0.51100000000E-03 0.  1.
</event>
<event>
 8    1  0.1161093E+005  0.1043930E+01  0.7957747E-01            NaN
         13   -1    0    0    0    0  0.00000000000E+00  0.00000000000E+00  0.74505805969E-08  0.10566000000E+00  0.10566000000E+00 0. -1.
     999900   -1    0    0    0    0 -0.00000000000E+00 -0.00000000000E+00 -0.74505805969E-08  0.93827000000E+00  0.93827000000E+00 0.  1.
     999902    2    1    2    0    0 -0.74201227967E-02  0.16201153796E-01 -0.15894055005E-01  0.10200520480E+01  0.10197725355E+01 0.  0.
     999903    2    3    3    0    0  0.37964850305E-01 -0.10093985345E-01 -0.12408418681E+00  0.13187620126E+00  0.21242143150E-01 0.  0.
         14    1    1    2    0    0  0.74201227967E-02 -0.16201153796E-01  0.15894055005E-01  0.23877951988E-01  0.00000000000E+00 0. -1.
     999901    1    3    3    0    0 -0.45384973101E-01  0.26295139140E-01  0.10819013180E+00  0.88817584675E+00  0.88000000000E+00 0.  1.
        -11    1    4    4    0    0  0.84214794968E-02 -0.11792848710E-01 -0.31515314076E-01  0.34691046970E-01  0.51100000000E-03 0. -1.
         11    1    4    4    0    0  0.29543370808E-01  0.16988633655E-02 -0.92568872732E-01  0.97185154295E-01  0.51100000000E-03 0.  1.
</event>
<event>
 8    1  0.1161093E+005  0.1043930E+01  0.7957747E-01            NaN
         13   -1    0    0    0    0  0.00000000000E+00  0.00000000000E+00  0.74505805969E-08  0.10566000000E+00  0.10566000000E+00 0.  1.
     999900   -1    0    0    0    0 -0.00000000000E+00 -0.00000000000E+00 -0.74505805969E-08  0.93827000000E+00  0.93827000000E+00 0.  1.
     999902    2    1    2    0    0  0.74537635032E-02  0.17040048979E-01 -0.19405216101E-01  0.10170509325E+01  0.10166956845E+01 0.  0.
     999903    2    3    3    0    0  0.10894711344E+00  0.59851247855E-01 -0.32272182679E-01  0.13009024694E+00  0.20744473421E-01 0.  0.
         14    1    1    2    0    0 -0.74537635032E-02 -0.17040048979E-01  0.19405216101E-01  0.26879067534E-01  0.00000000000E+00 0.  1.
     999901    1    3    3    0    0 -0.10149334994E+00 -0.42811198876E-01  0.12866966578E-01  0.88696068552E+00  0.88000000000E+00 0.  1.
        -11    1    4    4    0    0  0.52733497677E-01  0.18388694912E-01 -0.18959778629E-01  0.58980506987E-01  0.51100000000E-03 0.  1.
         11    1    4    4    0    0  0.56213615768E-01  0.41462552943E-01 -0.13312404050E-01  0.71109739958E-01  0.51100000000E-03 0. -1.
</event>
<event>
 8    1  0.1161093E+005  0.1043930E+01  0.7957747E-01            NaN
         13   -1    0    0    0    0  0.00000000000E+00  0.00000000000E+00  0.74505805969E-08  0.10566000000E+00  0.10566000000E+00 0. -1.
     999900   -1    0    0    0    0 -0.00000000000E+00 -0.00000000000E+00 -0.74505805969E-08  0.93827000000E+00  0.93827000000E+00 0.  1.
     999902    2    1    2    0    0 -0.15689535335E-01  0.16636955909E-01 -0.14293634573E-01  0.10169622821E+01  0.10166046554E+01 0.  0.
     999903    2    3    3    0    0  0.48297603252E-01 -0.24124908560E-01  0.11213738505E+00  0.12469512128E+00  0.77078176686E-02 0.  0.
         14    1    1    2    0    0  0.15689535335E-01 -0.16636955909E-01  0.14293634573E-01  0.26967717928E-01  0.00000000000E+00 0.  1.
     999901    1    3    3    0    0 -0.63987138587E-01  0.40761864468E-01 -0.12643101962E+00  0.89226716079E+00  0.88000000000E+00 0.  1.
        -11    1    4    4    0    0  0.30551436918E-01 -0.14374032063E-01  0.78090692891E-01  0.85078907684E-01  0.51100000000E-03 0. -1.
         11    1    4    4    0    0  0.17746166334E-01 -0.97508764971E-02  0.34046692158E-01  0.39616213599E-01  0.51100000000E-03 0.  1.
</event>
<event>
 8    1  0.1161093E+005  0.1043930E+01  0.7957747E-01            NaN
         13   -1    0    0    0    0  0.00000000000E+00  0.00000000000E+00  0.74505805969E-08  0.10566000000E+00  0.10566000000E+00 0.  1.
     999900   -1    0    0    0    0 -0.00000000000E+00 -0.00000000000E+00 -0.74505805969E-08  0.93827000000E+00  0.93827000000E+00 0.  1.
     999902    2    1    2    0    0 -0.17991625132E-01 -0.32531694527E-02  0.13499537199E-01  0.10212029414E+01  0.10209500127E+01 0.  0.
     999903    2    3    3    0    0 -0.10158667299E+00  0.56800944821E-01  0.62904566642E-01  0.13382732446E+00  0.20163551425E-01 0.  0.
         14    1    1    2    0    0  0.17991625132E-01  0.32531694527E-02 -0.13499537199E-01  0.22727058564E-01  0.00000000000E+00 0. -1.
     999901    1    3    3    0    0  0.83595047859E-01 -0.60054114273E-01 -0.49405029443E-01  0.88737561698E+00  0.88000000000E+00 0.  1.
        -11    1    4    4    0    0 -0.53389049454E-01  0.30840229101E-01  0.44611821765E-01  0.76105099006E-01  0.51100000000E-03 0. -1.
         11    1    4    4    0    0 -0.48197623537E-01  0.25960715720E-01  0.18292744877E-01  0.57722225455E-01  0.51100000000E-03 0.  1.
</event>
<event>
 8    1  0.1161093E+005  0.1043930E+01  0.7957747E-01            NaN
         13   -1    0    0    0    0  0.00000000000E+00  0.00000000000E+00  0.74505805969E-08  0.10566000000E+00  0.10566000000E+00 0.  1.
     999900   -1    0    0    0    0 -0.00000000000E+00 -0.00000000000E+00 -0.74505805969E-08  0.93827000000E+00  0.93827000000E+00 0.  1.
     999902    2    1    2    0    0  0.46209287434E-02  0.53260342407E-02 -0.26444577473E-01  0.10165614907E+01  0.10161930078E+01 0.  0.
     999903    2    3    3    0    0 -0.28119554702E-01  0.11717054859E+00  0.34101936811E-01  0.12681601303E+00  0.19992805062E-01 0.  0.
         14    1    1    2    0    0 -0.46209287434E-02 -0.53260342407E-02  0.26444577473E-01  0.27368509293E-01  0.00000000000E+00 0.  1.
     999901    1    3    3    0    0  0.32740483445E-01 -0.11184451435E+00 -0.60546514284E-01  0.88974547767E+00  0.88000000000E+00 0.  1.
        -11    1    4    4    0    0 -0.12852859242E-01  0.72057462986E-01  0.11493282688E-01  0.74093391275E-01  0.51100000000E-03 0.  1.
         11    1    4    4    0    0 -0.15266695460E-01  0.45113085604E-01  0.22608654123E-01  0.52722621760E-01  0.51100000000E-03 0. -1.
</event>
<event>
 8    1  0.1161093E+005  0.1043930E+01  0.7957747E-01            NaN
         13   -1    0    0    0    0  0.00000000000E+00  0.00000000000E+00  0.74505805969E-08  0.10566000000E+00  0.10566000000E+00 0.  1.
     999900   -1    0    0    0    0 -0.00000000000E+00 -0.00000000000E+00 -0.74505805969E-08  0.93827000000E+00  0.93827000000E+00 0.  1.
     999902    2    1    2    0    0  0.82010209592E-02 -0.18155050177E-01  0.13341605754E-01  0.10199537402E+01  0.10196718938E+01 0.  0.
     999903    2    3    3    0    0 -0.28805368816E-01  0.11993755432E+00 -0.24912501950E-01  0.12759595482E+00  0.21102813202E-01 0.  0.
         14    1    1    2    0    0 -0.82010209592E-02  0.18155050177E-01 -0.13341605754E-01  0.23976259837E-01  0.00000000000E+00 0. -1.
     999901    1    3    3    0    0  0.37006389775E-01 -0.13809260450E+00  0.38254107704E-01  0.89235778534E+00  0.88000000000E+00 0. -1.
        -11    1    4    4    0    0 -0.29294213055E-01  0.99693394733E-01 -0.26627440924E-01  0.10726698282E+00  0.51100000000E-03 0.  1.
         11    1    4    4    0    0  0.48884423942E-03  0.20244159586E-01  0.17149389745E-02  0.20328972004E-01  0.51100000000E-03 0. -1.
</event>
<event>
 8    1  0.1161093E+005  0.1043930E+01  0.7957747E-01            NaN
         13   -1    0    0    0    0  0.00000000000E+00  0.00000000000E+00  0.74505805969E-08  0.10566000000E+00  0.10566000000E+00 0. -1.
     999900   -1    0    0    0    0 -0.00000000000E+00 -0.00000000000E+00 -0.74505805969E-08  0.93827000000E+00  0.93827000000E+00 0. -1.
     999902    2    1    2    0    0  0.14850817842E-01  0.12515648529E-01 -0.13296931634E-01  0.10203928668E+01  0.10201213683E+01 0.  0.
     999903    2    3    3    0    0 -0.23619834090E-01  0.88563928469E-02  0.12528165682E+00  0.12871052067E+00  0.15315754593E-01 0.  0.
         14    1    1    2    0    0 -0.14850817842E-01 -0.12515648529E-01  0.13296931634E-01  0.23537133206E-01  0.00000000000E+00 0. -1.
     999901    1    3    3    0    0  0.38470651932E-01  0.36592556821E-02 -0.13857858845E+00  0.89168234612E+00  0.88000000000E+00 0. -1.
        -11    1    4    4    0    0 -0.21191160103E-01  0.33335696345E-02  0.73264783687E-01  0.76342436447E-01  0.51100000000E-03 0. -1.
         11    1    4    4    0    0 -0.24286739874E-02  0.55228232124E-02  0.52016873133E-01  0.52368084222E-01  0.51100000000E-03 0.  1.
</event>
<event>
 8    1  0.1161093E+005  0.1043930E+01  0.7957747E-01            NaN
         13   -1    0    0    0    0  0.00000000000E+00  0.00000000000E+00  0.74505805969E-08  0.10566000000E+00  0.10566000000E+00 0. -1.
     999900   -1    0    0    0    0 -0.00000000000E+00 -0.00000000000E+00 -0.74505805969E-08  0.93827000000E+00  0.93827000000E+00 0. -1.
     999902    2    1    2    0    0  0.28319054191E-02  0.27398912310E-02  0.18609040387E-01  0.10249083524E+01  0.10247318224E+01 0.  0.
     999903    2    3    3    0    0 -0.13205045887E-01  0.12416684914E+00  0.49525450875E-01  0.13588781591E+00  0.20517031086E-01 0.  0.
         14    1    1    2    0    0 -0.28319054191E-02 -0.27398912310E-02 -0.18609040387E-01  0.19021647573E-01  0.00000000000E+00 0.  1.
     999901    1    3    3    0    0  0.16036951306E-01 -0.12142695791E+00 -0.30916410488E-01  0.88902053652E+00  0.88000000000E+00 0.  1.
        -11    1    4    4    0    0  0.27466133385E-02  0.66957187476E-01  0.23157511872E-01  0.70903739793E-01  0.51100000000E-03 0. -1.
         11    1    4    4    0    0 -0.15951659226E-01  0.57209661668E-01  0.26367939003E-01  0.64984076115E-01  0.51100000000E-03 0.  1.
</event>
<event>
 8    1  0.1161093E+005  0.1043930E+01  0.7957747E-01            NaN
         13   -1    0    0    0    0  0.00000000000E+00  0.00000000000E+00  0.74505805969E-08  0.10566000000E+00  0.10566000000E+00 0. -1.
     999900   -1    0    0    0    0 -0.00000000000E+00 -0.00000000000E+00 -0.74505805969E-08  0.93827000000E+00  0.93827000000E+00 0. -1.
     999902    2    1    2    0    0 -0.75493347456E-02 -0.69465849394E-02 -0.20707233396E-01  0.10208207592E+01  0.10205591533E+01 0.  0.
     999903    2    3    3    0    0 -0.27512158438E-01 -0.12747112697E+00 -0.23537816544E-02  0.13219174278E+00  0.21524625376E-01 0.  0.
         14    1    1    2    0    0  0.75493347456E-02  0.69465849394E-02  0.20707233396E-01  0.23109240843E-01  0.00000000000E+00 0. -1.
     999901    1    3    3    0    0  0.19962823693E-01  0.12052454203E+00 -0.18353451742E-01  0.88862901638E+00  0.88000000000E+00 0.  1.
        -11    1    4    4    0    0 -0.25455434998E-01 -0.95176101718E-01  0.61947949160E-02  0.98717304026E-01  0.51100000000E-03 0.  1.
         11    1    4    4    0    0 -0.20567234405E-02 -0.32295025251E-01 -0.85485765704E-02  0.33474438751E-01  0.51100000000E-03 0. -1.
</event>
<event>
 8    1  0.1161093E+005  0.1043930E+01  0.7957747E-01            NaN
         13   -1    0    0    0    0  0.00000000000E+00  0.00000000000E+00  0.74505805969E-08  0.10566000000E+00  0.10566000000E+00 0.  1.
     999900   -1    0    0    0    0 -0.00000000000E+00 -0.00000000000E+00 -0.74505805969E-08  0.93827000000E+00  0.93827000000E+00 0. -1.
     999902    2    1    2    0    0  0.12377697368E-01 -0.13401867666E-01 -0.15399436084E-01  0.10200561633E+01  0.10197767482E+01 0.  0.
     999903    2    3    3    0    0 -0.26742607983E-01  0.11326583373E+00  0.49012954194E-01  0.12779831886E+00  0.19642414620E-01 0.  0.
         14    1    1    2    0    0 -0.12377697368E-01  0.13401867666E-01  0.15399436084E-01  0.23873836742E-01  0.00000000000E+00 0.  1.
     999901    1    3    3    0    0  0.39120305351E-01 -0.12666770140E+00 -0.64412390278E-01  0.89225784440E+00  0.88000000000E+00 0. -1.
        -11    1    4    4    0    0  0.16295779943E-02  0.27785592948E-01  0.91435833911E-02  0.29301210523E-01  0.51100000000E-03 0. -1.
         11    1    4    4    0    0 -0.28372185977E-01  0.85480240784E-01  0.39869370803E-01  0.98497108337E-01  0.51100000000E-03 0.  1.
</event>
<event>
 8    1  0.1161093E+005  0.1043930E+01  0.7957747E-01            NaN
         13   -1    0    0    0    0  0.00000000000E+00  0.00000000000E+00  0.74505805969E-08  0.10566000000E+00  0.10566000000E+00 0.  1.
     999900   -1    0    0    0    0 -0.00000000000E+00 -0.00000000000E+00 -0.74505805969E-08  0.93827000000E+00  0.93827000000E+00 0.  1.
     999902    2    1    2    0    0  0.34648204760E-02 -0.19296254866E-01  0.11674934891E-01  0.10211121443E+01  0.10208571677E+01 0.  0.
     999903    2    3    3    0    0 -0.10147291275E+00 -0.23343756069E-01  0.79240022452E-01  0.13229644286E+00  0.19536751630E-01 0.  0.
         14    1    1    2    0    0 -0.34648204760E-02  0.19296254866E-01 -0.11674934891E-01  0.22817855673E-01  0.00000000000E+00 0. -1.
     999901    1    3    3    0    0  0.10493773323E+00  0.40475012020E-02 -0.67565087561E-01  0.88881570147E+00  0.88000000000E+00 0.  1.
        -11    1    4    4    0    0 -0.60115042952E-01 -0.23583410108E-01  0.48603072134E-01  0.80823977651E-01  0.51100000000E-03 0.  1.
         11    1    4    4    0    0 -0.41357869802E-01  0.23965403936E-03  0.30636950319E-01  0.51472465207E-01  0.51100000000E-03 0. -1.
</event>
<event>
 8    1  0.1161093E+005  0.1043930E+01  0.7957747E-01            NaN
         13   -1    0    0    0    0  0.00000000000E+00  0.00000000000E+00  0.74505805969E-08  0.10566000000E+00  0.10566000000E+00 0.  1.
     999900   -1    0    0    0    0 -0.00000000000E+00 -0.00000000000E+00 -0.74505805969E-08  0.93827000000E+00  0.93827000000E+00 0.  1.
     999902    2    1    2    0    0  0.19174525274E-02  0.10690529013E-01 -0.21186537699E-01  0.10201217364E+01  0.10198438722E+01 0.  0.
     999903    2    3    3    0    0 -0.48746106150E-01  0.11959322436E+00  0.12357955698E-01  0.13132939495E+00  0.20395311470E-01 0.  0.
         14    1    1    2    0    0 -0.19174525274E-02 -0.10690529013E-01  0.21186537699E-01  0.23808263575E-01  0.00000000000E+00 0.  1.
     999901    1    3    3    0    0  0.50663558677E-01 -0.10890269535E+00 -0.33544493396E-01  0.88879234148E+00  0.88000000000E+00 0. -1.
        -11    1    4    4    0    0 -0.11566372236E-01  0.13570831073E-01 -0.24433750478E-02  0.18004988901E-01  0.51100000000E-03 0. -1.
         11    1    4    4    0    0 -0.37179733913E-01  0.10602239329E+00  0.14801330745E-01  0.11332440605E+00  0.51100000000E-03 0.  1.
</event>
<event>
 8    1  0.1161093E+005  0.1043930E+01  0.7957747E-01            NaN
         13   -1    0    0    0    0  0.00000000000E+00  0.00000000000E+00  0.74505805969E-08  0.10566000000E+00  0.10566000000E+00 0.  1.
     999900   -1    0    0    0    0 -0.00000000000E+00 -0.00000000000E+00 -0.74505805969E-08  0.93827000000E+00  0.93827000000E+00 0. -1.
     999902    2    1    2    0    0  0.99466487862E-02 -0.21684202066E-01  0.42727280420E-02  0.10196937328E+01  0.10194056661E+01 0.  0.
     999903    2    3    3    0    0 -0.10620573522E+00  0.63614917526E-01 -0.22831943021E-01  0.12756034633E+00  0.20587093254E-01 0.  0.
         14    1    1    2    0    0 -0.99466487862E-02  0.21684202066E-01 -0.42727280420E-02  0.24236267168E-01  0.00000000000E+00 0. -1.
     999901    1    3    3    0    0  0.11615238401E+00 -0.85299119592E-01  0.27104671063E-01  0.89213338650E+00  0.88000000000E+00 0. -1.
        -11    1    4    4    0    0 -0.13646379589E-01  0.16888255810E-01 -0.20833805625E-02  0.21818305520E-01  0.51100000000E-03 0. -1.
         11    1    4    4    0    0 -0.92559355632E-01  0.46726661716E-01 -0.20748562458E-01  0.10574204081E+00  0.51100000000E-03 0.  1.
</event>
<event>
 8    1  0.1161093E+005  0.1043930E+01  0.7957747E-01            NaN
         13   -1    0    0    0    0  0.00000000000E+00  0.00000000000E+00  0.74505805969E-08  0.10566000000E+00  0.10566000000E+00 0. -1.
     999900   -1    0    0    0    0 -0.00000000000E+00 -0.00000000000E+00 -0.74505805969E-08  0.93827000000E+00  0.93827000000E+00 0.  1.
     999902    2    1    2    0    0 -0.40666246364E-02  0.14738359966E-01  0.18557020333E-01  0.10198858803E+01  0.10196024172E+01 0.  0.
     999903    2    3    3    0    0 -0.12857052889E+00  0.14945467072E-01 -0.99683551968E-03  0.13090690506E+00  0.19541653643E-01 0.  0.
         14    1    1    2    0    0  0.40666246364E-02 -0.14738359966E-01 -0.18557020333E-01  0.24044119740E-01  0.00000000000E+00 0.  1.
     999901    1    3    3    0    0  0.12450390425E+00 -0.20710710566E-03  0.19553855853E-01  0.88897897520E+00  0.88000000000E+00 0.  1.
        -11    1    4    4    0    0 -0.91985455244E-01  0.12849329386E-01  0.78326467482E-02  0.93209660004E-01  0.51100000000E-03 0.  1.
         11    1    4    4    0    0 -0.36585073644E-01  0.20961376865E-02 -0.88294822679E-02  0.37697245056E-01  0.51100000000E-03 0. -1.
</event>
<event>
 7    1  0.1161093E+005  0.1043930E+01  0.7957747E-01            NaN
         13   -1    0    0    0    0  0.00000000000E+00  0.00000000000E+00  0.74505805969E-08  0.10566000000E+00  0.10566000000E+00 0. -1.
     999900   -1    0    0    0    0 -0.00000000000E+00 -0.00000000000E+00 -0.74505805969E-08  0.93827000000E+00  0.93827000000E+00 0. -1.
     999903    2    1    2    0    0  0.26790354578E-01 -0.87014718642E-01 -0.63452794299E-01  0.11267071915E+00  0.19471761382E-01 0.  0.
         14    1    1    2    0    0  0.32003781934E-02 -0.34098959711E-01 -0.18076282081E-01  0.38726392136E-01  0.00000000000E+00 0.  1.
     999901    1    1    2    0    0 -0.29990732771E-01  0.12111367835E+00  0.81529076380E-01  0.89253288871E+00  0.88000000000E+00 0.  1.
        -11    1    3    3    0    0  0.16332137411E-01 -0.58327327786E-01 -0.30767865099E-01  0.67939226687E-01  0.51100000000E-03 0.  1.
         11    1    3    3    0    0  0.10458217167E-01 -0.28687390856E-01 -0.32684929199E-01  0.44731492466E-01  0.51100000000E-03 0. -1.
</event>
<event>
 8    1  0.1161093E+005  0.1043930E+01  0.7957747E-01            NaN
         13   -1    0    0    0    0  0.00000000000E+00  0.00000000000E+00  0.74505805969E-08  0.10566000000E+00  0.10566000000E+00 0.  1.
     999900   -1    0    0    0    0 -0.00000000000E+00 -0.00000000000E+00 -0.74505805969E-08  0.93827000000E+00  0.93827000000E+00 0.  1.
     999902    2    1    2    0    0 -0.78159996313E-02  0.67388099638E-02 -0.21007160304E-01  0.10205248255E+01  0.10202563978E+01 0.  0.
     999903    2    3    3    0    0 -0.76329784915E-01  0.10300414365E+00  0.22112708953E-01  0.13158136476E+00  0.19712787256E-01 0.  0.
         14    1    1    2    0    0  0.78159996313E-02 -0.67388099638E-02  0.21007160304E-01  0.23405174513E-01  0.00000000000E+00 0.  1.
     999901    1    3    3    0    0  0.68513785284E-01 -0.96265333683E-01 -0.43119869257E-01  0.88894346073E+00  0.88000000000E+00 0.  1.
        -11    1    4    4    0    0 -0.25598991368E-01  0.26533231491E-01  0.14048261852E-01  0.39458022182E-01  0.51100000000E-03 0.  1.
         11    1    4    4    0    0 -0.50730793547E-01  0.76470912156E-01  0.80644471003E-02  0.92123342579E-01  0.51100000000E-03 0. -1.
</event>
<event>
 8    1  0.1161093E+005  0.1043930E+01  0.7957747E-01            NaN
         13   -1    0    0    0    0  0.00000000000E+00  0.00000000000E+00  0.74505805969E-08  0.10566000000E+00  0.10566000000E+00 0.  1.
     999900   -1    0    0    0    0 -0.00000000000E+00 -0.00000000000E+00 -0.74505805969E-08  0.93827000000E+00  0.93827000000E+00 0.  1.
     999902    2    1    2    0    0 -0.21783927472E-01  0.80077341299E-02  0.72330618243E-02  0.10196199098E+01  0.10193300643E+01 0.  0.
     999903    2    3    3    0    0  0.48567623132E-01 -0.28989887248E-01 -0.11279430747E+00  0.12792224016E+00  0.21031313602E-01 0.  0.
         14    1    1    2    0    0  0.21783927472E-01 -0.80077341299E-02 -0.72330618243E-02  0.24310090197E-01  0.00000000000E+00 0.  1.
     999901    1    3    3    0    0 -0.70351550604E-01  0.36997621378E-01  0.12002736929E+00  0.89169766964E+00  0.88000000000E+00 0. -1.
        -11    1    4    4    0    0  0.20282569502E-01 -0.23317456684E-01 -0.49430133464E-01  0.58298247204E-01  0.51100000000E-03 0. -1.
         11    1    4    4    0    0  0.28285053630E-01 -0.56724305647E-02 -0.63364174005E-01  0.69623992960E-01  0.51100000000E-03 0.  1.
</event>
<event>
 8    1  0.1161093E+005  0.1043930E+01  0.7957747E-01            NaN
         13   -1    0    0    0    0  0.00000000000E+00  0.00000000000E+00  0.74505805969E-08  0.10566000000E+00  0.10566000000E+00 0. -1.
     999900   -1    0    0    0    0 -0.00000000000E+00 -0.00000000000E+00 -0.74505805969E-08  0.93827000000E+00  0.93827000000E+00 0.  1.
     999902    2    1    2    0    0 -0.15548281649E-01  0.59345191799E-02  0.16746025027E-01  0.10203207447E+01  0.10200475603E+01 0.  0.
     999903    2    3    3    0    0 -0.46171171366E-01 -0.12035310195E+00  0.92782611638E-02  0.13074663758E+00  0.19797749674E-01 0.  0.
         14    1    1    2    0    0  0.15548281649E-01 -0.59345191799E-02 -0.16746025027E-01  0.23609255269E-01  0.00000000000E+00 0.  1.
     999901    1    3    3    0    0  0.30622889717E-01  0.12628762113E+00  0.74677638633E-02  0.88957410716E+00  0.88000000000E+00 0. -1.
        -11    1    4    4    0    0 -0.12161529085E-01 -0.26834555192E-01 -0.59936256541E-02  0.30069599457E-01  0.51100000000E-03 0. -1.
         11    1    4    4    0    0 -0.34009642281E-01 -0.93518546760E-01  0.15271886818E-01  0.10067703812E+00  0.51100000000E-03 0.  1.
</event>
<event>
 8    1  0.1161093E+005  0.1043930E+01  0.7957747E-01            NaN
         13   -1    0    0    0    0  0.00000000000E+00  0.00000000000E+00  0.74505805969E-08  0.10566000000E+00  0.10566000000E+00 0. -1.
     999900   -1    0    0    0    0 -0.00000000000E+00 -0.00000000000E+00 -0.74505805969E-08  0.93827000000E+00  0.93827000000E+00 0. -1.
     999902    2    1    2    0    0  0.21526877805E-01  0.91206220319E-02 -0.12443569765E-02  0.10205175965E+01  0.10202490010E+01 0.  0.
     999903    2    3    3    0    0 -0.10027491577E+00 -0.15999318934E-03 -0.78132119920E-01  0.12875892126E+00  0.20473087485E-01 0.  0.
         14    1    1    2    0    0 -0.21526877805E-01 -0.91206220319E-02  0.12443569765E-02  0.23412403520E-01  0.00000000000E+00 0.  1.
     999901    1    3    3    0    0  0.12180179357E+00  0.92806152213E-02  0.76887762944E-01  0.89175867522E+00  0.88000000000E+00 0.  1.
        -11    1    4    4    0    0 -0.34924059009E-01 -0.27219282397E-02 -0.15876835123E-01  0.38463408657E-01  0.51100000000E-03 0.  1.
         11    1    4    4    0    0 -0.65350856759E-01  0.25619350504E-02 -0.62255284798E-01  0.90295512605E-01  0.51100000000E-03 0. -1.
</event>
<event>
 8    1  0.1161093E+005  0.1043930E+01  0.7957747E-01            NaN
         13   -1    0    0    0    0  0.00000000000E+00  0.00000000000E+00  0.74505805969E-08  0.10566000000E+00  0.10566000000E+00 0. -1.
     999900   -1    0    0    0    0 -0.00000000000E+00 -0.00000000000E+00 -0.74505805969E-08  0.93827000000E+00  0.93827000000E+00 0.  1.
     999902    2    1    2    0    0  0.32135350671E-02  0.22726410776E-01 -0.28509597589E-02  0.10208011322E+01  0.10205390766E+01 0.  0.
     999903    2    3    3    0    0 -0.57476384285E-01 -0.74418557869E-01 -0.86544164327E-01  0.12943983410E+00  0.20569923866E-01 0.  0.
         14    1    1    2    0    0 -0.32135350671E-02 -0.22726410776E-01  0.28509597589E-02  0.23128867805E-01  0.00000000000E+00 0. -1.
     999901    1    3    3    0    0  0.60689919353E-01  0.97144968646E-01  0.83693204568E-01  0.89136129809E+00  0.88000000000E+00 0. -1.
        -11    1    4    4    0    0 -0.20076467264E-01 -0.24233489888E-01 -0.16612068633E-01  0.35588600917E-01  0.51100000000E-03 0.  1.
         11    1    4    4    0    0 -0.37399917021E-01 -0.50185067981E-01 -0.69932095694E-01  0.93851233186E-01  0.51100000000E-03 0. -1.
</event>
<event>
 8    1  0.1161093E+005  0.1043930E+01  0.7957747E-01            NaN
         13   -1    0    0    0    0  0.00000000000E+00  0.00000000000E+00  0.74505805969E-08  0.10566000000E+00  0.10566000000E+00 0.  1.
     999900   -1    0    0    0    0 -0.00000000000E+00 -0.00000000000E+00 -0.74505805969E-08  0.93827000000E+00  0.93827000000E+00 0. -1.
     999902    2    1    2    0    0  0.16603476161E-01 -0.15144922095E-01  0.80506545509E-02  0.10200583196E+01  0.10197789556E+01 0.  0.
     999903    2    3    3    0    0  0.12027534109E+00 -0.18640929737E-01 -0.47008038368E-01  0.13225680051E+00  0.21644021715E-01 0.  0.
         14    1    1    2    0    0 -0.16603476161E-01  0.15144922095E-01 -0.80506545509E-02  0.23871680389E-01  0.00000000000E+00 0. -1.
     999901    1    3    3    0    0 -0.10367186493E+00  0.34960076429E-02  0.55058692919E-01  0.88780151910E+00  0.88000000000E+00 0.  1.
        -11    1    4    4    0    0  0.46227326417E-01 -0.24510683985E-02 -0.28025288749E-01  0.54117015572E-01  0.51100000000E-03 0. -1.
         11    1    4    4    0    0  0.74048014670E-01 -0.16189861339E-01 -0.18982749619E-01  0.78139784942E-01  0.51100000000E-03 0.  1.
</event>
<event>
 8    1  0.1161093E+005  0.1043930E+01  0.7957747E-01            NaN
         13   -1    0    0    0    0  0.00000000000E+00  0.00000000000E+00  0.74505805969E-08  0.10566000000E+00  0.10566000000E+00 0.  1.
     999900   -1    0    0    0    0 -0.00000000000E+00 -0.00000000000E+00 -0.74505805969E-08  0.93827000000E+00  0.93827000000E+00 0.  1.
     999902    2    1    2    0    0 -0.36832013883E-02  0.19075920115E-01  0.13252559088E-01  0.10204121977E+01  0.10201411502E+01 0.  0.
     999903    2    3    3    0    0  0.57432519521E-01 -0.13657185825E-01  0.11602096571E+00  0.13172331350E+00  0.20128432971E-01 0.  0.
         14    1    1    2    0    0  0.36832013883E-02 -0.19075920115E-01 -0.13252559088E-01  0.23517802259E-01  0.00000000000E+00 0. -1.
     999901    1    3    3    0    0 -0.61115720909E-01  0.32733105940E-01 -0.10276840662E+00  0.88868888424E+00  0.88000000000E+00 0.  1.
        -11    1    4    4    0    0  0.21342589463E-01 -0.10740400983E-01  0.29743946036E-01  0.38155285152E-01  0.51100000000E-03 0. -1.
         11    1    4    4    0    0  0.36089930058E-01 -0.29167848418E-02  0.86277019671E-01  0.93568028352E-01  0.51100000000E-03 0.  1.
</event>
<event>
 8    1  0.1161093E+005  0.1043930E+01  0.7957747E-01            NaN
         13   -1    0    0    0    0  0.00000000000E+00  0.00000000000E+00  0.74505805969E-08  0.10566000000E+00  0.10566000000E+00 0.  1.
     999900   -1    0    0    0    0 -0.00000000000E+00 -0.00000000000E+00 -0.74505805969E-08  0.93827000000E+00  0.93827000000E+00 0.  1.
     999902    2    1    2    0    0 -0.12705426216E-01 -0.14826497690E-01  0.14579297882E-01  0.10195618073E+01  0.10192705578E+01 0.  0.
     999903    2    3    3    0    0 -0.25363151228E-01  0.10544565890E-01 -0.12354525247E+00  0.12833663918E+00  0.21269373227E-01 0.  0.
         14    1    1    2    0    0  0.12705426216E-01  0.14826497690E-01 -0.14579297882E-01  0.24368192707E-01  0.00000000000E+00 0. -1.
     999901    1    3    3    0    0  0.12657725012E-01 -0.25371063580E-01  0.13812455035E+00  0.89122516811E+00  0.88000000000E+00 0. -1.
        -11    1    4    4    0    0 -0.37211127242E-02  0.83777787410E-02 -0.14649421164E-01  0.17288739629E-01  0.51100000000E-03 0.  1.
         11    1    4    4    0    0 -0.21642038504E-01  0.21667871492E-02 -0.10889583131E+00  0.11104789955E+00  0.51100000000E-03 0. -1.
</event>
<event>
 8    1  0.1161093E+005  0.1043930E+01  0.7957747E-01            NaN
         13   -1    0    0    0    0  0.00000000000E+00  0.00000000000E+00  0.74505805969E-08  0.10566000000E+00  0.10566000000E+00 0. -1.
     999900   -1    0    0    0    0 -0.00000000000E+00 -0.00000000000E+00 -0.74505805969E-08  0.93827000000E+00  0.93827000000E+00 0. -1.
     999902    2    1    2    0    0  0.12959988175E-01 -0.17666444112E-01 -0.98835465378E-02  0.10198935894E+01  0.10196103102E+01 0.  0.
     999903    2    3    3    0    0 -0.10858281279E+00  0.63905840992E-01 -0.63428655551E-02  0.12779537365E+00  0.20426498412E-01 0.  0.
         14    1    1    2    0    0 -0.12959988175E-01  0.17666444112E-01  0.98835465378E-02  0.24036410573E-01  0.00000000000E+00 0. -1.
     999901    1    3    3    0    0  0.12154280097E+00 -0.81572285105E-01 -0.35406809827E-02  0.89209821577E+00  0.88000000000E+00 0.  1.
        -11    1    4    4    0    0 -0.75237844751E-01  0.40767570346E-01 -0.13336727129E-01  0.86607490936E-01  0.51100000000E-03 0. -1.
         11    1    4    4    0    0 -0.33344968039E-01  0.23138270646E-01  0.69938615739E-02  0.41187882718E-01  0.51100000000E-03 0.  1.
</event>
<event>
 8    1  0.1161093E+005  0.1043930E+01  0.7957747E-01            NaN
         13   -1    0    0    0    0  0.00000000000E+00  0.00000000000E+00  0.74505805969E-08  0.10566000000E+00  0.10566000000E+00 0. -1.
     999900   -1    0    0    0    0 -0.00000000000E+00 -0.00000000000E+00 -0.74505805969E-08  0.93827000000E+00  0.93827000000E+00 0.  1.
     999902    2    1    2    0    0  0.59781876598E-02 -0.20519249727E-01  0.10959543285E-01  0.10199114670E+01  0.10196286141E+01 0.  0.
     999903    2    3    3    0    0 -0.85340618778E-01  0.81178278841E-01  0.47875038540E-01  0.12859543693E+00  0.19282969543E-01 0.  0.
         14    1    1    2    0    0 -0.59781876598E-02  0.20519249727E-01 -0.10959543285E-01  0.24018532971E-01  0.00000000000E+00 0.  1.
     999901    1    3    3    0    0  0.91318806438E-01 -0.10169752857E+00 -0.36915495255E-01  0.89131603010E+00  0.88000000000E+00 0.  1.
        -11    1    4    4    0    0 -0.57711019856E-01  0.64819505396E-01  0.29910609367E-01  0.91798887610E-01  0.51100000000E-03 0.  1.
         11    1    4    4    0    0 -0.27629598922E-01  0.16358773445E-01  0.17964429173E-01  0.36796549318E-01  0.51100000000E-03 0. -1.
</event>
<event>
 8    1  0.1161093E+005  0.1043930E+01  0.7957747E-01            NaN
         13   -1    0    0    0    0  0.00000000000E+00  0.00000000000E+00  0.74505805969E-08  0.10566000000E+00  0.10566000000E+00 0. -1.
     999900   -1    0    0    0    0 -0.00000000000E+00 -0.00000000000E+00 -0.74505805969E-08  0.93827000000E+00  0.93827000000E+00 0.  1.
     999902    2    1    2    0    0 -0.17527135335E-01  0.14142049551E-01 -0.14768384044E-02  0.10213605718E+01  0.10211111783E+01 0.  0.
     999903    2    3    3    0    0  0.10199576819E-01  0.36351528546E-01  0.12455914649E+00  0.13167124341E+00  0.19921605641E-01 0.  0.
         14    1    1    2    0    0  0.17527135335E-01 -0.14142049551E-01  0.14768384044E-02  0.22569428221E-01  0.00000000000E+00 0.  1.
     999901    1    3    3    0    0 -0.27726712154E-01 -0.22209478996E-01 -0.12603598490E+00  0.88968932837E+00  0.88000000000E+00 0.  1.
        -11    1    4    4    0    0  0.11603412493E-01  0.98190019221E-02  0.59049407292E-01  0.60976598813E-01  0.51100000000E-03 0. -1.
         11    1    4    4    0    0 -0.14038356736E-02  0.26532526624E-01  0.65509739201E-01  0.70694644598E-01  0.51100000000E-03 0.  1.
</event>
<event>
 8    1  0.1161093E+005  0.1043930E+01  0.7957747E-01            NaN
         13   -1    0    0    0    0  0.00000000000E+00  0.00000000000E+00  0.74505805969E-08  0.10566000000E+00  0.10566000000E+00 0. -1.
     999900   -1    0    0    0    0 -0.00000000000E+00 -0.00000000000E+00 -0.74505805969E-08  0.93827000000E+00  0.93827000000E+00 0.  1.
     999902    2    1    2    0    0 -0.18291086647E-01 -0.24186227752E-01 -0.79475873146E-02  0.10125819282E+01  0.10120965664E+01 0.  0.
     999903    2    3    3    0    0  0.19021999890E-01 -0.48001178038E-01  0.11044215508E+00  0.12355124850E+00  0.20037260614E-01 0.  0.
         14    1    1    2    0    0  0.18291086647E-01  0.24186227752E-01  0.79475873146E-02  0.31348071834E-01  0.00000000000E+00 0.  1.
     999901    1    3    3    0    0 -0.37313086537E-01  0.23814950287E-01 -0.11838974240E+00  0.88903067967E+00  0.88000000000E+00 0.  1.
        -11    1    4    4    0    0  0.18579896250E-01 -0.35706927010E-01  0.64870605129E-01  0.76345620123E-01  0.51100000000E-03 0. -1.
         11    1    4    4    0    0  0.44210364026E-03 -0.12294251028E-01  0.45571549956E-01  0.47205628376E-01  0.51100000000E-03 0.  1.
</event>
<event>
 8    1  0.1161093E+005  0.1043930E+01  0.7957747E-01            NaN
         13   -1    0    0    0    0  0.00000000000E+00  0.00000000000E+00  0.74505805969E-08  0.10566000000E+00  0.10566000000E+00 0. -1.
     999900   -1    0    0    0    0 -0.00000000000E+00 -0.00000000000E+00 -0.74505805969E-08  0.93827000000E+00  0.93827000000E+00 0. -1.
     999902    2    1    2    0    0  0.16444028762E-01  0.11365555074E-01  0.11806496303E-01  0.10207141589E+01  0.10204501060E+01 0.  0.
     999903    2    3    3    0    0  0.10212811038E+00 -0.41016166675E-01  0.72020253341E-01  0.13295782792E+00  0.19452255799E-01 0.  0.
         14    1    1    2    0    0 -0.16444028762E-01 -0.11365555074E-01 -0.11806496303E-01  0.23215841122E-01  0.00000000000E+00 0. -1.
     999901    1    3    3    0    0 -0.85684081618E-01  0.52381721750E-01 -0.60213757038E-01  0.88775633096E+00  0.88000000000E+00 0. -1.
        -11    1    4    4    0    0  0.85624485478E-01 -0.31010742438E-01  0.50839140150E-01  0.10429812056E+00  0.51100000000E-03 0. -1.
         11    1    4    4    0    0  0.16503624902E-01 -0.10005424237E-01  0.21181113191E-01  0.28659707363E-01  0.51100000000E-03 0.  1.
</event>
<event>
 8    1  0.1161093E+005  0.1043930E+01  0.7957747E-01            NaN
         13   -1    0    0    0    0  0.00000000000E+00  0.00000000000E+00  0.74505805969E-08  0.10566000000E+00  0.10566000000E+00 0.  1.
     999900   -1    0    0    0    0 -0.00000000000E+00 -0.00000000000E+00 -0.74505805969E-08  0.93827000000E+00  0.93827000000E+00 0.  1.
     999902    2    1    2    0    0 -0.17024471438E-01  0.64829363490E-02  0.15312421159E-01  0.10201322830E+01  0.10198546679E+01 0.  0.
     999903    2    3    3    0    0 -0.81766206693E-02  0.12964028586E+00 -0.32686725074E-03  0.13137438318E+00  0.19638250151E-01 0.  0.
         14    1    1    2    0    0  0.17024471438E-01 -0.64829363490E-02 -0.15312421159E-01  0.23797716975E-01  0.00000000000E+00 0. -1.
     999901    1    3    3    0    0 -0.88478507690E-02 -0.12315734951E+00  0.15639288410E-01  0.88875789985E+00  0.88000000000E+00 0. -1.
        -11    1    4    4    0    0 -0.90727568957E-02  0.55593136413E-01  0.78286676897E-02  0.56872320972E-01  0.51100000000E-03 0.  1.
         11    1    4    4    0    0  0.89613622635E-03  0.74047149448E-01 -0.81555349404E-02  0.74502062204E-01  0.51100000000E-03 0. -1.
</event>
<event>
 8    1  0.1161093E+005  0.1043930E+01  0.7957747E-01            NaN
         13   -1    0    0    0    0  0.00000000000E+00  0.00000000000E+00  0.74505805969E-08  0.10566000000E+00  0.10566000000E+00 0.  1.
     999900   -1    0    0    0    0 -0.00000000000E+00 -0.00000000000E+00 -0.74505805969E-08  0.93827000000E+00  0.93827000000E+00 0. -1.
     999902    2    1    2    0    0 -0.13261754702E-01 -0.23777382745E-02 -0.18034165007E-01  0.10214186943E+01  0.10211705980E+01 0.  0.
     999903    2    3    3    0    0  0.10680418407E+00 -0.60673330016E-01  0.36402578932E-01  0.12969140147E+00  0.20157508595E-01 0.  0.
         14    1    1    2    0    0  0.13261754702E-01  0.23777382745E-02  0.18034165007E-01  0.22511305706E-01  0.00000000000E+00 0. -1.
     999901    1    3    3    0    0 -0.12006593877E+00  0.58295591741E-01 -0.54436743940E-01  0.89172729282E+00  0.88000000000E+00 0. -1.
        -11    1    4    4    0    0  0.42143507598E-01 -0.19096217962E-01  0.22940463483E-01  0.51645587990E-01  0.51100000000E-03 0. -1.
         11    1    4    4    0    0  0.64660676474E-01 -0.41577112054E-01  0.13462115450E-01  0.78045813483E-01  0.51100000000E-03 0.  1.
</event>
<event>
 8    1  0.1161093E+005  0.1043930E+01  0.7957747E-01            NaN
         13   -1    0    0    0    0  0.00000000000E+00  0.00000000000E+00  0.74505805969E-08  0.10566000000E+00  0.10566000000E+00 0. -1.
     999900   -1    0    0    0    0 -0.00000000000E+00 -0.00000000000E+00 -0.74505805969E-08  0.93827000000E+00  0.93827000000E+00 0. -1.
     999902    2    1    2    0    0  0.22054210593E-01 -0.93490458596E-02 -0.23628854375E-02  0.10198597675E+01  0.10195756810E+01 0.  0.
     999903    2    3    3    0    0 -0.84313083792E-01 -0.52956494502E-01 -0.79461977105E-01  0.12903998732E+00  0.20591894340E-01 0.  0.
         14    1    1    2    0    0 -0.22054210593E-01  0.93490458596E-02  0.23628854375E-02  0.24070232466E-01  0.00000000000E+00 0.  1.
     999901    1    3    3    0    0  0.10636729439E+00  0.43607448643E-01  0.77099091668E-01  0.89081978022E+00  0.88000000000E+00 0.  1.
        -11    1    4    4    0    0 -0.71151439591E-01 -0.51190261391E-01 -0.63326814793E-01  0.10813656555E+00  0.51100000000E-03 0.  1.
         11    1    4    4    0    0 -0.13161644200E-01 -0.17662331114E-02 -0.16135162313E-01  0.20903421761E-01  0.51100000000E-03 0. -1.
</event>
<event>
 8    1  0.1161093E+005  0.1043930E+01  0.7957747E-01            NaN
         13   -1    0    0    0    0  0.00000000000E+00  0.00000000000E+00  0.74505805969E-08  0.10566000000E+00  0.10566000000E+00 0. -1.
     999900   -1    0    0    0    0 -0.00000000000E+00 -0.00000000000E+00 -0.74505805969E-08  0.93827000000E+00  0.93827000000E+00 0. -1.
     999902    2    1    2    0    0  0.17021444698E-01  0.11468269752E-01 -0.11004335526E-01  0.10206416726E+01  0.10203759492E+01 0.  0.
     999903    2    3    3    0    0 -0.82618693212E-01 -0.90170558837E-01  0.33034697254E-01  0.12811825840E+00  0.19142067916E-01 0.  0.
         14    1    1    2    0    0 -0.17021444698E-01 -0.11468269752E-01  0.11004335526E-01  0.23288327357E-01  0.00000000000E+00 0.  1.
     999901    1    3    3    0    0  0.99640137910E-01  0.10163882859E+00 -0.44039032780E-01  0.89252341424E+00  0.88000000000E+00 0.  1.
        -11    1    4    4    0    0 -0.60264166786E-01 -0.53494827986E-01  0.17668328804E-01  0.82497862902E-01  0.51100000000E-03 0. -1.
         11    1    4    4    0    0 -0.22354526426E-01 -0.36675730851E-01  0.15366368451E-01  0.45620395500E-01  0.51100000000E-03 0.  1.
</event>
<event>
 8    1  0.1161093E+005  0.1043930E+01  0.7957747E-01            NaN
         13   -1    0    0    0    0  0.00000000000E+00  0.00000000000E+00  0.74505805969E-08  0.10566000000E+00  0.10566000000E+00 0. -1.
     999900   -1    0    0    0    0 -0.00000000000E+00 -0.00000000000E+00 -0.74505805969E-08  0.93827000000E+00  0.93827000000E+00 0. -1.
     999902    2    1    2    0    0 -0.13973722622E-01 -0.17954878411E-01  0.69758342231E-02  0.10201328395E+01  0.10198552375E+01 0.  0.
     999903    2    3    3    0    0 -0.50667267349E-01 -0.58126829384E-01 -0.10500420379E+00  0.13136980544E+00  0.16918708391E-01 0.  0.
         14    1    1    2    0    0  0.13973722622E-01  0.17954878411E-01 -0.69758342231E-02  0.23797160456E-01  0.00000000000E+00 0.  1.
     999901    1    3    3    0    0  0.36693544726E-01  0.40171950974E-01  0.11198003801E+00  0.88876303410E+00  0.88000000000E+00 0.  1.
        -11    1    4    4    0    0 -0.38862956250E-01 -0.33750267226E-01 -0.62520842245E-01  0.80984731539E-01  0.51100000000E-03 0.  1.
         11    1    4    4    0    0 -0.11804311099E-01 -0.24376562158E-01 -0.42483361546E-01  0.50385073905E-01  0.51100000000E-03 0. -1.
</event>
<event>
 8    1  0.1161093E+005  0.1043930E+01  0.7957747E-01            NaN
         13   -1    0    0    0    0  0.00000000000E+00  0.00000000000E+00  0.74505805969E-08  0.10566000000E+00  0.10566000000E+00 0.  1.
     999900   -1    0    0    0    0 -0.00000000000E+00 -0.00000000000E+00 -0.74505805969E-08  0.93827000000E+00  0.93827000000E+00 0. -1.
     999902    2    1    2    0    0  0.18724792042E-01  0.15873897088E-01  0.47151390578E-02  0.10189333806E+01  0.10186267241E+01 0.  0.
     999903    2    3    3    0    0 -0.20203340292E-01 -0.12892295654E-01 -0.12400320056E+00  0.12825313253E+00  0.22308877306E-01 0.  0.
         14    1    1    2    0    0 -0.18724792042E-01 -0.15873897088E-01 -0.47151390578E-02  0.24996619413E-01  0.00000000000E+00 0.  1.
     999901    1    3    3    0    0  0.38928132334E-01  0.28766192742E-01  0.12871833962E+00  0.89068024806E+00  0.88000000000E+00 0.  1.
        -11    1    4    4    0    0 -0.86894778162E-02 -0.64786506355E-02 -0.10217457220E+00  0.10274913267E+00  0.51100000000E-03 0. -1.
         11    1    4    4    0    0 -0.11513862476E-01 -0.64136450188E-02 -0.21828628362E-01  0.25503999857E-01  0.51100000000E-03 0.  1.
</event>
<event>
 8    1  0.1161093E+005  0.1043930E+01  0.7957747E-01            NaN
         13   -1    0    0    0    0  0.00000000000E+00  0.00000000000E+00  0.74505805969E-08  0.10566000000E+00  0.10566000000E+00 0.  1.
     999900   -1    0    0    0    0 -0.00000000000E+00 -0.00000000000E+00 -0.74505805969E-08  0.93827000000E+00  0.93827000000E+00 0. -1.
     999902    2    1    2    0    0  0.22459351010E-01 -0.55286969745E-02 -0.44674841746E-02  0.10203726794E+01  0.10201007095E+01 0.  0.
     999903    2    3    3    0    0 -0.10988440088E+00  0.15083895032E-01  0.60435777444E-01  0.12787495899E+00  0.19935307752E-01 0.  0.
         14    1    1    2    0    0 -0.22459351010E-01  0.55286969745E-02  0.44674841746E-02  0.23557320579E-01  0.00000000000E+00 0. -1.
     999901    1    3    3    0    0  0.13234375189E+00 -0.20612592007E-01 -0.64903261619E-01  0.89249772043E+00  0.88000000000E+00 0. -1.
        -11    1    4    4    0    0 -0.50239928611E-01  0.10554196338E-01  0.38461208597E-01  0.64148009906E-01  0.51100000000E-03 0.  1.
         11    1    4    4    0    0 -0.59644472265E-01  0.45296986938E-02  0.21974568848E-01  0.63726949080E-01  0.51100000000E-03 0. -1.
</event>
<event>
 8    1  0.1161093E+005  0.1043930E+01  0.7957747E-01            NaN
         13   -1    0    0    0    0  0.00000000000E+00  0.00000000000E+00  0.74505805969E-08  0.10566000000E+00  0.10566000000E+00 0. -1.
     999900   -1    0    0    0    0 -0.00000000000E+00 -0.00000000000E+00 -0.74505805969E-08  0.93827000000E+00  0.93827000000E+00 0.  1.
     999902    2    1    2    0    0 -0.14879667269E-01  0.16723598018E-01 -0.91451617968E-02  0.10197490734E+01  0.10194623364E+01 0.  0.
     999903    2    3    3    0    0  0.10420649671E+00 -0.63648428142E-01  0.29639998077E-01  0.12725511503E+00  0.20130038556E-01 0.  0.
         14    1    1    2    0    0  0.14879667269E-01 -0.16723598018E-01  0.91451617968E-02  0.24180926636E-01  0.00000000000E+00 0. -1.
     999901    1    3    3    0    0 -0.11908616398E+00  0.80372026160E-01 -0.38785159874E-01  0.89249395834E+00  0.88000000000E+00 0.  1.
        -11    1    4    4    0    0  0.32053557390E-01 -0.10042586321E-01  0.43312520670E-02  0.33871890217E-01  0.51100000000E-03 0. -1.
         11    1    4    4    0    0  0.72152939323E-01 -0.53605841822E-01  0.25308746010E-01  0.93383224810E-01  0.51100000000E-03 0.  1.
</event>
<event>
 8    1  0.1161093E+005  0.1043930E+01  0.7957747E-01            NaN
         13   -1    0    0    0    0  0.00000000000E+00  0.00000000000E+00  0.74505805969E-08  0.10566000000E+00  0.10566000000E+00 0. -1.
     999900   -1    0    0    0    0 -0.00000000000E+00 -0.00000000000E+00 -0.74505805969E-08  0.93827000000E+00  0.93827000000E+00 0.  1.
     999902    2    1    2    0    0 -0.15167998549E-01  0.13288584572E-01  0.12486327746E-01  0.10202115886E+01  0.10199358423E+01 0.  0.
     999903    2    3    3    0    0 -0.64042172427E-01  0.11488538128E+00 -0.50226089061E-03  0.13292398165E+00  0.19195883688E-01 0.  0.
         14    1    1    2    0    0  0.15167998549E-01 -0.13288584572E-01 -0.12486327746E-01  0.23718411424E-01  0.00000000000E+00 0.  1.
     999901    1    3    3    0    0  0.48874173878E-01 -0.10159679671E+00  0.12988588637E-01  0.88728760693E+00  0.88000000000E+00 0.  1.
        -11    1    4    4    0    0 -0.32096683004E-01  0.74887125448E-01 -0.43042278277E-02  0.81590845785E-01  0.51100000000E-03 0.  1.
         11    1    4    4    0    0 -0.31945489423E-01  0.39998255830E-01  0.38019669371E-02  0.51333135863E-01  0.51100000000E-03 0. -1.
</event>
<event>
 8    1  0.1161093E+005  0.1043930E+01  0.7957747E-01            NaN
         13   -1    0    0    0    0  0.00000000000E+00  0.00000000000E+00  0.74505805969E-08  0.10566000000E+00  0.10566000000E+00 0.  1.
     999900   -1    0    0    0    0 -0.00000000000E+00 -0.00000000000E+00 -0.74505805969E-08  0.93827000000E+00  0.93827000000E+00 0. -1.
     999902    2    1    2    0    0 -0.62732829082E-02 -0.21877580189E-01  0.12170052955E-01  0.10181212266E+01  0.10177940555E+01 0.  0.
     999903    2    3    3    0    0  0.12259686443E+00 -0.32525477483E-02 -0.29259275164E-01  0.12757600267E+00  0.19466921663E-01 0.  0.
         14    1    1    2    0    0  0.62732829082E-02  0.21877580189E-01 -0.12170052955E-01  0.25808773359E-01  0.00000000000E+00 0. -1.
     999901    1    3    3    0    0 -0.12887014734E+00 -0.18625032440E-01  0.41429328120E-01  0.89054522397E+00  0.88000000000E+00 0.  1.
        -11    1    4    4    0    0  0.40193947707E-01 -0.60886756543E-02 -0.18924824701E-02  0.40699729906E-01  0.51100000000E-03 0. -1.
         11    1    4    4    0    0  0.82402916724E-01  0.28361279060E-02 -0.27366792694E-01  0.86876272765E-01  0.51100000000E-03 0.  1.
</event>
<event>
 8    1  0.1161093E+005  0.1043930E+01  0.7957747E-01            NaN
         13   -1    0    0    0    0  0.00000000000E+00  0.00000000000E+00  0.74505805969E-08  0.10566000000E+00  0.10566000000E+00 0. -1.
     999900   -1    0    0    0    0 -0.00000000000E+00 -0.00000000000E+00 -0.74505805969E-08  0.93827000000E+00  0.93827000000E+00 0. -1.
     999902    2    1    2    0    0 -0.55376893942E-02  0.86214047208E-02 -0.21189052376E-01  0.10203934207E+01  0.10201219351E+01 0.  0.
     999903    2    3    3    0    0  0.11093145431E+00  0.64535633493E-01  0.10119819155E-01  0.13040931534E+00  0.20821701237E-01 0.  0.
         14    1    1    2    0    0  0.55376893942E-02 -0.86214047208E-02  0.21189052376E-01  0.23536579271E-01  0.00000000000E+00 0. -1.
     999901    1    3    3    0    0 -0.11646914370E+00 -0.55914228773E-01 -0.31308871531E-01  0.88998410539E+00  0.88000000000E+00 0.  1.
        -11    1    4    4    0    0  0.99529775777E-01  0.49563950685E-01  0.84619942764E-02  0.11151066291E+00  0.51100000000E-03 0. -1.
         11    1    4    4    0    0  0.11401678528E-01  0.14971682808E-01  0.16578248785E-02  0.18898652431E-01  0.51100000000E-03 0.  1.
</event>
<event>
 8    1  0.1161093E+005  0.1043930E+01  0.7957747E-01            NaN
         13   -1    0    0    0    0  0.00000000000E+00  0.00000000000E+00  0.74505805969E-08  0.10566000000E+00  0.10566000000E+00 0.  1.
     999900   -1    0    0    0    0 -0.00000000000E+00 -0.00000000000E+00 -0.74505805969E-08  0.93827000000E+00  0.93827000000E+00 0. -1.
     999902    2    1    2    0    0 -0.15075196827E-01  0.25110092531E-02  0.17888182151E-01  0.10204022762E+01  0.10201309972E+01 0.  0.
     999903    2    3    3    0    0 -0.80483735415E-01 -0.32140337629E-02 -0.10047247719E+00  0.13005386197E+00  0.18202380639E-01 0.  0.
         14    1    1    2    0    0  0.15075196827E-01 -0.25110092531E-02 -0.17888182151E-01  0.23527723806E-01  0.00000000000E+00 0. -1.
     999901    1    3    3    0    0  0.65408538588E-01  0.57250430160E-02  0.11836065934E+00  0.89034841423E+00  0.88000000000E+00 0.  1.
        -11    1    4    4    0    0 -0.11371965528E-01 -0.68190182498E-02 -0.18623116202E-01  0.22867054640E-01  0.51100000000E-03 0.  1.
         11    1    4    4    0    0 -0.69111769887E-01  0.36049844869E-02 -0.81849360986E-01  0.10718680733E+00  0.51100000000E-03 0. -1.
</event>
<event>
 8    1  0.1161093E+005  0.1043930E+01  0.7957747E-01            NaN
         13   -1    0    0    0    0  0.00000000000E+00  0.00000000000E+00  0.74505805969E-08  0.10566000000E+00  0.10566000000E+00 0.  1.
     999900   -1    0    0    0    0 -0.00000000000E+00 -0.00000000000E+00 -0.74505805969E-08  0.93827000000E+00  0.93827000000E+00 0. -1.
     999902    2    1    2    0    0  0.17264763874E-01 -0.16284544163E-01  0.22044200993E-03  0.10201959096E+01  0.10199197944E+01 0.  0.
     999903    2    3    3    0    0  0.51052272184E-01 -0.94599271922E-01  0.75638383797E-01  0.13286132887E+00  0.19380682701E-01 0.  0.
         14    1    1    2    0    0 -0.17264763874E-01  0.16284544163E-01 -0.22044200993E-03  0.23734090353E-01  0.00000000000E+00 0. -1.
     999901    1    3    3    0    0 -0.33787508310E-01  0.78314727758E-01 -0.75417941787E-01  0.88733458078E+00  0.88000000000E+00 0. -1.
        -11    1    4    4    0    0  0.12938521399E-01 -0.33922321970E-01  0.16190976369E-01  0.39755981947E-01  0.51100000000E-03 0. -1.
         11    1    4    4    0    0  0.38113750785E-01 -0.60676949952E-01  0.59447407428E-01  0.93105346921E-01  0.51100000000E-03 0.  1.
</event>
<event>
 8    1  0.1161093E+005  0.1043930E+01  0.7957747E-01            NaN
         13   -1    0    0    0    0  0.00000000000E+00  0.00000000000E+00  0.74505805969E-08  0.10566000000E+00  0.10566000000E+00 0. -1.
     999900   -1    0    0    0    0 -0.00000000000E+00 -0.00000000000E+00 -0.74505805969E-08  0.93827000000E+00  0.93827000000E+00 0. -1.
     999902    2    1    2    0    0  0.75368323365E-02 -0.96708745681E-02 -0.20804446527E-01  0.10197814048E+01  0.10194954433E+01 0.  0.
     999903    2    3    3    0    0  0.10179721428E+00 -0.49849986900E-01 -0.65888495683E-01  0.13268955374E+00  0.20433545409E-01 0.  0.
         14    1    1    2    0    0 -0.75368323365E-02  0.96708745681E-02  0.20804446527E-01  0.24148595236E-01  0.00000000000E+00 0. -1.
     999901    1    3    3    0    0 -0.94260381944E-01  0.40179112332E-01  0.45084049156E-01  0.88709185103E+00  0.88000000000E+00 0.  1.
        -11    1    4    4    0    0  0.34789126981E-01 -0.21329716094E-01 -0.34286582414E-01  0.53301697904E-01  0.51100000000E-03 0. -1.
         11    1    4    4    0    0  0.67008087299E-01 -0.28520270806E-01 -0.31601913269E-01  0.79387855832E-01  0.51100000000E-03 0.  1.
</event>
<event>
 8    1  0.1161093E+005  0.1043930E+01  0.7957747E-01            NaN
         13   -1    0    0    0    0  0.00000000000E+00  0.00000000000E+00  0.74505805969E-08  0.10566000000E+00  0.10566000000E+00 0. -1.
     999900   -1    0    0    0    0 -0.00000000000E+00 -0.00000000000E+00 -0.74505805969E-08  0.93827000000E+00  0.93827000000E+00 0.  1.
     999902    2    1    2    0    0 -0.20776806592E-01 -0.14549413816E-01  0.21295262213E-01  0.10108112843E+01  0.10102685797E+01 0.  0.
     999903    2    3    3    0    0 -0.89993724055E-01 -0.16238610696E-01  0.84329730415E-01  0.12584395204E+00  0.19042951095E-01 0.  0.
         14    1    1    2    0    0  0.20776806592E-01  0.14549413816E-01 -0.21295262213E-01  0.33118715665E-01  0.00000000000E+00 0.  1.
     999901    1    3    3    0    0  0.69216917463E-01  0.16891968800E-02 -0.63034468202E-01  0.88496733230E+00  0.88000000000E+00 0.  1.
        -11    1    4    4    0    0 -0.58937518907E-01 -0.95865844443E-02  0.42379760513E-01  0.73224578923E-01  0.51100000000E-03 0.  1.
         11    1    4    4    0    0 -0.31056205148E-01 -0.66520262514E-02  0.41949969902E-01  0.52619373117E-01  0.51100000000E-03 0. -1.
</event>
<event>
 8    1  0.1161093E+005  0.1043930E+01  0.7957747E-01            NaN
         13   -1    0    0    0    0  0.00000000000E+00  0.00000000000E+00  0.74505805969E-08  0.10566000000E+00  0.10566000000E+00 0.  1.
     999900   -1    0    0    0    0 -0.00000000000E+00 -0.00000000000E+00 -0.74505805969E-08  0.93827000000E+00  0.93827000000E+00 0. -1.
     999902    2    1    2    0    0 -0.23453831698E-02 -0.22079633164E-01 -0.76640728216E-02  0.10204406612E+01  0.10201702770E+01 0.  0.
     999903    2    3    3    0    0 -0.34995566524E-01  0.65596158328E-01  0.10288181700E+00  0.12860352777E+00  0.20655590580E-01 0.  0.
         14    1    1    2    0    0  0.23453831698E-02  0.22079633164E-01  0.76640728216E-02  0.23489338754E-01  0.00000000000E+00 0. -1.
     999901    1    3    3    0    0  0.32650183354E-01 -0.87675791492E-01 -0.11054588982E+00  0.89183713347E+00  0.88000000000E+00 0. -1.
        -11    1    4    4    0    0  0.26727134495E-02  0.63989951565E-02  0.80987158905E-02  0.10674308234E-01  0.51100000000E-03 0.  1.
         11    1    4    4    0    0 -0.37668279973E-01  0.59197163172E-01  0.94783101111E-01  0.11792921954E+00  0.51100000000E-03 0. -1.
</event>
<event>
 8    1  0.1161093E+005  0.1043930E+01  0.7957747E-01            NaN
         13   -1    0    0    0    0  0.00000000000E+00  0.00000000000E+00  0.74505805969E-08  0.10566000000E+00  0.10566000000E+00 0. -1.
     999900   -1    0    0    0    0 -0.00000000000E+00 -0.00000000000E+00 -0.74505805969E-08  0.93827000000E+00  0.93827000000E+00 0.  1.
     999902    2    1    2    0    0  0.19052118223E-01 -0.28059555887E-02 -0.10943295529E-01  0.10217802300E+01  0.10215401245E+01 0.  0.
     999903    2    3    3    0    0  0.80696375650E-02  0.97530974972E-01 -0.87173726612E-01  0.13273625291E+00  0.21029600467E-01 0.  0.
         14    1    1    2    0    0 -0.19052118223E-01  0.28059555887E-02  0.10943295529E-01  0.22149770034E-01  0.00000000000E+00 0. -1.
     999901    1    3    3    0    0  0.10982480658E-01 -0.10033693056E+00  0.76230431082E-01  0.88904397706E+00  0.88000000000E+00 0. -1.
        -11    1    4    4    0    0  0.44725739975E-02  0.12748187203E-01 -0.21643398228E-01  0.25518973392E-01  0.51100000000E-03 0.  1.
         11    1    4    4    0    0  0.35970635675E-02  0.84782787769E-01 -0.65530328384E-01  0.10721727952E+00  0.51100000000E-03 0. -1.
</event>
<event>
 8    1  0.1161093E+005  0.1043930E+01  0.7957747E-01            NaN
         13   -1    0    0    0    0  0.00000000000E+00  0.00000000000E+00  0.74505805969E-08  0.10566000000E+00  0.10566000000E+00 0. -1.
     999900   -1    0    0    0    0 -0.00000000000E+00 -0.00000000000E+00 -0.74505805969E-08  0.93827000000E+00  0.93827000000E+00 0.  1.
     999902    2    1    2    0    0  0.17124947657E-01 -0.48330678707E-02  0.18729559532E-02  0.10260378134E+01  0.10258817984E+01 0.  0.
     999903    2    3    3    0    0  0.53854658016E-01 -0.45293307338E-01 -0.11525759967E+00  0.13659660137E+00  0.20555032086E-01 0.  0.
         14    1    1    2    0    0 -0.17124947657E-01  0.48330678707E-02 -0.18729559532E-02  0.17892186599E-01  0.00000000000E+00 0.  1.
     999901    1    3    3    0    0 -0.36729710359E-01  0.40460239467E-01  0.11713055562E+00  0.88944121203E+00  0.88000000000E+00 0. -1.
        -11    1    4    4    0    0  0.12624417539E-01 -0.13229880409E-01 -0.48484606935E-01  0.51821075679E-01  0.51100000000E-03 0.  1.
         11    1    4    4    0    0  0.41230240476E-01 -0.32063426929E-01 -0.66772992735E-01  0.84775525690E-01  0.51100000000E-03 0. -1.
</event>
<event>
 8    1  0.1161093E+005  0.1043930E+01  0.7957747E-01            NaN
         13   -1    0    0    0    0  0.00000000000E+00  0.00000000000E+00  0.74505805969E-08  0.10566000000E+00  0.10566000000E+00 0.  1.
     999900   -1    0    0    0    0 -0.00000000000E+00 -0.00000000000E+00 -0.74505805969E-08  0.93827000000E+00  0.93827000000E+00 0. -1.
     999902    2    1    2    0    0 -0.18704274253E-02  0.27155353934E-02  0.22985445580E-01  0.10207092476E+01  0.10204450818E+01 0.  0.
     999903    2    3    3    0    0 -0.12080325905E+00  0.23383282851E-02 -0.43945770774E-01  0.13018976530E+00  0.20475571880E-01 0.  0.
         14    1    1    2    0    0  0.18704274253E-02 -0.27155353934E-02 -0.22985445580E-01  0.23220752351E-01  0.00000000000E+00 0. -1.
     999901    1    3    3    0    0  0.11893283162E+00  0.37720710826E-03  0.66931216353E-01  0.89051948235E+00  0.88000000000E+00 0.  1.
        -11    1    4    4    0    0 -0.50972452027E-01  0.10947246642E-01 -0.16868965818E-01  0.54798322998E-01  0.51100000000E-03 0.  1.
         11    1    4    4    0    0 -0.69830807022E-01 -0.86089183564E-02 -0.27076804956E-01  0.75391442301E-01  0.51100000000E-03 0. -1.
</event>
<event>
 8    1  0.1161093E+005  0.1043930E+01  0.7957747E-01            NaN
         13   -1    0    0    0    0  0.00000000000E+00  0.00000000000E+00  0.74505805969E-08  0.10566000000E+00  0.10566000000E+00 0.  1.
     999900   -1    0    0    0    0 -0.00000000000E+00 -0.00000000000E+00 -0.74505805969E-08  0.93827000000E+00  0.93827000000E+00 0. -1.
     999902    2    1    2    0    0  0.24003117041E-01 -0.30463983354E-02  0.35569148592E-02  0.10194742887E+01  0.10191809180E+01 0.  0.
     999903    2    3    3    0    0 -0.32606931580E-01 -0.37114395435E-01  0.11787773313E+00  0.12962341610E+00  0.21595825897E-01 0.  0.
         14    1    1    2    0    0 -0.24003117041E-01  0.30463983354E-02 -0.35569148592E-02  0.24455711272E-01  0.00000000000E+00 0.  1.
     999901    1    3    3    0    0  0.56610048622E-01  0.34067997099E-01 -0.11432081827E+00  0.88985087263E+00  0.88000000000E+00 0. -1.
        -11    1    4    4    0    0 -0.24226987032E-01 -0.14003191615E-01  0.76897544505E-01  0.81832327035E-01  0.51100000000E-03 0. -1.
         11    1    4    4    0    0 -0.83799445484E-02 -0.23111203820E-01  0.40980188629E-01  0.47791089061E-01  0.51100000000E-03 0.  1.
</event>
<event>
 8    1  0.1161093E+005  0.1043930E+01  0.7957747E-01            NaN
         13   -1    0    0    0    0  0.00000000000E+00  0.00000000000E+00  0.74505805969E-08  0.10566000000E+00  0.10566000000E+00 0. -1.
     999900   -1    0    0    0    0 -0.00000000000E+00 -0.00000000000E+00 -0.74505805969E-08  0.93827000000E+00  0.93827000000E+00 0. -1.
     999902    2    1    2    0    0 -0.19887144275E-01  0.95970158796E-02  0.68802600988E-02  0.10208012473E+01  0.10205391944E+01 0.  0.
     999903    2    3    3    0    0 -0.47784065782E-01  0.12252492938E+00 -0.26061112819E-02  0.13309581019E+00  0.20298463328E-01 0.  0.
         14    1    1    2    0    0  0.19887144275E-01 -0.95970158796E-02 -0.68802600988E-02  0.23128752673E-01  0.00000000000E+00 0.  1.
     999901    1    3    3    0    0  0.27896921507E-01 -0.11292791350E+00  0.94863713806E-02  0.88770543713E+00  0.88000000000E+00 0.  1.
        -11    1    4    4    0    0 -0.43326826117E-02  0.26430998914E-01  0.54089074802E-02  0.27329237884E-01  0.51100000000E-03 0. -1.
         11    1    4    4    0    0 -0.43451383170E-01  0.96093930462E-01 -0.80150187621E-02  0.10576657231E+00  0.51100000000E-03 0.  1.
</event>
<event>
 8    1  0.1161093E+005  0.1043930E+01  0.7957747E-01            NaN
         13   -1    0    0    0    0  0.00000000000E+00  0.00000000000E+00  0.74505805969E-08  0.10566000000E+00  0.10566000000E+00 0. -1.
     999900   -1    0    0    0    0 -0.00000000000E+00 -0.00000000000E+00 -0.74505805969E-08  0.93827000000E+00  0.93827000000E+00 0.  1.
     999902    2    1    2    0    0 -0.22717818293E-01 -0.20046189020E-02 -0.32308980351E-02  0.10208961886E+01  0.10206363071E+01 0.  0.
     999903    2    3    3    0    0 -0.21888995925E-01  0.64940052298E-01 -0.11072560635E+00  0.13183073081E+00  0.20563150275E-01 0.  0.
         14    1    1    2    0    0  0.22717818293E-01  0.20046189020E-02  0.32308980351E-02  0.23033811388E-01  0.00000000000E+00 0.  1.
     999901    1    3    3    0    0 -0.82882236747E-03 -0.66944671200E-01  0.10749470831E+00  0.88906545781E+00  0.88000000000E+00 0. -1.
        -11    1    4    4    0    0  0.19720597131E-02  0.23500671020E-01 -0.40510241049E-01  0.46877620554E-01  0.51100000000E-03 0.  1.
         11    1    4    4    0    0 -0.23861055639E-01  0.41439381278E-01 -0.70215365297E-01  0.84953110253E-01  0.51100000000E-03 0. -1.
</event>
<event>
 8    1  0.1161093E+005  0.1043930E+01  0.7957747E-01            NaN
         13   -1    0    0    0    0  0.00000000000E+00  0.00000000000E+00  0.74505805969E-08  0.10566000000E+00  0.10566000000E+00 0. -1.
     999900   -1    0    0    0    0 -0.00000000000E+00 -0.00000000000E+00 -0.74505805969E-08  0.93827000000E+00  0.93827000000E+00 0. -1.
     999902    2    1    2    0    0 -0.17791978333E-01 -0.94659141806E-02  0.12610879697E-01  0.10201562264E+01  0.10198791762E+01 0.  0.
     999903    2    3    3    0    0 -0.99209867590E-01  0.39003975082E-01  0.76664984981E-01  0.13275489033E+00  0.19555896446E-01 0.  0.
         14    1    1    2    0    0  0.17791978333E-01  0.94659141806E-02 -0.12610879697E-01  0.23773773596E-01  0.00000000000E+00 0.  1.
     999901    1    3    3    0    0  0.81417889256E-01 -0.48469889263E-01 -0.64054105285E-01  0.88740133607E+00  0.88000000000E+00 0.  1.
        -11    1    4    4    0    0 -0.81196848781E-01  0.34189698408E-01  0.53735627338E-01  0.10319710507E+00  0.51100000000E-03 0.  1.
         11    1    4    4    0    0 -0.18013018808E-01  0.48142766741E-02  0.22929357644E-01  0.29557785259E-01  0.51100000000E-03 0. -1.
</event>
<event>
 8    1  0.1161093E+005  0.1043930E+01  0.7957747E-01            NaN
         13   -1    0    0    0    0  0.00000000000E+00  0.00000000000E+00  0.74505805969E-08  0.10566000000E+00  0.10566000000E+00 0. -1.
     999900   -1    0    0    0    0 -0.00000000000E+00 -0.00000000000E+00 -0.74505805969E-08  0.93827000000E+00  0.93827000000E+00 0.  1.
     999902    2    1    2    0    0 -0.13854077879E-01 -0.52229382497E-03 -0.19299478530E-01  0.10201670428E+01  0.10198902475E+01 0.  0.
     999903    2    3    3    0    0 -0.37447340070E-01  0.50933082219E-01 -0.11479121656E+00  0.13319299029E+00  0.23808971415E-01 0.  0.
         14    1    1    2    0    0  0.13854077879E-01  0.52229382497E-03  0.19299478530E-01  0.23762957229E-01  0.00000000000E+00 0. -1.
     999901    1    3    3    0    0  0.23593262191E-01 -0.51455376044E-01  0.95491738032E-01  0.88697405248E+00  0.88000000000E+00 0. -1.
        -11    1    4    4    0    0 -0.15992759778E-01  0.27117259561E-01 -0.34341257819E-01  0.46590742010E-01  0.51100000000E-03 0. -1.
         11    1    4    4    0    0 -0.21454580292E-01  0.23815822658E-01 -0.80449958742E-01  0.86602248279E-01  0.51100000000E-03 0.  1.
</event>
<event>
 8    1  0.1161093E+005  0.1043930E+01  0.7957747E-01            NaN
         13   -1    0    0    0    0  0.00000000000E+00  0.00000000000E+00  0.74505805969E-08  0.10566000000E+00  0.10566000000E+00 0. -1.
     999900   -1    0    0    0    0 -0.00000000000E+00 -0.00000000000E+00 -0.74505805969E-08  0.93827000000E+00  0.93827000000E+00 0. -1.
     999902    2    1    2    0    0 -0.16875845574E-01 -0.13296332448E-01 -0.80566971315E-02  0.10209844778E+01  0.10207266073E+01 0.  0.
     999903    2    3    3    0    0  0.98247171065E-01 -0.33253665015E-01  0.73981073156E-01  0.12947912176E+00  0.23093958700E-01 0.  0.
         14    1    1    2    0    0  0.16875845574E-01  0.13296332448E-01  0.80566971315E-02  0.22945522201E-01  0.00000000000E+00 0.  1.
     999901    1    3    3    0    0 -0.11512301664E+00  0.19957332567E-01 -0.82037770288E-01  0.89150535603E+00  0.88000000000E+00 0. -1.
        -11    1    4    4    0    0  0.39998879579E-01 -0.22865519660E-01  0.41341407009E-01  0.61904082348E-01  0.51100000000E-03 0.  1.
         11    1    4    4    0    0  0.58248291486E-01 -0.10388145355E-01  0.32639666147E-01  0.67575039417E-01  0.51100000000E-03 0. -1.
</event>
<event>
 8    1  0.1161093E+005  0.1043930E+01  0.7957747E-01            NaN
         13   -1    0    0    0    0  0.00000000000E+00  0.00000000000E+00  0.74505805969E-08  0.10566000000E+00  0.10566000000E+00 0.  1.
     999900   -1    0    0    0    0 -0.00000000000E+00 -0.00000000000E+00 -0.74505805969E-08  0.93827000000E+00  0.93827000000E+00 0.  1.
     999902    2    1    2    0    0 -0.10629031622E-02  0.13547262133E-01  0.19542799311E-01  0.10201270783E+01  0.10198493403E+01 0.  0.
     999903    2    3    3    0    0 -0.27352744597E-01 -0.12424390101E+00 -0.21030702830E-02  0.12875392187E+00  0.19708625448E-01 0.  0.
         14    1    1    2    0    0  0.10629031622E-02 -0.13547262133E-01 -0.19542799311E-01  0.23802921656E-01  0.00000000000E+00 0. -1.
     999901    1    3    3    0    0  0.26289841435E-01  0.13779116315E+00  0.21645869594E-01  0.89137315647E+00  0.88000000000E+00 0.  1.
        -11    1    4    4    0    0 -0.19492601566E-01 -0.88036859112E-01 -0.10442631262E-01  0.90773122381E-01  0.51100000000E-03 0. -1.
         11    1    4    4    0    0 -0.78601430316E-02 -0.36207041902E-01  0.83395609794E-02  0.37980799493E-01  0.51100000000E-03 0.  1.
</event>
<event>
 8    1  0.1161093E+005  0.1043930E+01  0.7957747E-01            NaN
         13   -1    0    0    0    0  0.00000000000E+00  0.00000000000E+00  0.74505805969E-08  0.10566000000E+00  0.10566000000E+00 0. -1.
     999900   -1    0    0    0    0 -0.00000000000E+00 -0.00000000000E+00 -0.74505805969E-08  0.93827000000E+00  0.93827000000E+00 0. -1.
     999902    2    1    2    0    0 -0.28108208678E-02 -0.11692345815E-01 -0.14241470024E-01  0.10252904954E+01  0.10251210508E+01 0.  0.
     999903    2    3    3    0    0 -0.11316583976E+00 -0.32585573555E-01 -0.66330798905E-01  0.13662404762E+00  0.19950654414E-01 0.  0.
         14    1    1    2    0    0  0.28108208678E-02  0.11692345815E-01  0.14241470024E-01  0.18639504635E-01  0.00000000000E+00 0. -1.
     999901    1    3    3    0    0  0.11035501890E+00  0.20893227741E-01  0.52089328881E-01  0.88866644774E+00  0.88000000000E+00 0.  1.
        -11    1    4    4    0    0 -0.70957116670E-01 -0.23062160229E-01 -0.31146944276E-01  0.80852760616E-01  0.51100000000E-03 0. -1.
         11    1    4    4    0    0 -0.42208723095E-01 -0.95234133263E-02 -0.35183854629E-01  0.55771287005E-01  0.51100000000E-03 0.  1.
</event>
<event>
 8    1  0.1161093E+005  0.1043930E+01  0.7957747E-01            NaN
         13   -1    0    0    0    0  0.00000000000E+00  0.00000000000E+00  0.74505805969E-08  0.10566000000E+00  0.10566000000E+00 0. -1.
     999900   -1    0    0    0    0 -0.00000000000E+00 -0.00000000000E+00 -0.74505805969E-08  0.93827000000E+00  0.93827000000E+00 0. -1.
     999902    2    1    2    0    0 -0.17661881830E-01  0.29913696451E-02  0.16238540930E-01  0.10197518989E+01  0.10194652298E+01 0.  0.
     999903    2    3    3    0    0 -0.12830361648E+00  0.24211051270E-01 -0.67169660732E-02  0.13227298441E+00  0.20075651054E-01 0.  0.
         14    1    1    2    0    0  0.17661881830E-01 -0.29913696451E-02 -0.16238540930E-01  0.24178101117E-01  0.00000000000E+00 0.  1.
     999901    1    3    3    0    0  0.11064173465E+00 -0.21219681625E-01  0.22955507003E-01  0.88747891447E+00  0.88000000000E+00 0. -1.
        -11    1    4    4    0    0 -0.67608938019E-01  0.27068420289E-02 -0.51419404563E-02  0.67860122064E-01  0.51100000000E-03 0. -1.
         11    1    4    4    0    0 -0.60694678462E-01  0.21504209241E-01 -0.15750256169E-02  0.64412862344E-01  0.51100000000E-03 0.  1.
</event>
<event>
 8    1  0.1161093E+005  0.1043930E+01  0.7957747E-01            NaN
         13   -1    0    0    0    0  0.00000000000E+00  0.00000000000E+00  0.74505805969E-08  0.10566000000E+00  0.10566000000E+00 0. -1.
     999900   -1    0    0    0    0 -0.00000000000E+00 -0.00000000000E+00 -0.74505805969E-08  0.93827000000E+00  0.93827000000E+00 0. -1.
     999902    2    1    2    0    0  0.56277109530E-03 -0.17658930849E-01 -0.14162543682E-01  0.10212864094E+01  0.10210353559E+01 0.  0.
     999903    2    3    3    0    0 -0.30474461119E-01 -0.45969301977E-01 -0.12042223476E+00  0.13389928487E+00  0.19637575175E-01 0.  0.
         14    1    1    2    0    0 -0.56277109530E-03  0.17658930849E-01  0.14162543682E-01  0.22643590562E-01  0.00000000000E+00 0. -1.
     999901    1    3    3    0    0  0.31037232214E-01  0.28310371128E-01  0.10625969108E+00  0.88738712457E+00  0.88000000000E+00 0.  1.
        -11    1    4    4    0    0 -0.14373872109E-01 -0.30615429811E-01 -0.52766292450E-01  0.62677392111E-01  0.51100000000E-03 0. -1.
         11    1    4    4    0    0 -0.16100589011E-01 -0.15353872166E-01 -0.67655942314E-01  0.71221892760E-01  0.51100000000E-03 0.  1.
</event>
<event>
 8    1  0.1161093E+005  0.1043930E+01  0.7957747E-01            NaN
         13   -1    0    0    0    0  0.00000000000E+00  0.00000000000E+00  0.74505805969E-08  0.10566000000E+00  0.10566000000E+00 0.  1.
     999900   -1    0    0    0    0 -0.00000000000E+00 -0.00000000000E+00 -0.74505805969E-08  0.93827000000E+00  0.93827000000E+00 0.  1.
     999902    2    1    2    0    0  0.56176171224E-04  0.11390644562E-01  0.20911058525E-01  0.10201177698E+01  0.10198398119E+01 0.  0.
     999903    2    3    3    0    0  0.73158732051E-02  0.10980729335E+00 -0.66848645965E-01  0.13026367742E+00  0.19715996394E-01 0.  0.
         14    1    1    2    0    0 -0.56176171224E-04 -0.11390644562E-01 -0.20911058525E-01  0.23812230217E-01  0.00000000000E+00 0. -1.
     999901    1    3    3    0    0 -0.72596970339E-02 -0.98416648791E-01  0.87759704490E-01  0.88985409236E+00  0.88000000000E+00 0. -1.
        -11    1    4    4    0    0  0.79474822714E-02  0.56893405535E-01 -0.45152713861E-01  0.73068808378E-01  0.51100000000E-03 0. -1.
         11    1    4    4    0    0 -0.63160906628E-03  0.52913887818E-01 -0.21695932104E-01  0.57194869043E-01  0.51100000000E-03 0.  1.
</event>
<event>
 8    1  0.1161093E+005  0.1043930E+01  0.7957747E-01            NaN
         13   -1    0    0    0    0  0.00000000000E+00  0.00000000000E+00  0.74505805969E-08  0.10566000000E+00  0.10566000000E+00 0.  1.
     999900   -1    0    0    0    0 -0.00000000000E+00 -0.00000000000E+00 -0.74505805969E-08  0.93827000000E+00  0.93827000000E+00 0.  1.
     999902    2    1    2    0    0  0.12741294218E-01  0.37155248252E-02  0.19688200712E-01  0.10201861387E+01  0.10199097934E+01 0.  0.
     999903    2    3    3    0    0  0.10180850366E+00 -0.75087029074E-01 -0.24748100836E-01  0.13107568705E+00  0.23776751033E-01 0.  0.
         14    1    1    2    0    0 -0.12741294218E-01 -0.37155248252E-02 -0.19688200712E-01  0.23743861319E-01  0.00000000000E+00 0. -1.
     999901    1    3    3    0    0 -0.89067209438E-01  0.78802553900E-01  0.44436301548E-01  0.88911045163E+00  0.88000000000E+00 0. -1.
        -11    1    4    4    0    0  0.45148054406E-01 -0.33488292428E-01  0.97733560668E-03  0.56223027776E-01  0.51100000000E-03 0. -1.
         11    1    4    4    0    0  0.56660449250E-01 -0.41598736646E-01 -0.25725436443E-01  0.74852659277E-01  0.51100000000E-03 0.  1.
</event>
<event>
 8    1  0.1161093E+005  0.1043930E+01  0.7957747E-01            NaN
         13   -1    0    0    0    0  0.00000000000E+00  0.00000000000E+00  0.74505805969E-08  0.10566000000E+00  0.10566000000E+00 0.  1.
     999900   -1    0    0    0    0 -0.00000000000E+00 -0.00000000000E+00 -0.74505805969E-08  0.93827000000E+00  0.93827000000E+00 0. -1.
     999902    2    1    2    0    0 -0.19205431100E-01  0.88959978966E-02  0.10686603323E-01  0.10202194358E+01  0.10199438741E+01 0.  0.
     999903    2    3    3    0    0  0.27676387879E-01 -0.12364491808E+00  0.14984496373E-01  0.12904971505E+00  0.19371257303E-01 0.  0.
         14    1    1    2    0    0  0.19205431100E-01 -0.88959978966E-02 -0.10686603323E-01  0.23710564162E-01  0.00000000000E+00 0. -1.
     999901    1    3    3    0    0 -0.46881818979E-01  0.13254091598E+00 -0.42978930499E-02  0.89116972079E+00  0.88000000000E+00 0.  1.
        -11    1    4    4    0    0 -0.71820896007E-03 -0.12879743053E-01  0.63205480127E-02  0.14374075741E-01  0.51100000000E-03 0.  1.
         11    1    4    4    0    0  0.28394596839E-01 -0.11076517503E+00  0.86639483599E-02  0.11467563931E+00  0.51100000000E-03 0. -1.
</event>
<event>
 7    1  0.1161093E+005  0.1043930E+01  0.7957747E-01            NaN
         13   -1    0    0    0    0  0.00000000000E+00  0.00000000000E+00  0.74505805969E-08  0.10566000000E+00  0.10566000000E+00 0.  1.
     999900   -1    0    0    0    0 -0.00000000000E+00 -0.00000000000E+00 -0.74505805969E-08  0.93827000000E+00  0.93827000000E+00 0. -1.
     999903    2    1    2    0    0 -0.71042155578E-01 -0.42423521452E-01 -0.55816449893E-01  0.10185404037E+00  0.20298433928E-01 0.  0.
         14    1    1    2    0    0  0.33611295359E-01 -0.36454758757E-03 -0.43159364099E-01  0.54704504203E-01  0.00000000000E+00 0. -1.
     999901    1    1    2    0    0  0.37430860219E-01  0.42788069040E-01  0.98975813991E-01  0.88737145543E+00  0.88000000000E+00 0.  1.
        -11    1    3    3    0    0 -0.37597201491E-01 -0.29725983155E-01 -0.41202192154E-01  0.63206529677E-01  0.51100000000E-03 0. -1.
         11    1    3    3    0    0 -0.33444954087E-01 -0.12697538297E-01 -0.14614257739E-01  0.38647510695E-01  0.51100000000E-03 0.  1.
</event>
<event>
 8    1  0.1161093E+005  0.1043930E+01  0.7957747E-01            NaN
         13   -1    0    0    0    0  0.00000000000E+00  0.00000000000E+00  0.74505805969E-08  0.10566000000E+00  0.10566000000E+00 0.  1.
     999900   -1    0    0    0    0 -0.00000000000E+00 -0.00000000000E+00 -0.74505805969E-08  0.93827000000E+00  0.93827000000E+00 0.  1.
     999902    2    1    2    0    0  0.55299855830E-02  0.31635343746E-02  0.23357019269E-01  0.10197196915E+01  0.10194322489E+01 0.  0.
     999903    2    3    3    0    0  0.12232522179E+00  0.16342499975E-01 -0.35342774797E-01  0.12996664811E+00  0.20289916185E-01 0.  0.
         14    1    1    2    0    0 -0.55299855830E-02 -0.31635343746E-02 -0.23357019269E-01  0.24210308537E-01  0.00000000000E+00 0. -1.
     999901    1    3    3    0    0 -0.11679523621E+00 -0.13178965601E-01  0.58699794066E-01  0.88975304335E+00  0.88000000000E+00 0. -1.
        -11    1    4    4    0    0  0.52492119658E-01  0.88485608813E-02 -0.25557974409E-01  0.59052441378E-01  0.51100000000E-03 0. -1.
         11    1    4    4    0    0  0.69833102133E-01  0.74939390938E-02 -0.97848003882E-02  0.70914206731E-01  0.51100000000E-03 0.  1.
</event>
<event>
 8    1  0.1161093E+005  0.1043930E+01  0.7957747E-01            NaN
         13   -1    0    0    0    0  0.00000000000E+00  0.00000000000E+00  0.74505805969E-08  0.10566000000E+00  0.10566000000E+00 0.  1.
     999900   -1    0    0    0    0 -0.00000000000E+00 -0.00000000000E+00 -0.74505805969E-08  0.93827000000E+00  0.93827000000E+00 0.  1.
     999902    2    1    2    0    0 -0.21410244569E-01  0.34552742283E-02 -0.84999112193E-02  0.10206365249E+01  0.10203706826E+01 0.  0.
     999903    2    3    3    0    0  0.84898791925E-01 -0.27464390826E-01 -0.91838172123E-01  0.12979259766E+00  0.21207803170E-01 0.  0.
         14    1    1    2    0    0  0.21410244569E-01 -0.34552742283E-02  0.84999112193E-02  0.23293475122E-01  0.00000000000E+00 0.  1.
     999901    1    3    3    0    0 -0.10630903649E+00  0.30919665054E-01  0.83338260904E-01  0.89084392722E+00  0.88000000000E+00 0. -1.
        -11    1    4    4    0    0  0.45893057106E-01 -0.12247080398E-01 -0.63210919259E-01  0.79069874816E-01  0.51100000000E-03 0. -1.
         11    1    4    4    0    0  0.39005734819E-01 -0.15217310428E-01 -0.28627252864E-01  0.50722722847E-01  0.51100000000E-03 0.  1.
</event>
<event>
 8    1  0.1161093E+005  0.1043930E+01  0.7957747E-01            NaN
         13   -1    0    0    0    0  0.00000000000E+00  0.00000000000E+00  0.74505805969E-08  0.10566000000E+00  0.10566000000E+00 0. -1.
     999900   -1    0    0    0    0 -0.00000000000E+00 -0.00000000000E+00 -0.74505805969E-08  0.93827000000E+00  0.93827000000E+00 0.  1.
     999902    2    1    2    0    0 -0.46679863442E-02  0.23262567906E-02  0.23286321850E-01  0.10200667573E+01  0.10197875931E+01 0.  0.
     999903    2    3    3    0    0  0.12116131850E+00  0.16543999840E-01 -0.36133411958E-01  0.12901913626E+00  0.19660748480E-01 0.  0.
         14    1    1    2    0    0  0.46679863442E-02 -0.23262567906E-02 -0.23286321850E-01  0.23863242707E-01  0.00000000000E+00 0.  1.
     999901    1    3    3    0    0 -0.12582930485E+00 -0.14217743049E-01  0.59419733809E-01  0.89104762103E+00  0.88000000000E+00 0. -1.
        -11    1    4    4    0    0  0.42737507941E-01  0.13908220242E-01 -0.79659156382E-02  0.45647016423E-01  0.51100000000E-03 0. -1.
         11    1    4    4    0    0  0.78423810561E-01  0.26357795977E-02 -0.28167496320E-01  0.83372119842E-01  0.51100000000E-03 0.  1.
</event>
<event>
 8    1  0.1161093E+005  0.1043930E+01  0.7957747E-01            NaN
         13   -1    0    0    0    0  0.00000000000E+00  0.00000000000E+00  0.74505805969E-08  0.10566000000E+00  0.10566000000E+00 0.  1.
     999900   -1    0    0    0    0 -0.00000000000E+00 -0.00000000000E+00 -0.74505805969E-08  0.93827000000E+00  0.93827000000E+00 0.  1.
     999902    2    1    2    0    0 -0.16323700930E-01  0.14962548966E-01 -0.80996217990E-02  0.10203515150E+01  0.10200790504E+01 0.  0.
     999903    2    3    3    0    0 -0.68023301399E-01 -0.10832820983E+00  0.12810545856E-01  0.13000849398E+00  0.19388858769E-01 0.  0.
         14    1    1    2    0    0  0.16323700930E-01 -0.14962548966E-01  0.80996217990E-02  0.23578485042E-01  0.00000000000E+00 0. -1.
     999901    1    3    3    0    0  0.51699600469E-01  0.12329075879E+00 -0.20910167655E-01  0.89034302098E+00  0.88000000000E+00 0. -1.
        -11    1    4    4    0    0 -0.39429600132E-01 -0.55039503834E-01 -0.20251707096E-02  0.67737750082E-01  0.51100000000E-03 0.  1.
         11    1    4    4    0    0 -0.28593701267E-01 -0.53288705993E-01  0.14835716566E-01  0.62270743898E-01  0.51100000000E-03 0. -1.
</event>
<event>
 8    1  0.1161093E+005  0.1043930E+01  0.7957747E-01            NaN
         13   -1    0    0    0    0  0.00000000000E+00  0.00000000000E+00  0.74505805969E-08  0.10566000000E+00  0.10566000000E+00 0.  1.
     999900   -1    0    0    0    0 -0.00000000000E+00 -0.00000000000E+00 -0.74505805969E-08  0.93827000000E+00  0.93827000000E+00 0. -1.
     999902    2    1    2    0    0 -0.42055597088E-02 -0.22807922751E-01 -0.65136439531E-02  0.10198402588E+01  0.10195557061E+01 0.  0.
     999903    2    3    3    0    0 -0.69181456065E-01  0.30525877250E-01 -0.10444072322E+00  0.13042692736E+00  0.19632006221E-01 0.  0.
         14    1    1    2    0    0  0.42055597088E-02  0.22807922751E-01  0.65136439531E-02  0.24089741182E-01  0.00000000000E+00 0. -1.
     999901    1    3    3    0    0  0.64975896356E-01 -0.53333800001E-01  0.97927079264E-01  0.88941333146E+00  0.88000000000E+00 0.  1.
        -11    1    4    4    0    0 -0.80420258316E-02  0.81321274062E-02 -0.26494941147E-01  0.28862583096E-01  0.51100000000E-03 0.  1.
         11    1    4    4    0    0 -0.61139430233E-01  0.22393749844E-01 -0.77945782070E-01  0.10156434426E+00  0.51100000000E-03 0. -1.
</event>
<event>
 8    1  0.1161093E+005  0.1043930E+01  0.7957747E-01            NaN
         13   -1    0    0    0    0  0.00000000000E+00  0.00000000000E+00  0.74505805969E-08  0.10566000000E+00  0.10566000000E+00 0. -1.
     999900   -1    0    0    0    0 -0.00000000000E+00 -0.00000000000E+00 -0.74505805969E-08  0.93827000000E+00  0.93827000000E+00 0.  1.
     999902    2    1    2    0    0  0.66778590503E-02 -0.88669179870E-02 -0.21191667020E-01  0.10200071493E+01  0.10197265721E+01 0.  0.
     999903    2    3    3    0    0 -0.60890931301E-01 -0.43079058323E-01  0.10220693660E+00  0.12817575974E+00  0.20475759163E-01 0.  0.
         14    1    1    2    0    0 -0.66778590503E-02  0.88669179870E-02  0.21191667020E-01  0.23922850733E-01  0.00000000000E+00 0. -1.
     999901    1    3    3    0    0  0.67568790351E-01  0.34212140336E-01 -0.12339860362E+00  0.89183138953E+00  0.88000000000E+00 0.  1.
        -11    1    4    4    0    0 -0.13062730229E-01 -0.20519068168E-01  0.28759965725E-01  0.37670463616E-01  0.51100000000E-03 0.  1.
         11    1    4    4    0    0 -0.47828201071E-01 -0.22559990155E-01  0.73446970879E-01  0.90505296120E-01  0.51100000000E-03 0. -1.
</event>
<event>
 8    1  0.1161093E+005  0.1043930E+01  0.7957747E-01            NaN
         13   -1    0    0    0    0  0.00000000000E+00  0.00000000000E+00  0.74505805969E-08  0.10566000000E+00  0.10566000000E+00 0. -1.
     999900   -1    0    0    0    0 -0.00000000000E+00 -0.00000000000E+00 -0.74505805969E-08  0.93827000000E+00  0.93827000000E+00 0. -1.
     999902    2    1    2    0    0  0.19002556511E-01  0.53455706627E-02 -0.17583251996E-01  0.10174943606E+01  0.10171508889E+01 0.  0.
     999903    2    3    3    0    0  0.43533929426E-01  0.23916604143E-01  0.11537304240E+00  0.12697538396E+00  0.18563465574E-01 0.  0.
         14    1    1    2    0    0 -0.19002556511E-01 -0.53455706627E-02  0.17583251996E-01  0.26435639398E-01  0.00000000000E+00 0. -1.
     999901    1    3    3    0    0 -0.24531372915E-01 -0.18571033480E-01 -0.13295629439E+00  0.89051897664E+00  0.88000000000E+00 0. -1.
        -11    1    4    4    0    0  0.24760944241E-01  0.10376735803E-01  0.40406529549E-01  0.48515252827E-01  0.51100000000E-03 0.  1.
         11    1    4    4    0    0  0.18772985185E-01  0.13539868340E-01  0.74966512850E-01  0.78460131132E-01  0.51100000000E-03 0. -1.
</event>
<event>
 8    1  0.1161093E+005  0.1043930E+01  0.7957747E-01            NaN
         13   -1    0    0    0    0  0.00000000000E+00  0.00000000000E+00  0.74505805969E-08  0.10566000000E+00  0.10566000000E+00 0. -1.
     999900   -1    0    0    0    0 -0.00000000000E+00 -0.00000000000E+00 -0.74505805969E-08  0.93827000000E+00  0.93827000000E+00 0.  1.
     999902    2    1    2    0    0 -0.16777206094E-02  0.90064677683E-02 -0.22405095821E-01  0.10197242253E+01  0.10194368917E+01 0.  0.
     999903    2    3    3    0    0  0.92547130778E-01  0.17746657224E-01 -0.90101672783E-01  0.13206576621E+00  0.21050888557E-01 0.  0.
         14    1    1    2    0    0  0.16777206094E-02 -0.90064677683E-02  0.22405095821E-01  0.24205774659E-01  0.00000000000E+00 0. -1.
     999901    1    3    3    0    0 -0.94224851387E-01 -0.87401894561E-02  0.67696576962E-01  0.88765845913E+00  0.88000000000E+00 0. -1.
        -11    1    4    4    0    0  0.25747910696E-01  0.14769131903E-01 -0.27420446901E-01  0.40413168542E-01  0.51100000000E-03 0. -1.
         11    1    4    4    0    0  0.66799220082E-01  0.29775253218E-02 -0.62681225882E-01  0.91652597670E-01  0.51100000000E-03 0.  1.
</event>
<event>
 8    1  0.1161093E+005  0.1043930E+01  0.7957747E-01            NaN
         13   -1    0    0    0    0  0.00000000000E+00  0.00000000000E+00  0.74505805969E-08  0.10566000000E+00  0.10566000000E+00 0.  1.
     999900   -1    0    0    0    0 -0.00000000000E+00 -0.00000000000E+00 -0.74505805969E-08  0.93827000000E+00  0.93827000000E+00 0. -1.
     999902    2    1    2    0    0  0.97680320515E-03  0.57777498861E-03  0.23801374395E-01  0.10201015844E+01  0.10198232440E+01 0.  0.
     999903    2    3    3    0    0  0.97419684291E-01 -0.26928301435E-01  0.85136843430E-01  0.13228411815E+00  0.59226262141E-02 0.  0.
         14    1    1    2    0    0 -0.97680320515E-03 -0.57777498861E-03 -0.23801374395E-01  0.23828415632E-01  0.00000000000E+00 0. -1.
     999901    1    3    3    0    0 -0.96442881085E-01  0.27506076423E-01 -0.61335469036E-01  0.88781746621E+00  0.88000000000E+00 0.  1.
        -11    1    4    4    0    0  0.29406295281E-01 -0.10771453529E-01  0.25223270384E-01  0.40214784634E-01  0.51100000000E-03 0. -1.
         11    1    4    4    0    0  0.68013389010E-01 -0.16156847906E-01  0.59913573046E-01  0.92069333521E-01  0.51100000000E-03 0.  1.
</event>
<event>
 8    1  0.1161093E+005  0.1043930E+01  0.7957747E-01            NaN
         13   -1    0    0    0    0  0.00000000000E+00  0.00000000000E+00  0.74505805969E-08  0.10566000000E+00  0.10566000000E+00 0. -1.
     999900   -1    0    0    0    0 -0.00000000000E+00 -0.00000000000E+00 -0.74505805969E-08  0.93827000000E+00  0.93827000000E+00 0. -1.
     999902    2    1    2    0    0 -0.12798795868E-01  0.20378131832E-02  0.21304509690E-01  0.10189932001E+01  0.10186880277E+01 0.  0.
     999903    2    3    3    0    0 -0.12047648711E+00  0.17313179128E-01  0.46845785120E-01  0.13193053105E+00  0.19920023136E-01 0.  0.
         14    1    1    2    0    0  0.12798795868E-01 -0.20378131832E-02 -0.21304509690E-01  0.24936799942E-01  0.00000000000E+00 0.  1.
     999901    1    3    3    0    0  0.10767769124E+00 -0.15275365945E-01 -0.25541275430E-01  0.88706266901E+00  0.88000000000E+00 0.  1.
        -11    1    4    4    0    0 -0.54956931203E-01  0.17095951409E-01  0.26141119874E-01  0.63215149380E-01  0.51100000000E-03 0. -1.
         11    1    4    4    0    0 -0.65519555907E-01  0.21722771865E-03  0.20704665245E-01  0.68715381670E-01  0.51100000000E-03 0.  1.
</event>
<event>
 8    1  0.1161093E+005  0.1043930E+01  0.7957747E-01            NaN
         13   -1    0    0    0    0  0.00000000000E+00  0.00000000000E+00  0.74505805969E-08  0.10566000000E+00  0.10566000000E+00 0.  1.
     999900   -1    0    0    0    0 -0.00000000000E+00 -0.00000000000E+00 -0.74505805969E-08  0.93827000000E+00  0.93827000000E+00 0. -1.
     999902    2    1    2    0    0  0.82488207102E-02  0.74185575949E-02 -0.20548336249E-01  0.10205780801E+01  0.10203108867E+01 0.  0.
     999903    2    3    3    0    0 -0.45764598843E-01  0.99768152611E-01 -0.71673221182E-01  0.13262557516E+00  0.20109942044E-01 0.  0.
         14    1    1    2    0    0 -0.82488207102E-02 -0.74185575949E-02  0.20548336249E-01  0.23351919889E-01  0.00000000000E+00 0.  1.
     999901    1    3    3    0    0  0.54013419554E-01 -0.92349595016E-01  0.51124884933E-01  0.88795250495E+00  0.88000000000E+00 0.  1.
        -11    1    4    4    0    0 -0.22415834485E-01  0.31488971637E-01 -0.17723530205E-01  0.42525399638E-01  0.51100000000E-03 0. -1.
         11    1    4    4    0    0 -0.23348764359E-01  0.68279180974E-01 -0.53949690976E-01  0.90100175521E-01  0.51100000000E-03 0.  1.
</event>
<event>
 8    1  0.1161093E+005  0.1043930E+01  0.7957747E-01            NaN
         13   -1    0    0    0    0  0.00000000000E+00  0.00000000000E+00  0.74505805969E-08  0.10566000000E+00  0.10566000000E+00 0.  1.
     999900   -1    0    0    0    0 -0.00000000000E+00 -0.00000000000E+00 -0.74505805969E-08  0.93827000000E+00  0.93827000000E+00 0.  1.
     999902    2    1    2    0    0  0.28902769009E-02  0.16560584671E-01 -0.16748802892E-01  0.10201996594E+01  0.10199236325E+01 0.  0.
     999903    2    3    3    0    0  0.10542880885E+00  0.57149856154E-01 -0.54077891937E-01  0.13253130899E+00  0.16086941024E-01 0.  0.
         14    1    1    2    0    0 -0.28902769009E-02 -0.16560584671E-01  0.16748802892E-01  0.23730340569E-01  0.00000000000E+00 0. -1.
     999901    1    3    3    0    0 -0.10253853195E+00 -0.40589271483E-01  0.37329089045E-01  0.88766835045E+00  0.88000000000E+00 0. -1.
        -11    1    4    4    0    0  0.14395548084E-01  0.10086739718E-01 -0.23679286047E-02  0.17743796935E-01  0.51100000000E-03 0.  1.
         11    1    4    4    0    0  0.91033260764E-01  0.47063116436E-01 -0.51709963332E-01  0.11478751205E+00  0.51100000000E-03 0. -1.
</event>
<event>
 8    1  0.1161093E+005  0.1043930E+01  0.7957747E-01            NaN
         13   -1    0    0    0    0  0.00000000000E+00  0.00000000000E+00  0.74505805969E-08  0.10566000000E+00  0.10566000000E+00 0.  1.
     999900   -1    0    0    0    0 -0.00000000000E+00 -0.00000000000E+00 -0.74505805969E-08  0.93827000000E+00  0.93827000000E+00 0.  1.
     999902    2    1    2    0    0 -0.24642965598E-02 -0.19216436338E-01  0.13579216207E-01  0.10202711899E+01  0.10199968439E+01 0.  0.
     999903    2    3    3    0    0 -0.11414144860E+00 -0.48352197673E-01 -0.37888123605E-01  0.13124387538E+00  0.20572788022E-01 0.  0.
         14    1    1    2    0    0  0.24642965598E-02  0.19216436338E-01 -0.13579216207E-01  0.23658810111E-01  0.00000000000E+00 0.  1.
     999901    1    3    3    0    0  0.11167715204E+00  0.29135761335E-01  0.51467339813E-01  0.88902731451E+00  0.88000000000E+00 0. -1.
        -11    1    4    4    0    0 -0.19100305521E-01 -0.14205306964E-01 -0.13518169952E-02  0.23847451585E-01  0.51100000000E-03 0.  1.
         11    1    4    4    0    0 -0.95041143075E-01 -0.34146890709E-01 -0.36536306610E-01  0.10739642379E+00  0.51100000000E-03 0. -1.
</event>
<event>
 8    1  0.1161093E+005  0.1043930E+01  0.7957747E-01            NaN
         13   -1    0    0    0    0  0.00000000000E+00  0.00000000000E+00  0.74505805969E-08  0.10566000000E+00  0.10566000000E+00 0.  1.
     999900   -1    0    0    0    0 -0.00000000000E+00 -0.00000000000E+00 -0.74505805969E-08  0.93827000000E+00  0.93827000000E+00 0.  1.
     999902    2    1    2    0    0  0.13265105124E-02 -0.42977204847E-02  0.19140509985E-01  0.10242681294E+01  0.10240793972E+01 0.  0.
     999903    2    3    3    0    0  0.56623049659E-01  0.32680619372E-01 -0.11270408910E+00  0.13196319100E+00  0.20925569144E-01 0.  0.
         14    1    1    2    0    0 -0.13265105124E-02  0.42977204847E-02 -0.19140509985E-01  0.19661870562E-01  0.00000000000E+00 0. -1.
     999901    1    3    3    0    0 -0.55296539146E-01 -0.36978339857E-01  0.13184459908E+00  0.89230493844E+00  0.88000000000E+00 0. -1.
        -11    1    4    4    0    0  0.47880455843E-01  0.34919841366E-01 -0.92896589317E-01  0.11019061122E+00  0.51100000000E-03 0.  1.
         11    1    4    4    0    0  0.87425938153E-02 -0.22392219941E-02 -0.19807499779E-01  0.21772579779E-01  0.51100000000E-03 0. -1.
</event>
<event>
 8    1  0.1161093E+005  0.1043930E+01  0.7957747E-01            NaN
         13   -1    0    0    0    0  0.00000000000E+00  0.00000000000E+00  0.74505805969E-08  0.10566000000E+00  0.10566000000E+00 0.  1.
     999900   -1    0    0    0    0 -0.00000000000E+00 -0.00000000000E+00 -0.74505805969E-08  0.93827000000E+00  0.93827000000E+00 0. -1.
     999902    2    1    2    0    0  0.21101226260E-01 -0.12233832726E-01  0.52179520864E-02  0.10189869561E+01  0.10186816290E+01 0.  0.
     999903    2    3    3    0    0  0.72565015580E-01  0.94203727392E-01 -0.47289366734E-01  0.12952954044E+00  0.20039807897E-01 0.  0.
         14    1    1    2    0    0 -0.21101226260E-01  0.12233832726E-01 -0.52179520864E-02  0.24943043857E-01  0.00000000000E+00 0.  1.
     999901    1    3    3    0    0 -0.51463789320E-01 -0.10643756012E+00  0.52507318820E-01  0.88945741570E+00  0.88000000000E+00 0.  1.
        -11    1    4    4    0    0  0.15831453916E-01  0.34978099300E-01 -0.18357451809E-01  0.42560069568E-01  0.51100000000E-03 0. -1.
         11    1    4    4    0    0  0.56733561664E-01  0.59225628092E-01 -0.28931914925E-01  0.86969470874E-01  0.51100000000E-03 0.  1.
</event>
<event>
 8    1  0.1161093E+005  0.1043930E+01  0.7957747E-01            NaN
         13   -1    0    0    0    0  0.00000000000E+00  0.00000000000E+00  0.74505805969E-08  0.10566000000E+00  0.10566000000E+00 0.  1.
     999900   -1    0    0    0    0 -0.00000000000E+00 -0.00000000000E+00 -0.74505805969E-08  0.93827000000E+00  0.93827000000E+00 0.  1.
     999902    2    1    2    0    0 -0.81129298913E-02  0.33356511805E-01  0.11823606821E-01  0.10076219542E+01  0.10069675905E+01 0.  0.
     999903    2    3    3    0    0  0.71256230251E-01 -0.15086189086E-01 -0.88674355464E-01  0.11703450803E+00  0.22997636905E-01 0.  0.
         14    1    1    2    0    0  0.81129298913E-02 -0.33356511805E-01 -0.11823606821E-01  0.36308045796E-01  0.00000000000E+00 0. -1.
     999901    1    3    3    0    0 -0.79369160143E-01  0.48442700891E-01  0.10049796229E+00  0.89058744617E+00  0.88000000000E+00 0. -1.
        -11    1    4    4    0    0  0.54888570601E-02 -0.80195928184E-02 -0.16313026009E-01  0.18995193060E-01  0.51100000000E-03 0.  1.
         11    1    4    4    0    0  0.65767373191E-01 -0.70665962675E-02 -0.72361329455E-01  0.98039314975E-01  0.51100000000E-03 0. -1.
</event>
<event>
 8    1  0.1161093E+005  0.1043930E+01  0.7957747E-01            NaN
         13   -1    0    0    0    0  0.00000000000E+00  0.00000000000E+00  0.74505805969E-08  0.10566000000E+00  0.10566000000E+00 0. -1.
     999900   -1    0    0    0    0 -0.00000000000E+00 -0.00000000000E+00 -0.74505805969E-08  0.93827000000E+00  0.93827000000E+00 0.  1.
     999902    2    1    2    0    0 -0.12131213309E-01 -0.19841307926E-01  0.78616504679E-02  0.10193810818E+01  0.10190854432E+01 0.  0.
     999903    2    3    3    0    0 -0.29577602904E-01  0.45109667881E-01  0.11662079805E+00  0.13013895620E+00  0.20640267711E-01 0.  0.
         14    1    1    2    0    0  0.12131213309E-01  0.19841307926E-01 -0.78616504679E-02  0.24548918198E-01  0.00000000000E+00 0. -1.
     999901    1    3    3    0    0  0.17446389594E-01 -0.64950975808E-01 -0.10875914759E+00  0.88924212561E+00  0.88000000000E+00 0.  1.
        -11    1    4    4    0    0 -0.29843883462E-01  0.39562327981E-01  0.88142823750E-01  0.10111999641E+00  0.51100000000E-03 0. -1.
         11    1    4    4    0    0  0.26628055836E-03  0.55473398999E-02  0.28477974305E-01  0.29018959782E-01  0.51100000000E-03 0.  1.
</event>
<event>
 8    1  0.1161093E+005  0.1043930E+01  0.7957747E-01            NaN
         13   -1    0    0    0    0  0.00000000000E+00  0.00000000000E+00  0.74505805969E-08  0.10566000000E+00  0.10566000000E+00 0. -1.
     999900   -1    0    0    0    0 -0.00000000000E+00 -0.00000000000E+00 -0.74505805969E-08  0.93827000000E+00  0.93827000000E+00 0.  1.
     999902    2    1    2    0    0  0.17808495991E-01 -0.15850547196E-01  0.18852015187E-02  0.10200148090E+01  0.10197344136E+01 0.  0.
     999903    2    3    3    0    0  0.47338902356E-01  0.24793417795E-01 -0.11742933875E+00  0.13054309145E+00  0.19903866054E-01 0.  0.
         14    1    1    2    0    0 -0.17808495991E-01  0.15850547196E-01 -0.18852015187E-02  0.23915191001E-01  0.00000000000E+00 0.  1.
     999901    1    3    3    0    0 -0.29530406365E-01 -0.40643964990E-01  0.11931454027E+00  0.88947171754E+00  0.88000000000E+00 0. -1.
        -11    1    4    4    0    0  0.26529860505E-01  0.28073810239E-02 -0.51893691647E-01  0.58351788664E-01  0.51100000000E-03 0. -1.
         11    1    4    4    0    0  0.20809041852E-01  0.21986036771E-01 -0.65535647108E-01  0.72191302790E-01  0.51100000000E-03 0.  1.
</event>
<event>
 8    1  0.1161093E+005  0.1043930E+01  0.7957747E-01            NaN
         13   -1    0    0    0    0  0.00000000000E+00  0.00000000000E+00  0.74505805969E-08  0.10566000000E+00  0.10566000000E+00 0.  1.
     999900   -1    0    0    0    0 -0.00000000000E+00 -0.00000000000E+00 -0.74505805969E-08  0.93827000000E+00  0.93827000000E+00 0. -1.
     999902    2    1    2    0    0  0.17290649439E-01  0.11370745121E-01  0.11304832661E-01  0.10203490831E+01  0.10200765617E+01 0.  0.
     999903    2    3    3    0    0  0.13074241301E+00  0.86298366893E-02  0.10480468614E-01  0.13306136488E+00  0.20674476103E-01 0.  0.
         14    1    1    2    0    0 -0.17290649439E-01 -0.11370745121E-01 -0.11304832661E-01  0.23580916948E-01  0.00000000000E+00 0. -1.
     999901    1    3    3    0    0 -0.11345176357E+00  0.27409084313E-02  0.82436404720E-03  0.88728771817E+00  0.88000000000E+00 0. -1.
        -11    1    4    4    0    0  0.88219393881E-01  0.53139005591E-02  0.16731584519E-01  0.89950575526E-01  0.51100000000E-03 0.  1.
         11    1    4    4    0    0  0.42523019126E-01  0.33159361302E-02 -0.62511159049E-02  0.43110789358E-01  0.51100000000E-03 0. -1.
</event>
<event>
 8    1  0.1161093E+005  0.1043930E+01  0.7957747E-01            NaN
         13   -1    0    0    0    0  0.00000000000E+00  0.00000000000E+00  0.74505805969E-08  0.10566000000E+00  0.10566000000E+00 0.  1.
     999900   -1    0    0    0    0 -0.00000000000E+00 -0.00000000000E+00 -0.74505805969E-08  0.93827000000E+00  0.93827000000E+00 0. -1.
     999902    2    1    2    0    0  0.28423870228E-02 -0.14370776094E-01  0.16996630908E-01  0.10214915546E+01  0.10212450794E+01 0.  0.
     999903    2    3    3    0    0  0.27523212346E-01  0.33445493434E-01  0.12476459990E+00  0.13328579358E+00  0.17965776784E-01 0.  0.
         14    1    1    2    0    0 -0.28423870228E-02  0.14370776094E-01 -0.16996630908E-01  0.22438445395E-01  0.00000000000E+00 0. -1.
     999901    1    3    3    0    0 -0.24680825323E-01 -0.47816269528E-01 -0.10776796899E+00  0.88820576102E+00  0.88000000000E+00 0. -1.
        -11    1    4    4    0    0  0.15624432278E-01  0.14599058048E-01  0.37037913350E-01  0.42770591839E-01  0.51100000000E-03 0. -1.
         11    1    4    4    0    0  0.11898780069E-01  0.18846435386E-01  0.87726686545E-01  0.90515201746E-01  0.51100000000E-03 0.  1.
</event>
<event>
 8    1  0.1161093E+005  0.1043930E+01  0.7957747E-01            NaN
         13   -1    0    0    0    0  0.00000000000E+00  0.00000000000E+00  0.74505805969E-08  0.10566000000E+00  0.10566000000E+00 0.  1.
     999900   -1    0    0    0    0 -0.00000000000E+00 -0.00000000000E+00 -0.74505805969E-08  0.93827000000E+00  0.93827000000E+00 0. -1.
     999902    2    1    2    0    0  0.23032701316E-01 -0.26583756058E-02  0.16869221706E-02  0.10206831078E+01  0.10204183400E+01 0.  0.
     999903    2    3    3    0    0  0.10502324773E+00 -0.34137529246E-01 -0.71962867828E-01  0.13324991122E+00  0.19535378862E-01 0.  0.
         14    1    1    2    0    0 -0.23032701316E-01  0.26583756058E-02 -0.16869221706E-02  0.23246892204E-01  0.00000000000E+00 0. -1.
     999901    1    3    3    0    0 -0.81990546416E-01  0.31479153641E-01  0.73649789999E-01  0.88743319657E+00  0.88000000000E+00 0.  1.
        -11    1    4    4    0    0  0.66094677038E-01 -0.15127915895E-01 -0.35033101642E-01  0.76321291287E-01  0.51100000000E-03 0.  1.
         11    1    4    4    0    0  0.38928570693E-01 -0.19009613352E-01 -0.36929766186E-01  0.56928619934E-01  0.51100000000E-03 0. -1.
</event>
<event>
 8    1  0.1161093E+005  0.1043930E+01  0.7957747E-01            NaN
         13   -1    0    0    0    0  0.00000000000E+00  0.00000000000E+00  0.74505805969E-08  0.10566000000E+00  0.10566000000E+00 0.  1.
     999900   -1    0    0    0    0 -0.00000000000E+00 -0.00000000000E+00 -0.74505805969E-08  0.93827000000E+00  0.93827000000E+00 0. -1.
     999902    2    1    2    0    0  0.21598510402E-01  0.95401369133E-04 -0.13300538298E-01  0.10185644905E+01  0.10182486004E+01 0.  0.
     999903    2    3    3    0    0  0.12397562628E+00  0.45023178330E-02 -0.39285595140E-01  0.13223739628E+00  0.23519018132E-01 0.  0.
         14    1    1    2    0    0 -0.21598510402E-01 -0.95401369133E-04  0.13300538298E-01  0.25365509496E-01  0.00000000000E+00 0.  1.
     999901    1    3    3    0    0 -0.10237711588E+00 -0.44069164639E-02  0.25985056842E-01  0.88632709422E+00  0.88000000000E+00 0. -1.
        -11    1    4    4    0    0  0.12168434745E+00  0.41780862054E-02 -0.33953972500E-01  0.12640280926E+00  0.51100000000E-03 0.  1.
         11    1    4    4    0    0  0.22912788284E-02  0.32423162755E-03 -0.53316226392E-02  0.58345870278E-02  0.51100000000E-03 0. -1.
</event>
<event>
 8    1  0.1161093E+005  0.1043930E+01  0.7957747E-01            NaN
         13   -1    0    0    0    0  0.00000000000E+00  0.00000000000E+00  0.74505805969E-08  0.10566000000E+00  0.10566000000E+00 0.  1.
     999900   -1    0    0    0    0 -0.00000000000E+00 -0.00000000000E+00 -0.74505805969E-08  0.93827000000E+00  0.93827000000E+00 0. -1.
     999902    2    1    2    0    0  0.82290918784E-02 -0.14722429504E-02 -0.21546493470E-01  0.10208185995E+01  0.10205569441E+01 0.  0.
     999903    2    3    3    0    0  0.10673530153E+00  0.56832584960E-01  0.48088227890E-01  0.13067708225E+00  0.11901884648E-01 0.  0.
         14    1    1    2    0    0 -0.82290918784E-02  0.14722429504E-02  0.21546493470E-01  0.23111400505E-01  0.00000000000E+00 0.  1.
     999901    1    3    3    0    0 -0.98506209655E-01 -0.58304827911E-01 -0.69634721359E-01  0.89014151724E+00  0.88000000000E+00 0.  1.
        -11    1    4    4    0    0  0.10803938965E-01  0.93465216308E-02  0.79508751891E-02  0.16357264472E-01  0.51100000000E-03 0. -1.
         11    1    4    4    0    0  0.95931362568E-01  0.47486063330E-01  0.40137352701E-01  0.11431981778E+00  0.51100000000E-03 0.  1.
</event>
<event>
 8    1  0.1161093E+005  0.1043930E+01  0.7957747E-01            NaN
         13   -1    0    0    0    0  0.00000000000E+00  0.00000000000E+00  0.74505805969E-08  0.10566000000E+00  0.10566000000E+00 0.  1.
     999900   -1    0    0    0    0 -0.00000000000E+00 -0.00000000000E+00 -0.74505805969E-08  0.93827000000E+00  0.93827000000E+00 0. -1.
     999902    2    1    2    0    0  0.21844031731E-01 -0.91801252061E-02 -0.83176678871E-03  0.10202207559E+01  0.10199452252E+01 0.  0.
     999903    2    3    3    0    0  0.34826150899E-01 -0.80598618141E-01  0.96353532723E-01  0.13189980093E+00  0.20113582085E-01 0.  0.
         14    1    1    2    0    0 -0.21844031731E-01  0.91801252061E-02  0.83176678871E-03  0.23709244127E-01  0.00000000000E+00 0.  1.
     999901    1    3    3    0    0 -0.12982119168E-01  0.71418492935E-01 -0.97185299511E-01  0.88832095494E+00  0.88000000000E+00 0. -1.
        -11    1    4    4    0    0  0.33079076677E-01 -0.70109137984E-01  0.74147659715E-01  0.10727372980E+00  0.51100000000E-03 0. -1.
         11    1    4    4    0    0  0.17470742227E-02 -0.10489480157E-01  0.22205873008E-01  0.24626071131E-01  0.51100000000E-03 0.  1.
</event>
<event>
 8    1  0.1161093E+005  0.1043930E+01  0.7957747E-01            NaN
         13   -1    0    0    0    0  0.00000000000E+00  0.00000000000E+00  0.74505805969E-08  0.10566000000E+00  0.10566000000E+00 0. -1.
     999900   -1    0    0    0    0 -0.00000000000E+00 -0.00000000000E+00 -0.74505805969E-08  0.93827000000E+00  0.93827000000E+00 0.  1.
     999902    2    1    2    0    0  0.20612184157E-01 -0.91297949348E-02 -0.75956839560E-02  0.10201411432E+01  0.10198637372E+01 0.  0.
     999903    2    3    3    0    0  0.55560405560E-01 -0.91759564137E-01 -0.75973006588E-01  0.13294076272E+00  0.19863846215E-01 0.  0.
         14    1    1    2    0    0 -0.20612184157E-01  0.91297949348E-02  0.75956839560E-02  0.23788856762E-01  0.00000000000E+00 0. -1.
     999901    1    3    3    0    0 -0.34948221403E-01  0.82629769202E-01  0.68377322632E-01  0.88720038052E+00  0.88000000000E+00 0. -1.
        -11    1    4    4    0    0  0.11399133339E-01 -0.36425808678E-01 -0.23609792272E-01  0.44882771648E-01  0.51100000000E-03 0.  1.
         11    1    4    4    0    0  0.44161272221E-01 -0.55333755459E-01 -0.52363214316E-01  0.88057991074E-01  0.51100000000E-03 0. -1.
</event>
<event>
 7    1  0.1161093E+005  0.1043930E+01  0.7957747E-01            NaN
         13   -1    0    0    0    0  0.00000000000E+00  0.00000000000E+00  0.74505805969E-08  0.10566000000E+00  0.10566000000E+00 0. -1.
     999900   -1    0    0    0    0 -0.00000000000E+00 -0.00000000000E+00 -0.74505805969E-08  0.93827000000E+00  0.93827000000E+00 0. -1.
     999903    2    1    2    0    0  0.54515415564E-01  0.71017296515E-01 -0.32962707620E-01  0.97638118309E-01  0.20767164346E-01 0.  0.
         14    1    1    2    0    0 -0.14908393755E-01  0.43568563368E-01 -0.31266950475E-01  0.55660597466E-01  0.00000000000E+00 0.  1.
     999901    1    1    2    0    0 -0.39607021808E-01 -0.11458585988E+00  0.64229658094E-01  0.89063128423E+00  0.88000000000E+00 0.  1.
        -11    1    3    3    0    0  0.50613411287E-01  0.65164794317E-01 -0.23420746313E-01  0.85772724682E-01  0.51100000000E-03 0.  1.
         11    1    3    3    0    0  0.39020042766E-02  0.58525021980E-02 -0.95419613067E-02  0.11865393627E-01  0.51100000000E-03 0. -1.
</event>
<event>
 8    1  0.1161093E+005  0.1043930E+01  0.7957747E-01            NaN
         13   -1    0    0    0    0  0.00000000000E+00  0.00000000000E+00  0.74505805969E-08  0.10566000000E+00  0.10566000000E+00 0.  1.
     999900   -1    0    0    0    0 -0.00000000000E+00 -0.00000000000E+00 -0.74505805969E-08  0.93827000000E+00  0.93827000000E+00 0. -1.
     999902    2    1    2    0    0  0.17432686598E-01  0.46896714319E-02 -0.15794943509E-01  0.10199430906E+01  0.10196609909E+01 0.  0.
     999903    2    3    3    0    0 -0.22726179609E-01  0.38872211676E-01 -0.12228289666E+00  0.13195611734E+00  0.20779364918E-01 0.  0.
         14    1    1    2    0    0 -0.17432686598E-01 -0.46896714319E-02  0.15794943509E-01  0.23986909359E-01  0.00000000000E+00 0.  1.
     999901    1    3    3    0    0  0.40158866207E-01 -0.34182540244E-01  0.10648795315E+00  0.88798697330E+00  0.88000000000E+00 0.  1.
        -11    1    4    4    0    0 -0.39862778115E-02  0.18257256636E-01 -0.72854146385E-01  0.75214397539E-01  0.51100000000E-03 0.  1.
         11    1    4    4    0    0 -0.18739901798E-01  0.20614955040E-01 -0.49428750275E-01  0.56741719797E-01  0.51100000000E-03 0. -1.
</event>
<event>
 8    1  0.1161093E+005  0.1043930E+01  0.7957747E-01            NaN
         13   -1    0    0    0    0  0.00000000000E+00  0.00000000000E+00  0.74505805969E-08  0.10566000000E+00  0.10566000000E+00 0. -1.
     999900   -1    0    0    0    0 -0.00000000000E+00 -0.00000000000E+00 -0.74505805969E-08  0.93827000000E+00  0.93827000000E+00 0. -1.
     999902    2    1    2    0    0  0.36353621334E-02 -0.42886754765E-02 -0.21136215032E-01  0.10220588276E+01  0.10218247888E+01 0.  0.
     999903    2    3    3    0    0 -0.71928359874E-01  0.10799566473E+00  0.53492924341E-02  0.13131805094E+00  0.19469540791E-01 0.  0.
         14    1    1    2    0    0 -0.36353621334E-02  0.42886754765E-02  0.21136215032E-01  0.21871172375E-01  0.00000000000E+00 0. -1.
     999901    1    3    3    0    0  0.75563722007E-01 -0.11228434021E+00 -0.26485507466E-01  0.89074077668E+00  0.88000000000E+00 0.  1.
        -11    1    4    4    0    0 -0.28024601268E-01  0.55618481543E-01  0.87172782937E-02  0.62889155084E-01  0.51100000000E-03 0.  1.
         11    1    4    4    0    0 -0.43903758606E-01  0.52377183189E-01 -0.33679858596E-02  0.68428895858E-01  0.51100000000E-03 0. -1.
</event>
<event>
 8    1  0.1161093E+005  0.1043930E+01  0.7957747E-01            NaN
         13   -1    0    0    0    0  0.00000000000E+00  0.00000000000E+00  0.74505805969E-08  0.10566000000E+00  0.10566000000E+00 0.  1.
     999900   -1    0    0    0    0 -0.00000000000E+00 -0.00000000000E+00 -0.74505805969E-08  0.93827000000E+00  0.93827000000E+00 0.  1.
     999902    2    1    2    0    0 -0.88629922941E-02  0.34650790683E-02  0.20688216769E-01  0.10211580497E+01  0.10209041095E+01 0.  0.
     999903    2    3    3    0    0  0.43053109039E-02  0.85787133534E-01 -0.95059056237E-01  0.12967178733E+00  0.20014501633E-01 0.  0.
         14    1    1    2    0    0  0.88629922941E-02 -0.34650790683E-02 -0.20688216769E-01  0.22771950255E-01  0.00000000000E+00 0. -1.
     999901    1    3    3    0    0 -0.13168303198E-01 -0.82322054466E-01  0.11574727301E+00  0.89148626241E+00  0.88000000000E+00 0. -1.
        -11    1    4    4    0    0  0.86824441395E-02  0.66522369680E-01 -0.63125999941E-01  0.92118203921E-01  0.51100000000E-03 0. -1.
         11    1    4    4    0    0 -0.43771332356E-02  0.19264763854E-01 -0.31933056296E-01  0.37553583412E-01  0.51100000000E-03 0.  1.
</event>
<event>
 8    1  0.1161093E+005  0.1043930E+01  0.7957747E-01            NaN
         13   -1    0    0    0    0  0.00000000000E+00  0.00000000000E+00  0.74505805969E-08  0.10566000000E+00  0.10566000000E+00 0. -1.
     999900   -1    0    0    0    0 -0.00000000000E+00 -0.00000000000E+00 -0.74505805969E-08  0.93827000000E+00  0.93827000000E+00 0. -1.
     999902    2    1    2    0    0  0.15752202373E-01  0.29433492255E-02 -0.17003090223E-01  0.10205654914E+01  0.10202980065E+01 0.  0.
     999903    2    3    3    0    0 -0.47190503464E-01 -0.81652507031E-01 -0.87319660309E-01  0.13148581943E+00  0.27743866214E-01 0.  0.
         14    1    1    2    0    0 -0.15752202373E-01 -0.29433492255E-02  0.17003090223E-01  0.23364508584E-01  0.00000000000E+00 0. -1.
     999901    1    3    3    0    0  0.62942705837E-01  0.84595856256E-01  0.70316570087E-01  0.88907967199E+00  0.88000000000E+00 0.  1.
        -11    1    4    4    0    0  0.24072710104E-02 -0.53612290010E-02 -0.11957006315E-01  0.13332998580E-01  0.51100000000E-03 0. -1.
         11    1    4    4    0    0 -0.49597774474E-01 -0.76291278030E-01 -0.75362653994E-01  0.11815282085E+00  0.51100000000E-03 0.  1.
</event>
<event>
 8    1  0.1161093E+005  0.1043930E+01  0.7957747E-01            NaN
         13   -1    0    0    0    0  0.00000000000E+00  0.00000000000E+00  0.74505805969E-08  0.10566000000E+00  0.10566000000E+00 0. -1.
     999900   -1    0    0    0    0 -0.00000000000E+00 -0.00000000000E+00 -0.74505805969E-08  0.93827000000E+00  0.93827000000E+00 0.  1.
     999902    2    1    2    0    0 -0.21185629290E-01  0.18107706551E-02 -0.97628734052E-02  0.10205329174E+01  0.10202646774E+01 0.  0.
     999903    2    3    3    0    0  0.53101775036E-01 -0.36026918398E-01  0.10958985986E+00  0.12857138002E+00  0.20072992179E-01 0.  0.
         14    1    1    2    0    0  0.21185629290E-01 -0.18107706551E-02  0.97628734052E-02  0.23397082637E-01  0.00000000000E+00 0. -1.
     999901    1    3    3    0    0 -0.74287404326E-01  0.37837689053E-01 -0.11935273327E+00  0.89196153734E+00  0.88000000000E+00 0.  1.
        -11    1    4    4    0    0  0.28403746457E-01 -0.13908464133E-01  0.70776228303E-01  0.77522601873E-01  0.51100000000E-03 0.  1.
         11    1    4    4    0    0  0.24698028579E-01 -0.22118454265E-01  0.38813631560E-01  0.51048778150E-01  0.51100000000E-03 0. -1.
</event>
<event>
 8    1  0.1161093E+005  0.1043930E+01  0.7957747E-01            NaN
         13   -1    0    0    0    0  0.00000000000E+00  0.00000000000E+00  0.74505805969E-08  0.10566000000E+00  0.10566000000E+00 0. -1.
     999900   -1    0    0    0    0 -0.00000000000E+00 -0.00000000000E+00 -0.74505805969E-08  0.93827000000E+00  0.93827000000E+00 0.  1.
     999902    2    1    2    0    0  0.20383421841E-01  0.32077007980E-03 -0.12000992634E-01  0.10202739098E+01  0.10199996277E+01 0.  0.
     999903    2    3    3    0    0 -0.24454515554E-01 -0.12348746792E+00  0.23821331363E-01  0.12975599346E+00  0.20542247862E-01 0.  0.
         14    1    1    2    0    0 -0.20383421841E-01 -0.32077007980E-03  0.12000992634E-01  0.23656090201E-01  0.00000000000E+00 0.  1.
     999901    1    3    3    0    0  0.44837937395E-01  0.12380823800E+00 -0.35822323997E-01  0.89051791634E+00  0.88000000000E+00 0.  1.
        -11    1    4    4    0    0 -0.93599622354E-02 -0.44834421191E-01  0.18789795044E-01  0.49508097674E-01  0.51100000000E-03 0. -1.
         11    1    4    4    0    0 -0.15094553319E-01 -0.78653046726E-01  0.50315363191E-02  0.80247895785E-01  0.51100000000E-03 0.  1.
</event>
<event>
 8    1  0.1161093E+005  0.1043930E+01  0.7957747E-01            NaN
         13   -1    0    0    0    0  0.00000000000E+00  0.00000000000E+00  0.74505805969E-08  0.10566000000E+00  0.10566000000E+00 0. -1.
     999900   -1    0    0    0    0 -0.00000000000E+00 -0.00000000000E+00 -0.74505805969E-08  0.93827000000E+00  0.93827000000E+00 0. -1.
     999902    2    1    2    0    0 -0.84585807525E-02  0.19412965770E-01 -0.11799713761E-01  0.10196886289E+01  0.10194004394E+01 0.  0.
     999903    2    3    3    0    0 -0.28515896390E-01  0.96573619171E-01 -0.84714121220E-01  0.13308129012E+00  0.19862708276E-01 0.  0.
         14    1    1    2    0    0  0.84585807525E-02 -0.19412965770E-01  0.11799713761E-01  0.24241371108E-01  0.00000000000E+00 0. -1.
     999901    1    3    3    0    0  0.20057315638E-01 -0.77160653401E-01  0.72914407459E-01  0.88660733877E+00  0.88000000000E+00 0. -1.
        -11    1    4    4    0    0 -0.11058454341E-01  0.52815088027E-01 -0.33615555518E-01  0.63576643742E-01  0.51100000000E-03 0.  1.
         11    1    4    4    0    0 -0.17457442049E-01  0.43758531144E-01 -0.51098565702E-01  0.69504646381E-01  0.51100000000E-03 0. -1.
</event>
<event>
 8    1  0.1161093E+005  0.1043930E+01  0.7957747E-01            NaN
         13   -1    0    0    0    0  0.00000000000E+00  0.00000000000E+00  0.74505805969E-08  0.10566000000E+00  0.10566000000E+00 0. -1.
     999900   -1    0    0    0    0 -0.00000000000E+00 -0.00000000000E+00 -0.74505805969E-08  0.93827000000E+00  0.93827000000E+00 0.  1.
     999902    2    1    2    0    0 -0.17166519574E-01 -0.14861734507E-01 -0.44164046527E-02  0.10207985241E+01  0.10205364088E+01 0.  0.
     999903    2    3    3    0    0 -0.94171152614E-01 -0.71641921948E-02 -0.91640748750E-01  0.13310654382E+00  0.19994837873E-01 0.  0.
         14    1    1    2    0    0  0.17166519574E-01  0.14861734507E-01  0.44164046527E-02  0.23131475891E-01  0.00000000000E+00 0. -1.
     999901    1    3    3    0    0  0.77004633040E-01 -0.76975423124E-02  0.87224344097E-01  0.88769198029E+00  0.88000000000E+00 0. -1.
        -11    1    4    4    0    0 -0.72652662312E-01  0.27398678917E-02 -0.72101368190E-01  0.10239523735E+00  0.51100000000E-03 0.  1.
         11    1    4    4    0    0 -0.21518490302E-01 -0.99040600866E-02 -0.19539380560E-01  0.30711306465E-01  0.51100000000E-03 0. -1.
</event>
<event>
 8    1  0.1161093E+005  0.1043930E+01  0.7957747E-01            NaN
         13   -1    0    0    0    0  0.00000000000E+00  0.00000000000E+00  0.74505805969E-08  0.10566000000E+00  0.10566000000E+00 0. -1.
     999900   -1    0    0    0    0 -0.00000000000E+00 -0.00000000000E+00 -0.74505805969E-08  0.93827000000E+00  0.93827000000E+00 0. -1.
     999902    2    1    2    0    0 -0.17833911697E-01 -0.12933532331E-01  0.10010516281E-01  0.10197321674E+01  0.10194450246E+01 0.  0.
     999903    2    3    3    0    0 -0.19603964453E-01 -0.11502438332E+00 -0.56850057085E-01  0.13130883860E+00  0.19878579477E-01 0.  0.
         14    1    1    2    0    0  0.17833911697E-01  0.12933532331E-01 -0.10010516281E-01  0.24197832572E-01  0.00000000000E+00 0. -1.
     999901    1    3    3    0    0  0.17700527560E-02  0.10209085099E+00  0.66860573366E-01  0.88842332883E+00  0.88000000000E+00 0. -1.
        -11    1    4    4    0    0 -0.22890174607E-01 -0.10448787762E+00 -0.54340814278E-01  0.11997858926E+00  0.51100000000E-03 0.  1.
         11    1    4    4    0    0  0.32862101541E-02 -0.10536505704E-01 -0.25092428072E-02  0.11330249339E-01  0.51100000000E-03 0. -1.
</event>
<event>
 8    1  0.1161093E+005  0.1043930E+01  0.7957747E-01            NaN
         13   -1    0    0    0    0  0.00000000000E+00  0.00000000000E+00  0.74505805969E-08  0.10566000000E+00  0.10566000000E+00 0. -1.
     999900   -1    0    0    0    0 -0.00000000000E+00 -0.00000000000E+00 -0.74505805969E-08  0.93827000000E+00  0.93827000000E+00 0. -1.
     999902    2    1    2    0    0 -0.13130759250E-01  0.19170861151E-01  0.88918042343E-02  0.10190502303E+01  0.10187464695E+01 0.  0.
     999903    2    3    3    0    0  0.11975631498E+00 -0.18675849228E-01  0.35495668015E-01  0.12787173332E+00  0.20021873342E-01 0.  0.
         14    1    1    2    0    0  0.13130759250E-01 -0.19170861151E-01 -0.88918042343E-02  0.24879769659E-01  0.00000000000E+00 0.  1.
     999901    1    3    3    0    0 -0.13288707423E+00  0.37846710378E-01 -0.26603863781E-01  0.89117849702E+00  0.88000000000E+00 0. -1.
        -11    1    4    4    0    0  0.77973865572E-01 -0.21261398247E-01  0.20287716084E-01  0.83329606459E-01  0.51100000000E-03 0. -1.
         11    1    4    4    0    0  0.41782449409E-01  0.25855490196E-02  0.15207951931E-01  0.44542126861E-01  0.51100000000E-03 0.  1.
</event>
<event>
 8    1  0.1161093E+005  0.1043930E+01  0.7957747E-01            NaN
         13   -1    0    0    0    0  0.00000000000E+00  0.00000000000E+00  0.74505805969E-08  0.10566000000E+00  0.10566000000E+00 0. -1.
     999900   -1    0    0    0    0 -0.00000000000E+00 -0.00000000000E+00 -0.74505805969E-08  0.93827000000E+00  0.93827000000E+00 0. -1.
     999902    2    1    2    0    0 -0.63091211224E-02 -0.46561038642E-03 -0.23187253004E-01  0.10198952230E+01  0.10196119828E+01 0.  0.
     999903    2    3    3    0    0 -0.84657124688E-01 -0.76392779631E-01 -0.64000859781E-01  0.13221898971E+00  0.19572062929E-01 0.  0.
         14    1    1    2    0    0  0.63091211224E-02  0.46561038642E-03  0.23187253004E-01  0.24034776975E-01  0.00000000000E+00 0. -1.
     999901    1    3    3    0    0  0.78348003565E-01  0.75927169245E-01  0.40813606777E-01  0.88767623331E+00  0.88000000000E+00 0.  1.
        -11    1    4    4    0    0 -0.50842467694E-01 -0.38918718693E-01 -0.45097913374E-01  0.78317980678E-01  0.51100000000E-03 0.  1.
         11    1    4    4    0    0 -0.33814656994E-01 -0.37474060939E-01 -0.18902946407E-01  0.53901009033E-01  0.51100000000E-03 0. -1.
</event>
<event>
 8    1  0.1161093E+005  0.1043930E+01  0.7957747E-01            NaN
         13   -1    0    0    0    0  0.00000000000E+00  0.00000000000E+00  0.74505805969E-08  0.10566000000E+00  0.10566000000E+00 0. -1.
     999900   -1    0    0    0    0 -0.00000000000E+00 -0.00000000000E+00 -0.74505805969E-08  0.93827000000E+00  0.93827000000E+00 0. -1.
     999902    2    1    2    0    0 -0.66633431799E-02 -0.96918411675E-02  0.20256623702E-01  0.10205064492E+01  0.10202375950E+01 0.  0.
     999903    2    3    3    0    0  0.28059801602E-01  0.11946706854E+00 -0.33405599052E-01  0.12878488118E+00  0.20245459819E-01 0.  0.
         14    1    1    2    0    0  0.66633431799E-02  0.96918411675E-02 -0.20256623702E-01  0.23423550785E-01  0.00000000000E+00 0.  1.
     999901    1    3    3    0    0 -0.34723144782E-01 -0.12915890970E+00  0.53662222754E-01  0.89172156803E+00  0.88000000000E+00 0. -1.
        -11    1    4    4    0    0  0.24006610331E-01  0.60316628043E-01 -0.20770299782E-01  0.68162155424E-01  0.51100000000E-03 0.  1.
         11    1    4    4    0    0  0.40531912711E-02  0.59150440493E-01 -0.12635299270E-01  0.60622725761E-01  0.51100000000E-03 0. -1.
</event>
<event>
 8    1  0.1161093E+005  0.1043930E+01  0.7957747E-01            NaN
         13   -1    0    0    0    0  0.00000000000E+00  0.00000000000E+00  0.74505805969E-08  0.10566000000E+00  0.10566000000E+00 0. -1.
     999900   -1    0    0    0    0 -0.00000000000E+00 -0.00000000000E+00 -0.74505805969E-08  0.93827000000E+00  0.93827000000E+00 0.  1.
     999902    2    1    2    0    0 -0.44200515992E-02 -0.23153848029E-01 -0.25313316133E-02  0.10202225081E+01  0.10199470186E+01 0.  0.
     999903    2    3    3    0    0 -0.42368605816E-02  0.88047278341E-01 -0.91446757519E-01  0.12877891644E+00  0.21242072584E-01 0.  0.
         14    1    1    2    0    0  0.44200515992E-02  0.23153848029E-01  0.25313316133E-02  0.23707491947E-01  0.00000000000E+00 0.  1.
     999901    1    3    3    0    0 -0.18319101757E-03 -0.11120112637E+00  0.88915425906E-01  0.89144359161E+00  0.88000000000E+00 0.  1.
        -11    1    4    4    0    0  0.85837637962E-02  0.36863928254E-01 -0.40354911575E-01  0.55330011896E-01  0.51100000000E-03 0. -1.
         11    1    4    4    0    0 -0.12820624378E-01  0.51183350087E-01 -0.51091845944E-01  0.73448904543E-01  0.51100000000E-03 0.  1.
</event>
<event>
 8    1  0.1161093E+005  0.1043930E+01  0.7957747E-01            NaN
         13   -1    0    0    0    0  0.00000000000E+00  0.00000000000E+00  0.74505805969E-08  0.10566000000E+00  0.10566000000E+00 0. -1.
     999900   -1    0    0    0    0 -0.00000000000E+00 -0.00000000000E+00 -0.74505805969E-08  0.93827000000E+00  0.93827000000E+00 0.  1.
     999902    2    1    2    0    0  0.13061730152E-01  0.62117076483E-02 -0.18953146976E-01  0.10200885259E+01  0.10198098768E+01 0.  0.
     999903    2    3    3    0    0  0.14712479653E-01 -0.40726559403E-01  0.11888801597E+00  0.12812097488E+00  0.20137382303E-01 0.  0.
         14    1    1    2    0    0 -0.13061730152E-01 -0.62117076483E-02  0.18953146976E-01  0.23841474090E-01  0.00000000000E+00 0. -1.
     999901    1    3    3    0    0 -0.16507495013E-02  0.46938267051E-01 -0.13784116294E+00  0.89196755103E+00  0.88000000000E+00 0. -1.
        -11    1    4    4    0    0  0.15463632520E-01 -0.13730237214E-01  0.54719479086E-01  0.58498938940E-01  0.51100000000E-03 0.  1.
         11    1    4    4    0    0 -0.75115286721E-03 -0.26996322189E-01  0.64168536880E-01  0.69622035942E-01  0.51100000000E-03 0. -1.
</event>
<event>
 8    1  0.1161093E+005  0.1043930E+01  0.7957747E-01            NaN
         13   -1    0    0    0    0  0.00000000000E+00  0.00000000000E+00  0.74505805969E-08  0.10566000000E+00  0.10566000000E+00 0. -1.
     999900   -1    0    0    0    0 -0.00000000000E+00 -0.00000000000E+00 -0.74505805969E-08  0.93827000000E+00  0.93827000000E+00 0. -1.
     999902    2    1    2    0    0 -0.74241411940E-02 -0.19139516884E-01 -0.14205392012E-01  0.10189653822E+01  0.10186595202E+01 0.  0.
     999903    2    3    3    0    0 -0.11592432118E+00  0.48489446308E-01 -0.25268989185E-01  0.12965757897E+00  0.19567609123E-01 0.  0.
         14    1    1    2    0    0  0.74241411940E-02  0.19139516884E-01  0.14205392012E-01  0.24964617786E-01  0.00000000000E+00 0. -1.
     999901    1    3    3    0    0  0.10850017999E+00 -0.67628963192E-01  0.11063597174E-01  0.88930780324E+00  0.88000000000E+00 0. -1.
        -11    1    4    4    0    0 -0.85260991562E-01  0.34501891204E-01 -0.27138879391E-01  0.95898889850E-01  0.51100000000E-03 0.  1.
         11    1    4    4    0    0 -0.30663329618E-01  0.13987555104E-01  0.18698902058E-02  0.33758689125E-01  0.51100000000E-03 0. -1.
</event>
<event>
 8    1  0.1161093E+005  0.1043930E+01  0.7957747E-01            NaN
         13   -1    0    0    0    0  0.00000000000E+00  0.00000000000E+00  0.74505805969E-08  0.10566000000E+00  0.10566000000E+00 0. -1.
     999900   -1    0    0    0    0 -0.00000000000E+00 -0.00000000000E+00 -0.74505805969E-08  0.93827000000E+00  0.93827000000E+00 0. -1.
     999902    2    1    2    0    0 -0.33826025610E-02 -0.25047206436E-01 -0.36085662709E-02  0.10183991108E+01  0.10180790356E+01 0.  0.
     999903    2    3    3    0    0  0.90628670719E-01  0.77683730530E-01 -0.37632659736E-01  0.12679975921E+00  0.20338237639E-01 0.  0.
         14    1    1    2    0    0  0.33826025610E-02  0.25047206436E-01  0.36085662709E-02  0.25530889152E-01  0.00000000000E+00 0.  1.
     999901    1    3    3    0    0 -0.94011273280E-01 -0.10273093697E+00  0.34024093465E-01  0.89159935164E+00  0.88000000000E+00 0.  1.
        -11    1    4    4    0    0  0.37448654726E-01  0.19399765015E-01 -0.13762201784E-01  0.44366788732E-01  0.51100000000E-03 0.  1.
         11    1    4    4    0    0  0.53180015993E-01  0.58283965516E-01 -0.23870457953E-01  0.82432970474E-01  0.51100000000E-03 0. -1.
</event>
<event>
 8    1  0.1161093E+005  0.1043930E+01  0.7957747E-01            NaN
         13   -1    0    0    0    0  0.00000000000E+00  0.00000000000E+00  0.74505805969E-08  0.10566000000E+00  0.10566000000E+00 0. -1.
     999900   -1    0    0    0    0 -0.00000000000E+00 -0.00000000000E+00 -0.74505805969E-08  0.93827000000E+00  0.93827000000E+00 0. -1.
     999902    2    1    2    0    0 -0.17935185485E-02  0.17555471812E-01  0.17241380751E-01  0.10192586298E+01  0.10189599982E+01 0.  0.
     999903    2    3    3    0    0  0.44420501499E-01 -0.11029487334E+00 -0.39660137732E-01  0.12700349292E+00  0.20465108151E-01 0.  0.
         14    1    1    2    0    0  0.17935185485E-02 -0.17555471812E-01 -0.17241380751E-01  0.24671370240E-01  0.00000000000E+00 0.  1.
     999901    1    3    3    0    0 -0.46214020047E-01  0.12785034515E+00  0.56901518483E-01  0.89225513684E+00  0.88000000000E+00 0.  1.
        -11    1    4    4    0    0  0.48690425914E-02 -0.34955777340E-01 -0.15486736843E-01  0.38544961853E-01  0.51100000000E-03 0.  1.
         11    1    4    4    0    0  0.39551458908E-01 -0.75339095999E-01 -0.24173400889E-01  0.88458531071E-01  0.51100000000E-03 0. -1.
</event>
<event>
 8    1  0.1161093E+005  0.1043930E+01  0.7957747E-01            NaN
         13   -1    0    0    0    0  0.00000000000E+00  0.00000000000E+00  0.74505805969E-08  0.10566000000E+00  0.10566000000E+00 0. -1.
     999900   -1    0    0    0    0 -0.00000000000E+00 -0.00000000000E+00 -0.74505805969E-08  0.93827000000E+00  0.93827000000E+00 0.  1.
     999902    2    1    2    0    0  0.21395177722E-02  0.20350451485E-01 -0.11885368842E-01  0.10202660949E+01  0.10199916294E+01 0.  0.
     999903    2    3    3    0    0 -0.84956914804E-01  0.98878897561E-01 -0.10699468795E-01  0.13248576635E+00  0.21054355752E-01 0.  0.
         14    1    1    2    0    0 -0.21395177722E-02 -0.20350451485E-01  0.11885368842E-01  0.23663905097E-01  0.00000000000E+00 0. -1.
     999901    1    3    3    0    0  0.87096432577E-01 -0.78528446076E-01 -0.11859000469E-02  0.88778032856E+00  0.88000000000E+00 0. -1.
        -11    1    4    4    0    0 -0.27671524003E-01  0.19005171780E-01  0.33015456787E-03  0.33574989472E-01  0.51100000000E-03 0. -1.
         11    1    4    4    0    0 -0.57285390802E-01  0.79873725782E-01 -0.11029623363E-01  0.98910776876E-01  0.51100000000E-03 0.  1.
</event>
<event>
 8    1  0.1161093E+005  0.1043930E+01  0.7957747E-01            NaN
         13   -1    0    0    0    0  0.00000000000E+00  0.00000000000E+00  0.74505805969E-08  0.10566000000E+00  0.10566000000E+00 0.  1.
     999900   -1    0    0    0    0 -0.00000000000E+00 -0.00000000000E+00 -0.74505805969E-08  0.93827000000E+00  0.93827000000E+00 0. -1.
     999902    2    1    2    0    0 -0.15063199238E-01 -0.11488786884E-01 -0.12600822491E-01  0.10211775733E+01  0.10209240732E+01 0.  0.
     999903    2    3    3    0    0  0.69533727418E-01 -0.52604912337E-01  0.94141377633E-01  0.12975114721E+00  0.19249549811E-01 0.  0.
         14    1    1    2    0    0  0.15063199238E-01  0.11488786884E-01  0.12600822491E-01  0.22752426745E-01  0.00000000000E+00 0.  1.
     999901    1    3    3    0    0 -0.84596926656E-01  0.41116125452E-01 -0.10674220012E+00  0.89142642605E+00  0.88000000000E+00 0. -1.
        -11    1    4    4    0    0  0.57799248277E-01 -0.40074805804E-01  0.64177518777E-01  0.95214275185E-01  0.51100000000E-03 0.  1.
         11    1    4    4    0    0  0.11734479141E-01 -0.12530106532E-01  0.29963858855E-01  0.34536872020E-01  0.51100000000E-03 0. -1.
</event>
<event>
 8    1  0.1161093E+005  0.1043930E+01  0.7957747E-01            NaN
         13   -1    0    0    0    0  0.00000000000E+00  0.00000000000E+00  0.74505805969E-08  0.10566000000E+00  0.10566000000E+00 0.  1.
     999900   -1    0    0    0    0 -0.00000000000E+00 -0.00000000000E+00 -0.74505805969E-08  0.93827000000E+00  0.93827000000E+00 0.  1.
     999902    2    1    2    0    0 -0.22013234329E-01  0.97709931332E-02  0.30021433819E-02  0.10196592840E+01  0.10193703879E+01 0.  0.
     999903    2    3    3    0    0  0.29878651871E-01 -0.99536554693E-01 -0.72337173020E-01  0.12819031621E+00  0.19995774813E-01 0.  0.
         14    1    1    2    0    0  0.22013234329E-01 -0.97709931332E-02 -0.30021433819E-02  0.24270716045E-01  0.00000000000E+00 0. -1.
     999901    1    3    3    0    0 -0.51891886200E-01  0.10930754783E+00  0.75339316402E-01  0.89146896775E+00  0.88000000000E+00 0. -1.
        -11    1    4    4    0    0  0.71083839698E-02 -0.30575413437E-01 -0.33191317034E-01  0.45687084356E-01  0.51100000000E-03 0. -1.
         11    1    4    4    0    0  0.22770267901E-01 -0.68961141256E-01 -0.39145855987E-01  0.82503231850E-01  0.51100000000E-03 0.  1.
</event>
<event>
 8    1  0.1161093E+005  0.1043930E+01  0.7957747E-01            NaN
         13   -1    0    0    0    0  0.00000000000E+00  0.00000000000E+00  0.74505805969E-08  0.10566000000E+00  0.10566000000E+00 0. -1.
     999900   -1    0    0    0    0 -0.00000000000E+00 -0.00000000000E+00 -0.74505805969E-08  0.93827000000E+00  0.93827000000E+00 0.  1.
     999902    2    1    2    0    0 -0.25704275143E-02  0.51257501521E-02 -0.22792846744E-01  0.10204269305E+01  0.10201562264E+01 0.  0.
     999903    2    3    3    0    0  0.12576861723E+00 -0.89908919019E-02 -0.29197230561E-01  0.13098260617E+00  0.20134140871E-01 0.  0.
         14    1    1    2    0    0  0.25704275143E-02 -0.51257501521E-02  0.22792846744E-01  0.23503069479E-01  0.00000000000E+00 0. -1.
     999901    1    3    3    0    0 -0.12833904475E+00  0.14116642054E-01  0.64043838172E-02  0.88944432435E+00  0.88000000000E+00 0.  1.
        -11    1    4    4    0    0  0.71956651897E-01  0.31083855781E-02 -0.22279580923E-01  0.75392722859E-01  0.51100000000E-03 0.  1.
         11    1    4    4    0    0  0.53811965336E-01 -0.12099277480E-01 -0.69176496388E-02  0.55589883310E-01  0.51100000000E-03 0. -1.
</event>
<event>
 8    1  0.1161093E+005  0.1043930E+01  0.7957747E-01            NaN
         13   -1    0    0    0    0  0.00000000000E+00  0.00000000000E+00  0.74505805969E-08  0.10566000000E+00  0.10566000000E+00 0. -1.
     999900   -1    0    0    0    0 -0.00000000000E+00 -0.00000000000E+00 -0.74505805969E-08  0.93827000000E+00  0.93827000000E+00 0.  1.
     999902    2    1    2    0    0  0.17140206835E-01  0.41800351999E-02  0.16747830264E-01  0.10196041043E+01  0.10193138772E+01 0.  0.
     999903    2    3    3    0    0 -0.83325915447E-02  0.82992990827E-01 -0.95719540910E-01  0.12858824862E+00  0.20382310064E-01 0.  0.
         14    1    1    2    0    0 -0.17140206835E-01 -0.41800351999E-02 -0.16747830264E-01  0.24325895732E-01  0.00000000000E+00 0.  1.
     999901    1    3    3    0    0  0.25472798380E-01 -0.78812955627E-01  0.11246737117E+00  0.89101585565E+00  0.88000000000E+00 0.  1.
        -11    1    4    4    0    0  0.28166414112E-02  0.60312233542E-02 -0.23567884641E-02  0.70798797202E-02  0.51100000000E-03 0.  1.
         11    1    4    4    0    0 -0.11149232956E-01  0.76961767473E-01 -0.93362752446E-01  0.12150836890E+00  0.51100000000E-03 0. -1.
</event>
<event>
 8    1  0.1161093E+005  0.1043930E+01  0.7957747E-01            NaN
         13   -1    0    0    0    0  0.00000000000E+00  0.00000000000E+00  0.74505805969E-08  0.10566000000E+00  0.10566000000E+00 0.  1.
     999900   -1    0    0    0    0 -0.00000000000E+00 -0.00000000000E+00 -0.74505805969E-08  0.93827000000E+00  0.93827000000E+00 0. -1.
     999902    2    1    2    0    0 -0.23474377858E-02  0.19597853777E-02  0.22829744901E-01  0.10208963621E+01  0.10206364846E+01 0.  0.
     999903    2    3    3    0    0  0.85687875028E-01 -0.78724585219E-01 -0.53510684012E-01  0.12955577340E+00  0.19527746268E-01 0.  0.
         14    1    1    2    0    0  0.23474377858E-02 -0.19597853777E-02 -0.22829744901E-01  0.23033637905E-01  0.00000000000E+00 0. -1.
     999901    1    3    3    0    0 -0.88035312814E-01  0.80684370596E-01  0.76340428913E-01  0.89134058869E+00  0.88000000000E+00 0.  1.
        -11    1    4    4    0    0  0.16271339046E-01 -0.19853287112E-01 -0.41346488666E-02  0.26005113454E-01  0.51100000000E-03 0.  1.
         11    1    4    4    0    0  0.69416535982E-01 -0.58871298107E-01 -0.49376035146E-01  0.10355065995E+00  0.51100000000E-03 0. -1.
</event>
<event>
 8    1  0.1161093E+005  0.1043930E+01  0.7957747E-01            NaN
         13   -1    0    0    0    0  0.00000000000E+00  0.00000000000E+00  0.74505805969E-08  0.10566000000E+00  0.10566000000E+00 0. -1.
     999900   -1    0    0    0    0 -0.00000000000E+00 -0.00000000000E+00 -0.74505805969E-08  0.93827000000E+00  0.93827000000E+00 0.  1.
     999902    2    1    2    0    0  0.41509856823E-02  0.32378488471E-02  0.24092941081E-01  0.10192686100E+01  0.10189702229E+01 0.  0.
     999903    2    3    3    0    0 -0.79031628514E-01 -0.85065528456E-01 -0.49882843205E-01  0.12787125168E+00  0.19509395733E-01 0.  0.
         14    1    1    2    0    0 -0.41509856823E-02 -0.32378488471E-02 -0.24092941081E-01  0.24661390010E-01  0.00000000000E+00 0.  1.
     999901    1    3    3    0    0  0.83182614197E-01  0.88303377303E-01  0.73975784286E-01  0.89139735831E+00  0.88000000000E+00 0. -1.
        -11    1    4    4    0    0 -0.88940668540E-02 -0.22225522180E-02 -0.34210524944E-02  0.97984123578E-02  0.51100000000E-03 0. -1.
         11    1    4    4    0    0 -0.70137561661E-01 -0.82842976238E-01 -0.46461790710E-01  0.11807283932E+00  0.51100000000E-03 0.  1.
</event>
<event>
 8    1  0.1161093E+005  0.1043930E+01  0.7957747E-01            NaN
         13   -1    0    0    0    0  0.00000000000E+00  0.00000000000E+00  0.74505805969E-08  0.10566000000E+00  0.10566000000E+00 0.  1.
     999900   -1    0    0    0    0 -0.00000000000E+00 -0.00000000000E+00 -0.74505805969E-08  0.93827000000E+00  0.93827000000E+00 0.  1.
     999902    2    1    2    0    0 -0.15916863537E-01 -0.85521383025E-02 -0.13633768485E-01  0.10212945133E+01  0.10210436414E+01 0.  0.
     999903    2    3    3    0    0  0.98768349172E-01 -0.49267462029E-01 -0.67470137991E-01  0.13128957497E+00  0.22411232937E-01 0.  0.
         14    1    1    2    0    0  0.15916863537E-01  0.85521383025E-02  0.13633768485E-01  0.22635486686E-01  0.00000000000E+00 0.  1.
     999901    1    3    3    0    0 -0.11468521271E+00  0.40715323726E-01  0.53836369505E-01  0.89000493835E+00  0.88000000000E+00 0. -1.
        -11    1    4    4    0    0  0.54572044032E-01 -0.38958318944E-01 -0.43932919715E-01  0.80163714737E-01  0.51100000000E-03 0.  1.
         11    1    4    4    0    0  0.44196305139E-01 -0.10309143085E-01 -0.23537218276E-01  0.51125860230E-01  0.51100000000E-03 0. -1.
</event>
<event>
 8    1  0.1161093E+005  0.1043930E+01  0.7957747E-01            NaN
         13   -1    0    0    0    0  0.00000000000E+00  0.00000000000E+00  0.74505805969E-08  0.10566000000E+00  0.10566000000E+00 0. -1.
     999900   -1    0    0    0    0 -0.00000000000E+00 -0.00000000000E+00 -0.74505805969E-08  0.93827000000E+00  0.93827000000E+00 0. -1.
     999902    2    1    2    0    0  0.18403588180E-01  0.86073290603E-02 -0.11883642853E-01  0.10203928137E+01  0.10201213139E+01 0.  0.
     999903    2    3    3    0    0  0.30515945749E-01 -0.10020707336E+00  0.72999631097E-01  0.12955475121E+00  0.21972867924E-01 0.  0.
         14    1    1    2    0    0 -0.18403588180E-01 -0.86073290603E-02  0.11883642853E-01  0.23537186300E-01  0.00000000000E+00 0.  1.
     999901    1    3    3    0    0 -0.12112357569E-01  0.10881440242E+00 -0.84883273950E-01  0.89083806249E+00  0.88000000000E+00 0. -1.
        -11    1    4    4    0    0  0.16541322959E-01 -0.83589324338E-01  0.55880419679E-01  0.10190030880E+00  0.51100000000E-03 0.  1.
         11    1    4    4    0    0  0.13974622789E-01 -0.16617749024E-01  0.17119211418E-01  0.27654442415E-01  0.51100000000E-03 0. -1.
</event>
<event>
 8    1  0.1161093E+005  0.1043930E+01  0.7957747E-01            NaN
         13   -1    0    0    0    0  0.00000000000E+00  0.00000000000E+00  0.74505805969E-08  0.10566000000E+00  0.10566000000E+00 0. -1.
     999900   -1    0    0    0    0 -0.00000000000E+00 -0.00000000000E+00 -0.74505805969E-08  0.93827000000E+00  0.93827000000E+00 0. -1.
     999902    2    1    2    0    0 -0.16785179108E-01  0.16854567260E-01 -0.58095607775E-02  0.10194438882E+01  0.10191497787E+01 0.  0.
     999903    2    3    3    0    0  0.67965235873E-01 -0.62372824211E-01  0.85269840760E-01  0.12716866732E+00  0.19780842157E-01 0.  0.
         14    1    1    2    0    0  0.16785179108E-01 -0.16854567260E-01  0.58095607775E-02  0.24486111811E-01  0.00000000000E+00 0. -1.
     999901    1    3    3    0    0 -0.84750414980E-01  0.79227391471E-01 -0.91079401538E-01  0.89227522087E+00  0.88000000000E+00 0. -1.
        -11    1    4    4    0    0  0.42513454228E-01 -0.39134319756E-01  0.40039497725E-01  0.70301573753E-01  0.51100000000E-03 0.  1.
         11    1    4    4    0    0  0.25451781645E-01 -0.23238504456E-01  0.45230343036E-01  0.56867093564E-01  0.51100000000E-03 0. -1.
</event>
<event>
 8    1  0.1161093E+005  0.1043930E+01  0.7957747E-01            NaN
         13   -1    0    0    0    0  0.00000000000E+00  0.00000000000E+00  0.74505805969E-08  0.10566000000E+00  0.10566000000E+00 0. -1.
     999900   -1    0    0    0    0 -0.00000000000E+00 -0.00000000000E+00 -0.74505805969E-08  0.93827000000E+00  0.93827000000E+00 0. -1.
     999902    2    1    2    0    0 -0.13380557456E-01  0.68860147099E-02 -0.18575800726E-01  0.10200235806E+01  0.10197433932E+01 0.  0.
     999903    2    3    3    0    0 -0.26928910380E-01 -0.12501806164E+00 -0.12506848509E-01  0.13006904501E+00  0.20170603791E-01 0.  0.
         14    1    1    2    0    0  0.13380557456E-01 -0.68860147099E-02  0.18575800726E-01  0.23906419410E-01  0.00000000000E+00 0. -1.
     999901    1    3    3    0    0  0.13548352924E-01  0.13190407635E+00 -0.60689522166E-02  0.88995453558E+00  0.88000000000E+00 0.  1.
        -11    1    4    4    0    0 -0.11048811835E-01 -0.89885807948E-01 -0.13101500709E-01  0.91506530670E-01  0.51100000000E-03 0. -1.
         11    1    4    4    0    0 -0.15880098546E-01 -0.35132253697E-01  0.59465219977E-03  0.38562514336E-01  0.51100000000E-03 0.  1.
</event>
<event>
 8    1  0.1161093E+005  0.1043930E+01  0.7957747E-01            NaN
         13   -1    0    0    0    0  0.00000000000E+00  0.00000000000E+00  0.74505805969E-08  0.10566000000E+00  0.10566000000E+00 0.  1.
     999900   -1    0    0    0    0 -0.00000000000E+00 -0.00000000000E+00 -0.74505805969E-08  0.93827000000E+00  0.93827000000E+00 0. -1.
     999902    2    1    2    0    0  0.17381532674E-01 -0.10008072786E-01 -0.18988478240E-01  0.10163104145E+01  0.10159350457E+01 0.  0.
     999903    2    3    3    0    0 -0.14415474833E-01  0.51129893362E-01  0.11018583754E+00  0.12421462116E+00  0.21593550077E-01 0.  0.
         14    1    1    2    0    0 -0.17381532674E-01  0.10008072786E-01  0.18988478240E-01  0.27619585530E-01  0.00000000000E+00 0.  1.
     999901    1    3    3    0    0  0.31797007507E-01 -0.61137966148E-01 -0.12917431578E+00  0.89209579331E+00  0.88000000000E+00 0. -1.
        -11    1    4    4    0    0  0.41654547687E-03  0.87469920627E-02  0.56297375299E-02  0.10422976827E-01  0.51100000000E-03 0. -1.
         11    1    4    4    0    0 -0.14832020310E-01  0.42382901299E-01  0.10455610001E+00  0.11379164433E+00  0.51100000000E-03 0.  1.
</event>
<event>
 8    1  0.1161093E+005  0.1043930E+01  0.7957747E-01            NaN
         13   -1    0    0    0    0  0.00000000000E+00  0.00000000000E+00  0.74505805969E-08  0.10566000000E+00  0.10566000000E+00 0. -1.
     999900   -1    0    0    0    0 -0.00000000000E+00 -0.00000000000E+00 -0.74505805969E-08  0.93827000000E+00  0.93827000000E+00 0. -1.
     999902    2    1    2    0    0 -0.11191607040E-01  0.36481706697E-02 -0.22073777639E-01  0.10189137477E+01  0.10186066034E+01 0.  0.
     999903    2    3    3    0    0 -0.91766912235E-01 -0.88548964266E-01  0.12793947652E-01  0.12975209216E+00  0.20244383681E-01 0.  0.
         14    1    1    2    0    0  0.11191607040E-01 -0.36481706697E-02  0.22073777639E-01  0.25016252250E-01  0.00000000000E+00 0. -1.
     999901    1    3    3    0    0  0.80575305195E-01  0.92197134936E-01 -0.34867725291E-01  0.88916165559E+00  0.88000000000E+00 0.  1.
        -11    1    4    4    0    0 -0.50814258061E-02  0.64088787531E-04 -0.18754512173E-03  0.51108991154E-02  0.51100000000E-03 0. -1.
         11    1    4    4    0    0 -0.86685486429E-01 -0.88613053054E-01  0.12981492773E-01  0.12464119305E+00  0.51100000000E-03 0.  1.
</event>
<event>
 8    1  0.1161093E+005  0.1043930E+01  0.7957747E-01            NaN
         13   -1    0    0    0    0  0.00000000000E+00  0.00000000000E+00  0.74505805969E-08  0.10566000000E+00  0.10566000000E+00 0.  1.
     999900   -1    0    0    0    0 -0.00000000000E+00 -0.00000000000E+00 -0.74505805969E-08  0.93827000000E+00  0.93827000000E+00 0. -1.
     999902    2    1    2    0    0 -0.95017720436E-02  0.12203545256E-01  0.17701027069E-01  0.10204239040E+01  0.10201531294E+01 0.  0.
     999903    2    3    3    0    0  0.61624445658E-01  0.10763348410E+00 -0.36033022116E-01  0.13078737144E+00  0.20601423291E-01 0.  0.
         14    1    1    2    0    0  0.95017720436E-02 -0.12203545256E-01 -0.17701027069E-01  0.23506095977E-01  0.00000000000E+00 0. -1.
     999901    1    3    3    0    0 -0.71126217701E-01 -0.95429938845E-01  0.53734049185E-01  0.88963653259E+00  0.88000000000E+00 0.  1.
        -11    1    4    4    0    0  0.51271165840E-01  0.79911458381E-01 -0.19648708120E-01  0.96958271843E-01  0.51100000000E-03 0.  1.
         11    1    4    4    0    0  0.10353279818E-01  0.27722025721E-01 -0.16384313996E-01  0.33829099592E-01  0.51100000000E-03 0. -1.
</event>
<event>
 8    1  0.1161093E+005  0.1043930E+01  0.7957747E-01            NaN
         13   -1    0    0    0    0  0.00000000000E+00  0.00000000000E+00  0.74505805969E-08  0.10566000000E+00  0.10566000000E+00 0.  1.
     999900   -1    0    0    0    0 -0.00000000000E+00 -0.00000000000E+00 -0.74505805969E-08  0.93827000000E+00  0.93827000000E+00 0. -1.
     999902    2    1    2    0    0  0.22805333640E-01  0.67880712868E-03 -0.10185812800E-01  0.10189441079E+01  0.10186377178E+01 0.  0.
     999903    2    3    3    0    0  0.52190101826E-01 -0.94218580214E-01 -0.72135116945E-01  0.13119037234E+00  0.20161624714E-01 0.  0.
         14    1    1    2    0    0 -0.22805333640E-01 -0.67880712868E-03  0.10185812800E-01  0.24985892098E-01  0.00000000000E+00 0.  1.
     999901    1    3    3    0    0 -0.29384768187E-01  0.94897387342E-01  0.61949304144E-01  0.88775373557E+00  0.88000000000E+00 0.  1.
        -11    1    4    4    0    0  0.48684475776E-01 -0.93952753791E-01 -0.68215933444E-01  0.12590064664E+00  0.51100000000E-03 0.  1.
         11    1    4    4    0    0  0.35056260502E-02 -0.26582642313E-03 -0.39191835002E-02  0.52897257017E-02  0.51100000000E-03 0. -1.
</event>
<event>
 8    1  0.1161093E+005  0.1043930E+01  0.7957747E-01            NaN
         13   -1    0    0    0    0  0.00000000000E+00  0.00000000000E+00  0.74505805969E-08  0.10566000000E+00  0.10566000000E+00 0.  1.
     999900   -1    0    0    0    0 -0.00000000000E+00 -0.00000000000E+00 -0.74505805969E-08  0.93827000000E+00  0.93827000000E+00 0. -1.
     999902    2    1    2    0    0  0.22092646857E-02 -0.10542630824E-01  0.20132975066E-01  0.10210965903E+01  0.10208412619E+01 0.  0.
     999903    2    3    3    0    0 -0.48136348249E-01  0.11234885693E+00  0.42132061478E-01  0.13086012825E+00  0.20245712750E-01 0.  0.
         14    1    1    2    0    0 -0.22092646857E-02  0.10542630824E-01 -0.20132975066E-01  0.22833409736E-01  0.00000000000E+00 0. -1.
     999901    1    3    3    0    0  0.50345612934E-01 -0.12289148775E+00 -0.21999086411E-01  0.89023646202E+00  0.88000000000E+00 0. -1.
        -11    1    4    4    0    0 -0.26224095105E-01  0.84345381841E-01  0.30314687144E-01  0.93386765549E-01  0.51100000000E-03 0. -1.
         11    1    4    4    0    0 -0.21912253144E-01  0.28003475086E-01  0.11817374334E-01  0.37473362698E-01  0.51100000000E-03 0.  1.
</event>
<event>
 8    1  0.1161093E+005  0.1043930E+01  0.7957747E-01            NaN
         13   -1    0    0    0    0  0.00000000000E+00  0.00000000000E+00  0.74505805969E-08  0.10566000000E+00  0.10566000000E+00 0.  1.
     999900   -1    0    0    0    0 -0.00000000000E+00 -0.00000000000E+00 -0.74505805969E-08  0.93827000000E+00  0.93827000000E+00 0.  1.
     999902    2    1    2    0    0 -0.61748157754E-03 -0.23743539876E-01 -0.65313917840E-02  0.10192967694E+01  0.10189990717E+01 0.  0.
     999903    2    3    3    0    0  0.60583106776E-02 -0.71660743713E-01  0.10761147807E+00  0.13060716144E+00  0.17493858624E-01 0.  0.
         14    1    1    2    0    0  0.61748157754E-03  0.23743539876E-01  0.65313917840E-02  0.24633230563E-01  0.00000000000E+00 0. -1.
     999901    1    3    3    0    0 -0.66757922552E-02  0.47917203838E-01 -0.11414286985E+00  0.88868960800E+00  0.88000000000E+00 0.  1.
        -11    1    4    4    0    0  0.56980802623E-02 -0.61613087906E-01  0.10136599371E+00  0.11876012177E+00  0.51100000000E-03 0.  1.
         11    1    4    4    0    0  0.36023041529E-03 -0.10047655807E-01  0.62454843576E-02  0.11847039673E-01  0.51100000000E-03 0. -1.
</event>
<event>
 8    1  0.1161093E+005  0.1043930E+01  0.7957747E-01            NaN
         13   -1    0    0    0    0  0.00000000000E+00  0.00000000000E+00  0.74505805969E-08  0.10566000000E+00  0.10566000000E+00 0.  1.
     999900   -1    0    0    0    0 -0.00000000000E+00 -0.00000000000E+00 -0.74505805969E-08  0.93827000000E+00  0.93827000000E+00 0. -1.
     999902    2    1    2    0    0  0.50928224771E-02  0.22784982430E-01 -0.79629685709E-03  0.10205692133E+01  0.10203018146E+01 0.  0.
     999903    2    3    3    0    0  0.21110041251E-01 -0.34588126820E-01 -0.12220643827E+00  0.13023857396E+00  0.19639252358E-01 0.  0.
         14    1    1    2    0    0 -0.50928224771E-02 -0.22784982430E-01  0.79629685709E-03  0.23360786669E-01  0.00000000000E+00 0.  1.
     999901    1    3    3    0    0 -0.16017218774E-01  0.57373109250E-01  0.12141014142E+00  0.89033063937E+00  0.88000000000E+00 0.  1.
        -11    1    4    4    0    0  0.73632152019E-02 -0.23583254294E-01 -0.92092498600E-01  0.95350281807E-01  0.51100000000E-03 0. -1.
         11    1    4    4    0    0  0.13746826049E-01 -0.11004872526E-01 -0.30113939674E-01  0.34888292154E-01  0.51100000000E-03 0.  1.
</event>
<event>
 8    1  0.1161093E+005  0.1043930E+01  0.7957747E-01            NaN
         13   -1    0    0    0    0  0.00000000000E+00  0.00000000000E+00  0.74505805969E-08  0.10566000000E+00  0.10566000000E+00 0.  1.
     999900   -1    0    0    0    0 -0.00000000000E+00 -0.00000000000E+00 -0.74505805969E-08  0.93827000000E+00  0.93827000000E+00 0.  1.
     999902    2    1    2    0    0 -0.12292577079E-01  0.12281136847E-01 -0.15258924110E-01  0.10208049370E+01  0.10205429687E+01 0.  0.
     999903    2    3    3    0    0  0.96370794430E-01 -0.83206527600E-01 -0.81610978381E-02  0.12896638575E+00  0.18843271501E-01 0.  0.
         14    1    1    2    0    0  0.12292577079E-01 -0.12281136847E-01  0.15258924110E-01  0.23125062994E-01  0.00000000000E+00 0. -1.
     999901    1    3    3    0    0 -0.10866337151E+00  0.95487664448E-01 -0.70978262716E-02  0.89183855126E+00  0.88000000000E+00 0.  1.
        -11    1    4    4    0    0  0.88431821760E-01 -0.79158334741E-01 -0.31467596463E-02  0.11872822864E+00  0.51100000000E-03 0.  1.
         11    1    4    4    0    0  0.79389726703E-02 -0.40481928591E-02 -0.50143381918E-02  0.10238157109E-01  0.51100000000E-03 0. -1.
</event>
<event>
 8    1  0.1161093E+005  0.1043930E+01  0.7957747E-01            NaN
         13   -1    0    0    0    0  0.00000000000E+00  0.00000000000E+00  0.74505805969E-08  0.10566000000E+00  0.10566000000E+00 0. -1.
     999900   -1    0    0    0    0 -0.00000000000E+00 -0.00000000000E+00 -0.74505805969E-08  0.93827000000E+00  0.93827000000E+00 0. -1.
     999902    2    1    2    0    0 -0.17769664362E-02  0.18079002672E-01 -0.14356676931E-01  0.10207756890E+01  0.10205130499E+01 0.  0.
     999903    2    3    3    0    0  0.73499464974E-01  0.90562316909E-02 -0.10800353802E+00  0.13256530503E+00  0.20606047404E-01 0.  0.
         14    1    1    2    0    0  0.17769664362E-02 -0.18079002672E-01  0.14356676931E-01  0.23154311042E-01  0.00000000000E+00 0. -1.
     999901    1    3    3    0    0 -0.75276431410E-01  0.90227709815E-02  0.93646861089E-01  0.88821038393E+00  0.88000000000E+00 0.  1.
        -11    1    4    4    0    0  0.11769985753E-01  0.89997468930E-02 -0.25907592915E-01  0.29849497490E-01  0.51100000000E-03 0. -1.
         11    1    4    4    0    0  0.61729479220E-01  0.56484797899E-04 -0.82095945104E-01  0.10271580754E+00  0.51100000000E-03 0.  1.
</event>
<event>
 8    1  0.1161093E+005  0.1043930E+01  0.7957747E-01            NaN
         13   -1    0    0    0    0  0.00000000000E+00  0.00000000000E+00  0.74505805969E-08  0.10566000000E+00  0.10566000000E+00 0. -1.
     999900   -1    0    0    0    0 -0.00000000000E+00 -0.00000000000E+00 -0.74505805969E-08  0.93827000000E+00  0.93827000000E+00 0. -1.
     999902    2    1    2    0    0 -0.13643657167E-01  0.85694476687E-03 -0.19593675186E-01  0.10200386660E+01  0.10197588363E+01 0.  0.
     999903    2    3    3    0    0 -0.10170804103E+00  0.60595740325E-01  0.51641596380E-01  0.13077013322E+00  0.20435359284E-01 0.  0.
         14    1    1    2    0    0  0.13643657167E-01 -0.85694476687E-03  0.19593675186E-01  0.23891334047E-01  0.00000000000E+00 0. -1.
     999901    1    3    3    0    0  0.88064383864E-01 -0.59738795558E-01 -0.71235271566E-01  0.88926853274E+00  0.88000000000E+00 0.  1.
        -11    1    4    4    0    0 -0.53099033729E-01  0.41937582117E-01  0.23827749993E-01  0.71737653764E-01  0.51100000000E-03 0.  1.
         11    1    4    4    0    0 -0.48609007302E-01  0.18658158208E-01  0.27813846387E-01  0.59032479453E-01  0.51100000000E-03 0. -1.
</event>
<event>
 8    1  0.1161093E+005  0.1043930E+01  0.7957747E-01            NaN
         13   -1    0    0    0    0  0.00000000000E+00  0.00000000000E+00  0.74505805969E-08  0.10566000000E+00  0.10566000000E+00 0.  1.
     999900   -1    0    0    0    0 -0.00000000000E+00 -0.00000000000E+00 -0.74505805969E-08  0.93827000000E+00  0.93827000000E+00 0.  1.
     999902    2    1    2    0    0 -0.15392265228E-01  0.41235850544E-02  0.16656813577E-01  0.10208784226E+01  0.10206181355E+01 0.  0.
     999903    2    3    3    0    0 -0.90403935118E-01 -0.93553634280E-01 -0.23838671439E-02  0.13209828256E+00  0.22784193203E-01 0.  0.
         14    1    1    2    0    0  0.15392265228E-01 -0.41235850544E-02 -0.16656813577E-01  0.23051577410E-01  0.00000000000E+00 0. -1.
     999901    1    3    3    0    0  0.75011669890E-01  0.97677219334E-01  0.19040680721E-01  0.88878014003E+00  0.88000000000E+00 0. -1.
        -11    1    4    4    0    0 -0.15515987124E-01 -0.29947949906E-01  0.15013386078E-02  0.33765969534E-01  0.51100000000E-03 0. -1.
         11    1    4    4    0    0 -0.74887947994E-01 -0.63605684374E-01 -0.38852057517E-02  0.98332313022E-01  0.51100000000E-03 0.  1.
</event>
<event>
 8    1  0.1161093E+005  0.1043930E+01  0.7957747E-01            NaN
         13   -1    0    0    0    0  0.00000000000E+00  0.00000000000E+00  0.74505805969E-08  0.10566000000E+00  0.10566000000E+00 0. -1.
     999900   -1    0    0    0    0 -0.00000000000E+00 -0.00000000000E+00 -0.74505805969E-08  0.93827000000E+00  0.93827000000E+00 0.  1.
     999902    2    1    2    0    0  0.17630727126E-01 -0.12811024027E-01  0.63443300226E-02  0.10212316433E+01  0.10209793601E+01 0.  0.
     999903    2    3    3    0    0 -0.11236319188E-02 -0.12309287340E+00 -0.45284587635E-01  0.13264886296E+00  0.19796690075E-01 0.  0.
         14    1    1    2    0    0 -0.17630727126E-01  0.12811024027E-01 -0.63443300226E-02  0.22698356748E-01  0.00000000000E+00 0.  1.
     999901    1    3    3    0    0  0.18754359045E-01  0.11028184937E+00  0.51628917658E-01  0.88858278029E+00  0.88000000000E+00 0. -1.
        -11    1    4    4    0    0 -0.34960316568E-02 -0.78843447534E-01 -0.19194164230E-01  0.81223078727E-01  0.51100000000E-03 0. -1.
         11    1    4    4    0    0  0.23723997380E-02 -0.44249425866E-01 -0.26090423405E-01  0.51425784238E-01  0.51100000000E-03 0.  1.
</event>
<event>
 8    1  0.1161093E+005  0.1043930E+01  0.7957747E-01            NaN
         13   -1    0    0    0    0  0.00000000000E+00  0.00000000000E+00  0.74505805969E-08  0.10566000000E+00  0.10566000000E+00 0. -1.
     999900   -1    0    0    0    0 -0.00000000000E+00 -0.00000000000E+00 -0.74505805969E-08  0.93827000000E+00  0.93827000000E+00 0.  1.
     999902    2    1    2    0    0  0.12354491844E-01  0.16934337763E-01  0.12259115709E-01  0.10196464421E+01  0.10193572366E+01 0.  0.
     999903    2    3    3    0    0 -0.78039145038E-01  0.10117912357E+00  0.20803958987E-01  0.13097259428E+00  0.19841686921E-01 0.  0.
         14    1    1    2    0    0 -0.12354491844E-01 -0.16934337763E-01 -0.12259115709E-01  0.24283557856E-01  0.00000000000E+00 0. -1.
     999901    1    3    3    0    0  0.90393636882E-01 -0.84244785803E-01 -0.85448432780E-02  0.88867384786E+00  0.88000000000E+00 0.  1.
        -11    1    4    4    0    0 -0.73635213539E-02  0.12077327960E-01  0.86673122300E-02  0.16597190114E-01  0.51100000000E-03 0. -1.
         11    1    4    4    0    0 -0.70675623684E-01  0.89101795607E-01  0.12136646757E-01  0.11437540417E+00  0.51100000000E-03 0.  1.
</event>
<event>
 8    1  0.1161093E+005  0.1043930E+01  0.7957747E-01            NaN
         13   -1    0    0    0    0  0.00000000000E+00  0.00000000000E+00  0.74505805969E-08  0.10566000000E+00  0.10566000000E+00 0. -1.
     999900   -1    0    0    0    0 -0.00000000000E+00 -0.00000000000E+00 -0.74505805969E-08  0.93827000000E+00  0.93827000000E+00 0.  1.
     999902    2    1    2    0    0  0.23108830552E-01 -0.26774945499E-03 -0.44517704733E-02  0.10203947499E+01  0.10201232953E+01 0.  0.
     999903    2    3    3    0    0 -0.80623068535E-01  0.72418628607E-01  0.66630991263E-01  0.12848871474E+00  0.18031191598E-01 0.  0.
         14    1    1    2    0    0 -0.23108830552E-01  0.26774945499E-03  0.44517704733E-02  0.23535250150E-01  0.00000000000E+00 0.  1.
     999901    1    3    3    0    0  0.10373189909E+00 -0.72686378062E-01 -0.71082761736E-01  0.89190603511E+00  0.88000000000E+00 0.  1.
        -11    1    4    4    0    0 -0.78209035141E-01  0.73314432406E-01  0.64509512148E-01  0.12511353826E+00  0.51100000000E-03 0. -1.
         11    1    4    4    0    0 -0.24140333940E-02 -0.89580379982E-03  0.21214791147E-02  0.33751764856E-02  0.51100000000E-03 0.  1.
</event>
<event>
 8    1  0.1161093E+005  0.1043930E+01  0.7957747E-01            NaN
         13   -1    0    0    0    0  0.00000000000E+00  0.00000000000E+00  0.74505805969E-08  0.10566000000E+00  0.10566000000E+00 0.  1.
     999900   -1    0    0    0    0 -0.00000000000E+00 -0.00000000000E+00 -0.74505805969E-08  0.93827000000E+00  0.93827000000E+00 0. -1.
     999902    2    1    2    0    0  0.18978545464E-01 -0.12922264370E-01  0.68129625671E-02  0.10199803327E+01  0.10196991186E+01 0.  0.
     999903    2    3    3    0    0 -0.12505780614E+00  0.10939361578E-01 -0.13366277280E-01  0.12772305507E+00  0.19375162454E-01 0.  0.
         14    1    1    2    0    0 -0.18978545464E-01  0.12922264370E-01 -0.68129625671E-02  0.23949667291E-01  0.00000000000E+00 0. -1.
     999901    1    3    3    0    0  0.14403635160E+00 -0.23861625948E-01  0.20179239847E-01  0.89225727764E+00  0.88000000000E+00 0. -1.
        -11    1    4    4    0    0 -0.80917349771E-01 -0.12210558284E-02 -0.42715846616E-02  0.81040829388E-01  0.51100000000E-03 0. -1.
         11    1    4    4    0    0 -0.44140456369E-01  0.12160417406E-01 -0.90946926185E-02  0.46682225684E-01  0.51100000000E-03 0.  1.
</event>
<event>
 8    1  0.1161093E+005  0.1043930E+01  0.7957747E-01            NaN
         13   -1    0    0    0    0  0.00000000000E+00  0.00000000000E+00  0.74505805969E-08  0.10566000000E+00  0.10566000000E+00 0.  1.
     999900   -1    0    0    0    0 -0.00000000000E+00 -0.00000000000E+00 -0.74505805969E-08  0.93827000000E+00  0.93827000000E+00 0. -1.
     999902    2    1    2    0    0  0.35277876642E-02 -0.13392678173E-01  0.19672928384E-01  0.10198710469E+01  0.10195872297E+01 0.  0.
     999903    2    3    3    0    0 -0.83712108144E-01 -0.76467620256E-01  0.64491213918E-01  0.13217857396E+00  0.21378604837E-01 0.  0.
         14    1    1    2    0    0 -0.35277876642E-02  0.13392678173E-01 -0.19672928384E-01  0.24058953129E-01  0.00000000000E+00 0. -1.
     999901    1    3    3    0    0  0.87239895808E-01  0.63074942083E-01 -0.44818285533E-01  0.88769247291E+00  0.88000000000E+00 0. -1.
        -11    1    4    4    0    0 -0.27821083807E-01 -0.21762887968E-01  0.95291257394E-02  0.36588268000E-01  0.51100000000E-03 0. -1.
         11    1    4    4    0    0 -0.55891024337E-01 -0.54704732288E-01  0.54962088178E-01  0.95590305963E-01  0.51100000000E-03 0.  1.
</event>
<event>
 8    1  0.1161093E+005  0.1043930E+01  0.7957747E-01            NaN
         13   -1    0    0    0    0  0.00000000000E+00  0.00000000000E+00  0.74505805969E-08  0.10566000000E+00  0.10566000000E+00 0.  1.
     999900   -1    0    0    0    0 -0.00000000000E+00 -0.00000000000E+00 -0.74505805969E-08  0.93827000000E+00  0.93827000000E+00 0. -1.
     999902    2    1    2    0    0  0.21043911836E-01 -0.49390278786E-02  0.72085142005E-02  0.10211439758E+01  0.10208897180E+01 0.  0.
     999903    2    3    3    0    0  0.40790137386E-01 -0.11778112082E+00 -0.40136661772E-01  0.13245684466E+00  0.19940821222E-01 0.  0.
         14    1    1    2    0    0 -0.21043911836E-01  0.49390278786E-02 -0.72085142005E-02  0.22786024198E-01  0.00000000000E+00 0.  1.
     999901    1    3    3    0    0 -0.19746225550E-01  0.11284209294E+00  0.47345175972E-01  0.88868713114E+00  0.88000000000E+00 0.  1.
        -11    1    4    4    0    0  0.14804551870E-01 -0.19034474531E-01 -0.75829384138E-02  0.25283355251E-01  0.51100000000E-03 0. -1.
         11    1    4    4    0    0  0.25985585516E-01 -0.98746646287E-01 -0.32553723358E-01  0.10717348941E+00  0.51100000000E-03 0.  1.
</event>
<event>
 8    1  0.1248401E+005  0.1043930E+01  0.7957747E-01            NaN
         13   -1    0    0    0    0  0.00000000000E+00  0.00000000000E+00  0.74505805969E-08  0.10566000000E+00  0.10566000000E+00 0.  1.
     999900   -1    0    0    0    0 -0.00000000000E+00 -0.00000000000E+00 -0.74505805969E-08  0.93827000000E+00  0.93827000000E+00 0.  1.
     999902    2    1    2    0    0  0.72834244987E-02  0.20642659957E-01 -0.72774613625E-02  0.10208620758E+01  0.10206014152E+01 0.  0.
     999903    2    3    3    0    0 -0.10140930692E+00 -0.75537659575E-01 -0.53703260069E-02  0.12897172330E+00  0.24800795666E-01 0.  0.
         14    1    1    2    0    0 -0.72834244987E-02 -0.20642659957E-01  0.72774613625E-02  0.23067924190E-01  0.00000000000E+00 0.  1.
     999901    1    3    3    0    0  0.10869273142E+00  0.96180319532E-01 -0.19071353556E-02  0.89189035251E+00  0.88000000000E+00 0.  1.
        -11    1    4    4    0    0 -0.35246228345E-01 -0.35788390370E-01  0.72706101794E-02  0.50756560081E-01  0.51100000000E-03 0.  1.
         11    1    4    4    0    0 -0.66163078579E-01 -0.39749269205E-01 -0.12640936186E-01  0.78215163223E-01  0.51100000000E-03 0. -1.
</event>
<event>
 8    1  0.1161093E+005  0.1043930E+01  0.7957747E-01            NaN
         13   -1    0    0    0    0  0.00000000000E+00  0.00000000000E+00  0.74505805969E-08  0.10566000000E+00  0.10566000000E+00 0. -1.
     999900   -1    0    0    0    0 -0.00000000000E+00 -0.00000000000E+00 -0.74505805969E-08  0.93827000000E+00  0.93827000000E+00 0. -1.
     999902    2    1    2    0    0 -0.10752323833E-01 -0.14264096552E-01 -0.15304146696E-01  0.10204078015E+01  0.10201366514E+01 0.  0.
     999903    2    3    3    0    0 -0.11974116747E+00  0.33186263497E-01  0.36561105053E-01  0.13090225957E+00  0.18958161445E-01 0.  0.
         14    1    1    2    0    0  0.10752323833E-01  0.14264096552E-01  0.15304146696E-01  0.23522198544E-01  0.00000000000E+00 0. -1.
     999901    1    3    3    0    0  0.10898884364E+00 -0.47450360049E-01 -0.51865251749E-01  0.88950554189E+00  0.88000000000E+00 0.  1.
        -11    1    4    4    0    0 -0.10288598846E+00  0.23778313638E-01  0.36058650794E-01  0.11158594104E+00  0.51100000000E-03 0. -1.
         11    1    4    4    0    0 -0.16855179014E-01  0.94079498587E-02  0.50245425925E-03  0.19316318527E-01  0.51100000000E-03 0.  1.
</event>
<event>
 8    1  0.1161093E+005  0.1043930E+01  0.7957747E-01            NaN
         13   -1    0    0    0    0  0.00000000000E+00  0.00000000000E+00  0.74505805969E-08  0.10566000000E+00  0.10566000000E+00 0. -1.
     999900   -1    0    0    0    0 -0.00000000000E+00 -0.00000000000E+00 -0.74505805969E-08  0.93827000000E+00  0.93827000000E+00 0. -1.
     999902    2    1    2    0    0 -0.77964372290E-02 -0.18174451012E-01 -0.12884988347E-01  0.10203266522E+01  0.10200536060E+01 0.  0.
     999903    2    3    3    0    0 -0.12181655150E+00  0.37338583039E-01 -0.23134517407E-01  0.13117686939E+00  0.20945719499E-01 0.  0.
         14    1    1    2    0    0  0.77964372290E-02  0.18174451012E-01  0.12884988347E-01  0.23603347809E-01  0.00000000000E+00 0. -1.
     999901    1    3    3    0    0  0.11402011427E+00 -0.55513034051E-01  0.10249529060E-01  0.88914978280E+00  0.88000000000E+00 0.  1.
        -11    1    4    4    0    0 -0.30421379806E-01  0.18483496091E-01 -0.31442512656E-02  0.35738598379E-01  0.51100000000E-03 0.  1.
         11    1    4    4    0    0 -0.91395171692E-01  0.18855086948E-01 -0.19990266142E-01  0.95438271013E-01  0.51100000000E-03 0. -1.
</event>
<event>
 8    1  0.1161093E+005  0.1043930E+01  0.7957747E-01            NaN
         13   -1    0    0    0    0  0.00000000000E+00  0.00000000000E+00  0.74505805969E-08  0.10566000000E+00  0.10566000000E+00 0. -1.
     999900   -1    0    0    0    0 -0.00000000000E+00 -0.00000000000E+00 -0.74505805969E-08  0.93827000000E+00  0.93827000000E+00 0.  1.
     999902    2    1    2    0    0  0.16310987510E-01 -0.11984744299E-01 -0.12204329985E-01  0.10202946857E+01  0.10200208908E+01 0.  0.
     999903    2    3    3    0    0  0.95420396414E-01  0.47422598798E-03 -0.90689289936E-01  0.13317946580E+00  0.20172899154E-01 0.  0.
         14    1    1    2    0    0 -0.16310987510E-01  0.11984744299E-01  0.12204329985E-01  0.23635314253E-01  0.00000000000E+00 0. -1.
     999901    1    3    3    0    0 -0.79109408904E-01 -0.12458970287E-01  0.78484959951E-01  0.88711521994E+00  0.88000000000E+00 0.  1.
        -11    1    4    4    0    0  0.18806204721E-01 -0.61714165160E-02 -0.12003427308E-01  0.23153900448E-01  0.51100000000E-03 0.  1.
         11    1    4    4    0    0  0.76614191692E-01  0.66456425039E-02 -0.78685862628E-01  0.11002556535E+00  0.51100000000E-03 0. -1.
</event>
<event>
 8    1  0.1161093E+005  0.1043930E+01  0.7957747E-01            NaN
         13   -1    0    0    0    0  0.00000000000E+00  0.00000000000E+00  0.74505805969E-08  0.10566000000E+00  0.10566000000E+00 0. -1.
     999900   -1    0    0    0    0 -0.00000000000E+00 -0.00000000000E+00 -0.74505805969E-08  0.93827000000E+00  0.93827000000E+00 0. -1.
     999902    2    1    2    0    0  0.12477682960E-01 -0.13334898093E-01  0.13290617514E-01  0.10213434422E+01  0.10210936658E+01 0.  0.
     999903    2    3    3    0    0 -0.66211610840E-01 -0.83752545472E-01 -0.73042605207E-01  0.13083567954E+00  0.19603228866E-01 0.  0.
         14    1    1    2    0    0 -0.12477682960E-01  0.13334898093E-01 -0.13290617514E-01  0.22586557797E-01  0.00000000000E+00 0.  1.
     999901    1    3    3    0    0  0.78689293800E-01  0.70417647379E-01  0.86333222720E-01  0.89050776266E+00  0.88000000000E+00 0. -1.
        -11    1    4    4    0    0 -0.33853183938E-01 -0.29190995418E-01 -0.35819894577E-01  0.57284188436E-01  0.51100000000E-03 0. -1.
         11    1    4    4    0    0 -0.32358426902E-01 -0.54561550054E-01 -0.37222710629E-01  0.73551491103E-01  0.51100000000E-03 0.  1.
</event>
<event>
 8    1  0.1161093E+005  0.1043930E+01  0.7957747E-01            NaN
         13   -1    0    0    0    0  0.00000000000E+00  0.00000000000E+00  0.74505805969E-08  0.10566000000E+00  0.10566000000E+00 0. -1.
     999900   -1    0    0    0    0 -0.00000000000E+00 -0.00000000000E+00 -0.74505805969E-08  0.93827000000E+00  0.93827000000E+00 0. -1.
     999902    2    1    2    0    0 -0.84627502587E-02 -0.21058296296E-01 -0.27054936516E-02  0.10210741543E+01  0.10208183183E+01 0.  0.
     999903    2    3    3    0    0  0.11878044130E+00  0.21603651050E-01  0.43117491002E-01  0.12972090368E+00  0.19821297766E-01 0.  0.
         14    1    1    2    0    0  0.84627502587E-02  0.21058296296E-01  0.27054936516E-02  0.22855845658E-01  0.00000000000E+00 0.  1.
     999901    1    3    3    0    0 -0.12724319156E+00 -0.42661947346E-01 -0.45822984654E-01  0.89135325067E+00  0.88000000000E+00 0. -1.
        -11    1    4    4    0    0  0.19329301842E-01  0.10736072004E-01  0.51042921486E-02  0.22698019101E-01  0.51100000000E-03 0. -1.
         11    1    4    4    0    0  0.99451139463E-01  0.10867579046E-01  0.38013198854E-01  0.10702288458E+00  0.51100000000E-03 0.  1.
</event>
<event>
 8    1  0.1161093E+005  0.1043930E+01  0.7957747E-01            NaN
         13   -1    0    0    0    0  0.00000000000E+00  0.00000000000E+00  0.74505805969E-08  0.10566000000E+00  0.10566000000E+00 0. -1.
     999900   -1    0    0    0    0 -0.00000000000E+00 -0.00000000000E+00 -0.74505805969E-08  0.93827000000E+00  0.93827000000E+00 0. -1.
     999902    2    1    2    0    0 -0.72493233078E-02 -0.14807424295E-01 -0.14508264770E-01  0.10219686191E+01  0.10217326246E+01 0.  0.
     999903    2    3    3    0    0 -0.13308480953E-01 -0.11538081876E+00  0.60872116728E-01  0.13301759519E+00  0.22325255459E-01 0.  0.
         14    1    1    2    0    0  0.72493233078E-02  0.14807424295E-01  0.14508264770E-01  0.21961380861E-01  0.00000000000E+00 0. -1.
     999901    1    3    3    0    0  0.60591576455E-02  0.10057339447E+00 -0.75380381498E-01  0.88895102395E+00  0.88000000000E+00 0.  1.
        -11    1    4    4    0    0 -0.62545436148E-02 -0.66179491098E-01  0.46993418435E-01  0.81409378176E-01  0.51100000000E-03 0.  1.
         11    1    4    4    0    0 -0.70539373386E-02 -0.49201327665E-01  0.13878698293E-01  0.51608217014E-01  0.51100000000E-03 0. -1.
</event>
<event>
 8    1  0.1161093E+005  0.1043930E+01  0.7957747E-01            NaN
         13   -1    0    0    0    0  0.00000000000E+00  0.00000000000E+00  0.74505805969E-08  0.10566000000E+00  0.10566000000E+00 0.  1.
     999900   -1    0    0    0    0 -0.00000000000E+00 -0.00000000000E+00 -0.74505805969E-08  0.93827000000E+00  0.93827000000E+00 0.  1.
     999902    2    1    2    0    0  0.87466969852E-02  0.21497284856E-01  0.39263776782E-02  0.10203916397E+01  0.10201201125E+01 0.  0.
     999903    2    3    3    0    0  0.30662177784E-01 -0.13435054452E-01  0.12533594807E+00  0.13109931407E+00  0.18901334261E-01 0.  0.
         14    1    1    2    0    0 -0.87466969852E-02 -0.21497284856E-01 -0.39263776782E-02  0.23538360308E-01  0.00000000000E+00 0. -1.
     999901    1    3    3    0    0 -0.21915480799E-01  0.34932339308E-01 -0.12140957039E+00  0.88929232562E+00  0.88000000000E+00 0.  1.
        -11    1    4    4    0    0  0.10466318965E-01  0.42721678413E-02  0.44504727983E-01  0.45920879615E-01  0.51100000000E-03 0. -1.
         11    1    4    4    0    0  0.20195858819E-01 -0.17707222294E-01  0.80831220085E-01  0.85178434455E-01  0.51100000000E-03 0.  1.
</event>
<event>
 8    1  0.1161093E+005  0.1043930E+01  0.7957747E-01            NaN
         13   -1    0    0    0    0  0.00000000000E+00  0.00000000000E+00  0.74505805969E-08  0.10566000000E+00  0.10566000000E+00 0. -1.
     999900   -1    0    0    0    0 -0.00000000000E+00 -0.00000000000E+00 -0.74505805969E-08  0.93827000000E+00  0.93827000000E+00 0. -1.
     999902    2    1    2    0    0 -0.11877670908E-01 -0.21201308163E-01  0.24071047140E-02  0.10195093389E+01  0.10192168187E+01 0.  0.
     999903    2    3    3    0    0 -0.12155714813E+00  0.24718094632E-01  0.36338376988E-01  0.13086457834E+00  0.20443477196E-01 0.  0.
         14    1    1    2    0    0  0.11877670908E-01  0.21201308163E-01 -0.24071047140E-02  0.24420661071E-01  0.00000000000E+00 0.  1.
     999901    1    3    3    0    0  0.10967947722E+00 -0.45919402795E-01 -0.33931272274E-01  0.88864476058E+00  0.88000000000E+00 0. -1.
        -11    1    4    4    0    0 -0.26818623874E-01  0.12747922224E-01  0.36030925973E-02  0.29916408621E-01  0.51100000000E-03 0.  1.
         11    1    4    4    0    0 -0.94738524254E-01  0.11970172408E-01  0.32735284391E-01  0.10094816972E+00  0.51100000000E-03 0. -1.
</event>
<event>
 8    1  0.1161093E+005  0.1043930E+01  0.7957747E-01            NaN
         13   -1    0    0    0    0  0.00000000000E+00  0.00000000000E+00  0.74505805969E-08  0.10566000000E+00  0.10566000000E+00 0. -1.
     999900   -1    0    0    0    0 -0.00000000000E+00 -0.00000000000E+00 -0.74505805969E-08  0.93827000000E+00  0.93827000000E+00 0. -1.
     999902    2    1    2    0    0 -0.15701524993E-01 -0.16623367581E-01  0.90662200253E-02  0.10193318175E+01  0.10190349766E+01 0.  0.
     999903    2    3    3    0    0  0.10105095628E+00 -0.49570308905E-01  0.60841595971E-01  0.12950187173E+00  0.20013088036E-01 0.  0.
         14    1    1    2    0    0  0.15701524993E-01  0.16623367581E-01 -0.90662200253E-02  0.24598182501E-01  0.00000000000E+00 0.  1.
     999901    1    3    3    0    0 -0.11675248127E+00  0.32946941325E-01 -0.51775375946E-01  0.88982994576E+00  0.88000000000E+00 0.  1.
        -11    1    4    4    0    0  0.23401702617E-01 -0.21273115838E-01  0.18454681438E-01  0.36619960825E-01  0.51100000000E-03 0. -1.
         11    1    4    4    0    0  0.77649253660E-01 -0.28297193067E-01  0.42386914534E-01  0.92881910909E-01  0.51100000000E-03 0.  1.
</event>
<event>
 8    1  0.1161093E+005  0.1043930E+01  0.7957747E-01            NaN
         13   -1    0    0    0    0  0.00000000000E+00  0.00000000000E+00  0.74505805969E-08  0.10566000000E+00  0.10566000000E+00 0. -1.
     999900   -1    0    0    0    0 -0.00000000000E+00 -0.00000000000E+00 -0.74505805969E-08  0.93827000000E+00  0.93827000000E+00 0. -1.
     999902    2    1    2    0    0 -0.10720785523E-02 -0.22669757232E-01 -0.35730484727E-02  0.10209553635E+01  0.10206968308E+01 0.  0.
     999903    2    3    3    0    0  0.72613234370E-01  0.71060636665E-01 -0.78325532437E-01  0.12977477244E+00  0.19603740505E-01 0.  0.
         14    1    1    2    0    0  0.10720785523E-02  0.22669757232E-01  0.35730484727E-02  0.22974636467E-01  0.00000000000E+00 0.  1.
     999901    1    3    3    0    0 -0.73685312922E-01 -0.93730393897E-01  0.74752483964E-01  0.89118059109E+00  0.88000000000E+00 0. -1.
        -11    1    4    4    0    0  0.65675307272E-02  0.13513839562E-01 -0.60452310323E-02  0.16203772980E-01  0.51100000000E-03 0.  1.
         11    1    4    4    0    0  0.66045703642E-01  0.57546797103E-01 -0.72280301405E-01  0.11357099946E+00  0.51100000000E-03 0. -1.
</event>
<event>
 8    1  0.1161093E+005  0.1043930E+01  0.7957747E-01            NaN
         13   -1    0    0    0    0  0.00000000000E+00  0.00000000000E+00  0.74505805969E-08  0.10566000000E+00  0.10566000000E+00 0.  1.
     999900   -1    0    0    0    0 -0.00000000000E+00 -0.00000000000E+00 -0.74505805969E-08  0.93827000000E+00  0.93827000000E+00 0. -1.
     999902    2    1    2    0    0  0.53935492949E-02  0.97477548158E-02 -0.20558693991E-01  0.10205469079E+01  0.10202789923E+01 0.  0.
     999903    2    3    3    0    0 -0.81464709270E-01 -0.57990949314E-01 -0.83088768612E-01  0.13147835072E+00  0.19579687943E-01 0.  0.
         14    1    1    2    0    0 -0.53935492949E-02 -0.97477548158E-02  0.20558693991E-01  0.23383092108E-01  0.00000000000E+00 0.  1.
     999901    1    3    3    0    0  0.86858258565E-01  0.67738704129E-01  0.62530074621E-01  0.88906855717E+00  0.88000000000E+00 0.  1.
        -11    1    4    4    0    0 -0.12246994773E-01 -0.62852957368E-02 -0.20875784765E-01  0.25011064232E-01  0.51100000000E-03 0.  1.
         11    1    4    4    0    0 -0.69217714497E-01 -0.51705653577E-01 -0.62212983847E-01  0.10646728649E+00  0.51100000000E-03 0. -1.
</event>
<event>
 8    1  0.1161093E+005  0.1043930E+01  0.7957747E-01            NaN
         13   -1    0    0    0    0  0.00000000000E+00  0.00000000000E+00  0.74505805969E-08  0.10566000000E+00  0.10566000000E+00 0. -1.
     999900   -1    0    0    0    0 -0.00000000000E+00 -0.00000000000E+00 -0.74505805969E-08  0.93827000000E+00  0.93827000000E+00 0. -1.
     999902    2    1    2    0    0 -0.14187944059E-01  0.18377845651E-01 -0.97268760391E-02  0.10187574935E+01  0.10184464519E+01 0.  0.
     999903    2    3    3    0    0 -0.55575930572E-01 -0.44288250144E-01 -0.10719429742E+00  0.13019691410E+00  0.20260451180E-01 0.  0.
         14    1    1    2    0    0  0.14187944059E-01 -0.18377845651E-01  0.97268760391E-02  0.25172506527E-01  0.00000000000E+00 0. -1.
     999901    1    3    3    0    0  0.41387986514E-01  0.62666095796E-01  0.97467421378E-01  0.88856057938E+00  0.88000000000E+00 0.  1.
        -11    1    4    4    0    0 -0.46878005476E-01 -0.44873089638E-01 -0.90583568999E-01  0.11143063163E+00  0.51100000000E-03 0.  1.
         11    1    4    4    0    0 -0.86979250959E-02  0.58483949393E-03 -0.16610728417E-01  0.18766282470E-01  0.51100000000E-03 0. -1.
</event>
<event>
 8    1  0.1161093E+005  0.1043930E+01  0.7957747E-01            NaN
         13   -1    0    0    0    0  0.00000000000E+00  0.00000000000E+00  0.74505805969E-08  0.10566000000E+00  0.10566000000E+00 0.  1.
     999900   -1    0    0    0    0 -0.00000000000E+00 -0.00000000000E+00 -0.74505805969E-08  0.93827000000E+00  0.93827000000E+00 0. -1.
     999902    2    1    2    0    0 -0.32879146761E-03  0.47510658259E-02 -0.22514394343E-01  0.10209174234E+01  0.10206580263E+01 0.  0.
     999903    2    3    3    0    0  0.12514242460E+00  0.15730517424E-01  0.18338935998E-01  0.13101149069E+00  0.30325212385E-01 0.  0.
         14    1    1    2    0    0  0.32879146761E-03 -0.47510658259E-02  0.22514394343E-01  0.23012576626E-01  0.00000000000E+00 0.  1.
     999901    1    3    3    0    0 -0.12547121607E+00 -0.10979451598E-01 -0.40853330342E-01  0.88990593268E+00  0.88000000000E+00 0.  1.
        -11    1    4    4    0    0  0.37762385874E-01 -0.91643933180E-02  0.57424695877E-02  0.39283851259E-01  0.51100000000E-03 0.  1.
         11    1    4    4    0    0  0.87380038729E-01  0.24894910742E-01  0.12596466410E-01  0.91727639434E-01  0.51100000000E-03 0. -1.
</event>
<event>
 8    1  0.1161093E+005  0.1043930E+01  0.7957747E-01            NaN
         13   -1    0    0    0    0  0.00000000000E+00  0.00000000000E+00  0.74505805969E-08  0.10566000000E+00  0.10566000000E+00 0.  1.
     999900   -1    0    0    0    0 -0.00000000000E+00 -0.00000000000E+00 -0.74505805969E-08  0.93827000000E+00  0.93827000000E+00 0. -1.
     999902    2    1    2    0    0  0.16340105941E-01  0.44201687079E-03  0.16956746732E-01  0.10203773844E+01  0.10201055244E+01 0.  0.
     999903    2    3    3    0    0  0.59323089254E-01 -0.11550599640E+00  0.83843435015E-03  0.13158535102E+00  0.21287026769E-01 0.  0.
         14    1    1    2    0    0 -0.16340105941E-01 -0.44201687079E-03 -0.16956746732E-01  0.23552615583E-01  0.00000000000E+00 0. -1.
     999901    1    3    3    0    0 -0.42982983313E-01  0.11594801327E+00  0.16118312382E-01  0.88879203340E+00  0.88000000000E+00 0.  1.
        -11    1    4    4    0    0  0.45021017019E-01 -0.10358100768E+00  0.12461835853E-03  0.11294332108E+00  0.51100000000E-03 0. -1.
         11    1    4    4    0    0  0.14302072235E-01 -0.11924988719E-01  0.71381599163E-03  0.18642029944E-01  0.51100000000E-03 0.  1.
</event>
<event>
 8    1  0.1161093E+005  0.1043930E+01  0.7957747E-01            NaN
         13   -1    0    0    0    0  0.00000000000E+00  0.00000000000E+00  0.74505805969E-08  0.10566000000E+00  0.10566000000E+00 0.  1.
     999900   -1    0    0    0    0 -0.00000000000E+00 -0.00000000000E+00 -0.74505805969E-08  0.93827000000E+00  0.93827000000E+00 0.  1.
     999902    2    1    2    0    0  0.14343835401E-01 -0.13322407694E-01  0.18691697104E-01  0.10168631993E+01  0.10165029042E+01 0.  0.
     999903    2    3    3    0    0  0.89883242485E-01 -0.90560200761E-01 -0.11925211244E-01  0.12972776780E+00  0.20172650649E-01 0.  0.
         14    1    1    2    0    0 -0.14343835401E-01  0.13322407694E-01 -0.18691697104E-01  0.27066800724E-01  0.00000000000E+00 0. -1.
     999901    1    3    3    0    0 -0.75539407084E-01  0.77237793067E-01  0.30616908348E-01  0.88713543147E+00  0.88000000000E+00 0. -1.
        -11    1    4    4    0    0  0.50486160061E-02 -0.67961665865E-04 -0.12648963250E-02  0.52301267745E-02  0.51100000000E-03 0. -1.
         11    1    4    4    0    0  0.84834626479E-01 -0.90492239095E-01 -0.10660314919E-01  0.12449764103E+00  0.51100000000E-03 0.  1.
</event>
<event>
 8    1  0.1161093E+005  0.1043930E+01  0.7957747E-01            NaN
         13   -1    0    0    0    0  0.00000000000E+00  0.00000000000E+00  0.74505805969E-08  0.10566000000E+00  0.10566000000E+00 0.  1.
     999900   -1    0    0    0    0 -0.00000000000E+00 -0.00000000000E+00 -0.74505805969E-08  0.93827000000E+00  0.93827000000E+00 0. -1.
     999902    2    1    2    0    0 -0.16753435864E-01 -0.16306584326E-01  0.28956526282E-02  0.10203722601E+01  0.10201002804E+01 0.  0.
     999903    2    3    3    0    0 -0.45665770491E-01  0.11917333101E+00 -0.91512692638E-02  0.12945371225E+00  0.19669073894E-01 0.  0.
         14    1    1    2    0    0  0.16753435864E-01  0.16306584326E-01 -0.28956526282E-02  0.23557739912E-01  0.00000000000E+00 0.  1.
     999901    1    3    3    0    0  0.28912334627E-01 -0.13547991534E+00  0.12046921892E-01  0.89091854784E+00  0.88000000000E+00 0.  1.
        -11    1    4    4    0    0 -0.16748781966E-01  0.66772236033E-01 -0.10186332215E-01  0.69592209961E-01  0.51100000000E-03 0.  1.
         11    1    4    4    0    0 -0.28916988525E-01  0.52401094977E-01  0.10350629510E-02  0.59861502290E-01  0.51100000000E-03 0. -1.
</event>
<event>
 8    1  0.1161093E+005  0.1043930E+01  0.7957747E-01            NaN
         13   -1    0    0    0    0  0.00000000000E+00  0.00000000000E+00  0.74505805969E-08  0.10566000000E+00  0.10566000000E+00 0. -1.
     999900   -1    0    0    0    0 -0.00000000000E+00 -0.00000000000E+00 -0.74505805969E-08  0.93827000000E+00  0.93827000000E+00 0. -1.
     999902    2    1    2    0    0  0.11862366334E-01  0.11503246240E-01  0.16377721082E-01  0.10206647865E+01  0.10203995964E+01 0.  0.
     999903    2    3    3    0    0 -0.96805318135E-01  0.85421141257E-01  0.59503176821E-02  0.13084387671E+00  0.20412564709E-01 0.  0.
         14    1    1    2    0    0 -0.11862366334E-01 -0.11503246240E-01 -0.16377721082E-01  0.23265213451E-01  0.00000000000E+00 0. -1.
     999901    1    3    3    0    0  0.10866768447E+00 -0.73917895017E-01  0.10427403400E-01  0.88982090984E+00  0.88000000000E+00 0.  1.
        -11    1    4    4    0    0 -0.73844938480E-01  0.53235336771E-01  0.14212740468E-02  0.91045906888E-01  0.51100000000E-03 0.  1.
         11    1    4    4    0    0 -0.22960379655E-01  0.32185804486E-01  0.45290436353E-02  0.39797969818E-01  0.51100000000E-03 0. -1.
</event>
<event>
 8    1  0.1161093E+005  0.1043930E+01  0.7957747E-01            NaN
         13   -1    0    0    0    0  0.00000000000E+00  0.00000000000E+00  0.74505805969E-08  0.10566000000E+00  0.10566000000E+00 0. -1.
     999900   -1    0    0    0    0 -0.00000000000E+00 -0.00000000000E+00 -0.74505805969E-08  0.93827000000E+00  0.93827000000E+00 0.  1.
     999902    2    1    2    0    0  0.19920728482E-01 -0.51379030007E-02  0.99194581539E-02  0.10210907986E+01  0.10208353393E+01 0.  0.
     999903    2    3    3    0    0 -0.62401174166E-01  0.35433661546E-02 -0.11121929728E+00  0.12894346875E+00  0.18714274365E-01 0.  0.
         14    1    1    2    0    0 -0.19920728482E-01  0.51379030007E-02 -0.99194581539E-02  0.22839201399E-01  0.00000000000E+00 0. -1.
     999901    1    3    3    0    0  0.82321902648E-01 -0.86812691552E-02  0.12113875543E+00  0.89214732985E+00  0.88000000000E+00 0.  1.
        -11    1    4    4    0    0 -0.16984845913E-01 -0.67782417682E-02 -0.37831476750E-01  0.42022747485E-01  0.51100000000E-03 0.  1.
         11    1    4    4    0    0 -0.45416328253E-01  0.10321607923E-01 -0.73387820531E-01  0.86920721265E-01  0.51100000000E-03 0. -1.
</event>
<event>
 8    1  0.1161093E+005  0.1043930E+01  0.7957747E-01            NaN
         13   -1    0    0    0    0  0.00000000000E+00  0.00000000000E+00  0.74505805969E-08  0.10566000000E+00  0.10566000000E+00 0. -1.
     999900   -1    0    0    0    0 -0.00000000000E+00 -0.00000000000E+00 -0.74505805969E-08  0.93827000000E+00  0.93827000000E+00 0. -1.
     999902    2    1    2    0    0 -0.45090915411E-02  0.15062262587E-01  0.19029819659E-01  0.10192452335E+01  0.10189462735E+01 0.  0.
     999903    2    3    3    0    0  0.28325736503E-02  0.80412750578E-01 -0.98720599492E-01  0.12897013695E+00  0.20329917177E-01 0.  0.
         14    1    1    2    0    0  0.45090915411E-02 -0.15062262587E-01 -0.19029819659E-01  0.24684766497E-01  0.00000000000E+00 0.  1.
     999901    1    3    3    0    0 -0.73416651914E-02 -0.65350487991E-01  0.11775041915E+00  0.89027509655E+00  0.88000000000E+00 0.  1.
        -11    1    4    4    0    0  0.87348972367E-02  0.25890015598E-01 -0.24631192675E-01  0.36790598133E-01  0.51100000000E-03 0. -1.
         11    1    4    4    0    0 -0.59023235864E-02  0.54522734980E-01 -0.74089406816E-01  0.92179538819E-01  0.51100000000E-03 0.  1.
</event>
<event>
 8    1  0.1161093E+005  0.1043930E+01  0.7957747E-01            NaN
         13   -1    0    0    0    0  0.00000000000E+00  0.00000000000E+00  0.74505805969E-08  0.10566000000E+00  0.10566000000E+00 0.  1.
     999900   -1    0    0    0    0 -0.00000000000E+00 -0.00000000000E+00 -0.74505805969E-08  0.93827000000E+00  0.93827000000E+00 0. -1.
     999902    2    1    2    0    0 -0.16636486777E-01 -0.18058521828E-02 -0.15783097128E-01  0.10209269578E+01  0.10206677781E+01 0.  0.
     999903    2    3    3    0    0 -0.42618040597E-01  0.11402821838E+00 -0.49914466565E-01  0.13230019510E+00  0.13898045947E-01 0.  0.
         14    1    1    2    0    0  0.16636486777E-01  0.18058521828E-02  0.15783097128E-01  0.23003042176E-01  0.00000000000E+00 0.  1.
     999901    1    3    3    0    0  0.25981553820E-01 -0.11583407056E+00  0.34131369437E-01  0.88862676272E+00  0.88000000000E+00 0. -1.
        -11    1    4    4    0    0 -0.27429266524E-01  0.87104353788E-01 -0.33319225818E-01  0.97210930666E-01  0.51100000000E-03 0.  1.
         11    1    4    4    0    0 -0.15188774073E-01  0.26923864591E-01 -0.16595240747E-01  0.35089264438E-01  0.51100000000E-03 0. -1.
</event>
<event>
 8    1  0.1161093E+005  0.1043930E+01  0.7957747E-01            NaN
         13   -1    0    0    0    0  0.00000000000E+00  0.00000000000E+00  0.74505805969E-08  0.10566000000E+00  0.10566000000E+00 0.  1.
     999900   -1    0    0    0    0 -0.00000000000E+00 -0.00000000000E+00 -0.74505805969E-08  0.93827000000E+00  0.93827000000E+00 0.  1.
     999902    2    1    2    0    0 -0.11847522877E-01  0.13150171692E-01 -0.16983059449E-01  0.10194001178E+01  0.10191049431E+01 0.  0.
     999903    2    3    3    0    0  0.15106963855E-01 -0.12295178411E+00  0.23224214121E-01  0.12762272875E+00  0.20070754792E-01 0.  0.
         14    1    1    2    0    0  0.11847522877E-01 -0.13150171692E-01  0.16983059449E-01  0.24529882227E-01  0.00000000000E+00 0.  1.
     999901    1    3    3    0    0 -0.26954486733E-01  0.13610195580E+00 -0.40207273570E-01  0.89177738903E+00  0.88000000000E+00 0.  1.
        -11    1    4    4    0    0  0.18365366831E-02 -0.42037077058E-01  0.17016985029E-01  0.45390831839E-01  0.51100000000E-03 0. -1.
         11    1    4    4    0    0  0.13270427172E-01 -0.80914707055E-01  0.62072290917E-02  0.82231896908E-01  0.51100000000E-03 0.  1.
</event>
<event>
 8    1  0.1161093E+005  0.1043930E+01  0.7957747E-01            NaN
         13   -1    0    0    0    0  0.00000000000E+00  0.00000000000E+00  0.74505805969E-08  0.10566000000E+00  0.10566000000E+00 0. -1.
     999900   -1    0    0    0    0 -0.00000000000E+00 -0.00000000000E+00 -0.74505805969E-08  0.93827000000E+00  0.93827000000E+00 0.  1.
     999902    2    1    2    0    0 -0.13248900835E-02  0.22968058460E-01  0.20256603582E-02  0.10208347550E+01  0.10205734695E+01 0.  0.
     999903    2    3    3    0    0 -0.54882916559E-02  0.13132389858E+00  0.16960915210E-01  0.13405328029E+00  0.20162381515E-01 0.  0.
         14    1    1    2    0    0  0.13248900835E-02 -0.22968058460E-01 -0.20256603582E-02  0.23095245031E-01  0.00000000000E+00 0.  1.
     999901    1    3    3    0    0  0.41634015724E-02 -0.10835584012E+00 -0.14935254852E-01  0.88678147468E+00  0.88000000000E+00 0.  1.
        -11    1    4    4    0    0 -0.12365132776E-01  0.10440750271E+00  0.11888871841E-01  0.10580845677E+00  0.51100000000E-03 0. -1.
         11    1    4    4    0    0  0.68768411203E-02  0.26916395872E-01  0.50720433695E-02  0.28244823516E-01  0.51100000000E-03 0.  1.
</event>
<event>
 8    1  0.1161093E+005  0.1043930E+01  0.7957747E-01            NaN
         13   -1    0    0    0    0  0.00000000000E+00  0.00000000000E+00  0.74505805969E-08  0.10566000000E+00  0.10566000000E+00 0. -1.
     999900   -1    0    0    0    0 -0.00000000000E+00 -0.00000000000E+00 -0.74505805969E-08  0.93827000000E+00  0.93827000000E+00 0.  1.
     999902    2    1    2    0    0  0.55120984589E-02 -0.85379776373E-02 -0.18437998835E-01  0.10228767320E+01  0.10226600456E+01 0.  0.
     999903    2    3    3    0    0 -0.45752365529E-01  0.11114873845E+00 -0.51867006855E-01  0.13266863621E+00  0.21528112363E-01 0.  0.
         14    1    1    2    0    0 -0.55120984589E-02  0.85379776373E-02  0.18437998835E-01  0.21053267979E-01  0.00000000000E+00 0. -1.
     999901    1    3    3    0    0  0.51264463988E-01 -0.11968671609E+00  0.33429008020E-01  0.89020809581E+00  0.88000000000E+00 0.  1.
        -11    1    4    4    0    0 -0.19867123522E-01  0.50039614781E-01 -0.11718056438E-01  0.55102083555E-01  0.51100000000E-03 0. -1.
         11    1    4    4    0    0 -0.25885242007E-01  0.61109123671E-01 -0.40148950418E-01  0.77566552651E-01  0.51100000000E-03 0.  1.
</event>
<event>
 8    1  0.1185317E+005  0.1043930E+01  0.7957747E-01            NaN
         13   -1    0    0    0    0  0.00000000000E+00  0.00000000000E+00  0.74505805969E-08  0.10566000000E+00  0.10566000000E+00 0.  1.
     999900   -1    0    0    0    0 -0.00000000000E+00 -0.00000000000E+00 -0.74505805969E-08  0.93827000000E+00  0.93827000000E+00 0.  1.
     999902    2    1    2    0    0  0.17153463514E-02  0.10547824844E-01 -0.23131742376E-01  0.10184490948E+01  0.10181302875E+01 0.  0.
     999903    2    3    3    0    0  0.81073350984E-01 -0.39859830921E-01  0.86476090666E-01  0.12667978515E+00  0.20198003545E-01 0.  0.
         14    1    1    2    0    0 -0.17153463514E-02 -0.10547824844E-01  0.23131742376E-01  0.25480905152E-01  0.00000000000E+00 0.  1.
     999901    1    3    3    0    0 -0.79358004633E-01  0.50407655766E-01 -0.10960783304E+00  0.89176930970E+00  0.88000000000E+00 0. -1.
        -11    1    4    4    0    0  0.67463828088E-01 -0.33863248114E-01  0.60486006098E-01  0.96731100106E-01  0.51100000000E-03 0.  1.
         11    1    4    4    0    0  0.13609522897E-01 -0.59965828077E-02  0.25990084569E-01  0.29948685042E-01  0.51100000000E-03 0. -1.
</event>
<event>
 8    1  0.1161093E+005  0.1043930E+01  0.7957747E-01            NaN
         13   -1    0    0    0    0  0.00000000000E+00  0.00000000000E+00  0.74505805969E-08  0.10566000000E+00  0.10566000000E+00 0.  1.
     999900   -1    0    0    0    0 -0.00000000000E+00 -0.00000000000E+00 -0.74505805969E-08  0.93827000000E+00  0.93827000000E+00 0.  1.
     999902    2    1    2    0    0 -0.29624502178E-02 -0.24687272016E-01  0.39618195221E-02  0.10187519634E+01  0.10184407835E+01 0.  0.
     999903    2    3    3    0    0  0.10608665215E+00  0.66864158185E-01 -0.31768057336E-02  0.12727883930E+00  0.21554986106E-01 0.  0.
         14    1    1    2    0    0  0.29624502178E-02  0.24687272016E-01 -0.39618195221E-02  0.25178036556E-01  0.00000000000E+00 0.  1.
     999901    1    3    3    0    0 -0.10904910236E+00 -0.91551430201E-01  0.71386252557E-02  0.89147312414E+00  0.88000000000E+00 0. -1.
        -11    1    4    4    0    0  0.91810654528E-01  0.53104390798E-01  0.41230617425E-02  0.10614392760E+00  0.51100000000E-03 0. -1.
         11    1    4    4    0    0  0.14275997617E-01  0.13759767387E-01 -0.72998674762E-02  0.21134911703E-01  0.51100000000E-03 0.  1.
</event>
<event>
 8    1  0.1161093E+005  0.1043930E+01  0.7957747E-01            NaN
         13   -1    0    0    0    0  0.00000000000E+00  0.00000000000E+00  0.74505805969E-08  0.10566000000E+00  0.10566000000E+00 0. -1.
     999900   -1    0    0    0    0 -0.00000000000E+00 -0.00000000000E+00 -0.74505805969E-08  0.93827000000E+00  0.93827000000E+00 0. -1.
     999902    2    1    2    0    0  0.22460433939E-01 -0.15933486020E-02  0.57963604458E-02  0.10206790291E+01  0.10204141673E+01 0.  0.
     999903    2    3    3    0    0 -0.98223663535E-01  0.72964947268E-01 -0.34066251742E-01  0.12842759666E+00  0.19009641483E-01 0.  0.
         14    1    1    2    0    0 -0.22460433939E-01  0.15933486020E-02 -0.57963604458E-02  0.23250970881E-01  0.00000000000E+00 0.  1.
     999901    1    3    3    0    0  0.12068409747E+00 -0.74558295870E-01  0.39862612188E-01  0.89225143245E+00  0.88000000000E+00 0.  1.
        -11    1    4    4    0    0 -0.80780475329E-01  0.53315404321E-01 -0.20843669007E-01  0.99008773303E-01  0.51100000000E-03 0. -1.
         11    1    4    4    0    0 -0.17443188205E-01  0.19649542946E-01 -0.13222582735E-01  0.29418823361E-01  0.51100000000E-03 0.  1.
</event>
<event>
 8    1  0.1161093E+005  0.1043930E+01  0.7957747E-01            NaN
         13   -1    0    0    0    0  0.00000000000E+00  0.00000000000E+00  0.74505805969E-08  0.10566000000E+00  0.10566000000E+00 0.  1.
     999900   -1    0    0    0    0 -0.00000000000E+00 -0.00000000000E+00 -0.74505805969E-08  0.93827000000E+00  0.93827000000E+00 0.  1.
     999902    2    1    2    0    0  0.12600130529E-01  0.31737619429E-02  0.76352665574E-02  0.10288590561E+01  0.10287486690E+01 0.  0.
     999903    2    3    3    0    0 -0.80759138478E-01  0.15223522860E-01 -0.10724285598E+00  0.13641402538E+00  0.18813879590E-01 0.  0.
         14    1    1    2    0    0 -0.12600130529E-01 -0.31737619429E-02 -0.76352665574E-02  0.15070943886E-01  0.00000000000E+00 0. -1.
     999901    1    3    3    0    0  0.93359269007E-01 -0.12049760917E-01  0.11487812254E+00  0.89244503074E+00  0.88000000000E+00 0. -1.
        -11    1    4    4    0    0 -0.44304536450E-01  0.15495093785E-01 -0.50300533254E-01  0.68799670407E-01  0.51100000000E-03 0.  1.
         11    1    4    4    0    0 -0.36454602028E-01 -0.27157092486E-03 -0.56942322726E-01  0.67614354971E-01  0.51100000000E-03 0. -1.
</event>
<event>
 8    1  0.1161093E+005  0.1043930E+01  0.7957747E-01            NaN
         13   -1    0    0    0    0  0.00000000000E+00  0.00000000000E+00  0.74505805969E-08  0.10566000000E+00  0.10566000000E+00 0. -1.
     999900   -1    0    0    0    0 -0.00000000000E+00 -0.00000000000E+00 -0.74505805969E-08  0.93827000000E+00  0.93827000000E+00 0.  1.
     999902    2    1    2    0    0  0.17733871005E-01 -0.16173838833E-01  0.81260738285E-02  0.10185899858E+01  0.10182747384E+01 0.  0.
     999903    2    3    3    0    0 -0.10415413749E+00 -0.19866457644E-01  0.68996840298E-01  0.12809822714E+00  0.20145255726E-01 0.  0.
         14    1    1    2    0    0 -0.17733871005E-01  0.16173838833E-01 -0.81260738285E-02  0.25340014192E-01  0.00000000000E+00 0. -1.
     999901    1    3    3    0    0  0.12188800850E+00  0.36926188114E-02 -0.60870766469E-01  0.89049175867E+00  0.88000000000E+00 0.  1.
        -11    1    4    4    0    0 -0.53270651864E-01 -0.20383657079E-01  0.36628270591E-01  0.67787514731E-01  0.51100000000E-03 0.  1.
         11    1    4    4    0    0 -0.50883485630E-01  0.51719943482E-03  0.32368569706E-01  0.60310712406E-01  0.51100000000E-03 0. -1.
</event>
<event>
 8    1  0.1161093E+005  0.1043930E+01  0.7957747E-01            NaN
         13   -1    0    0    0    0  0.00000000000E+00  0.00000000000E+00  0.74505805969E-08  0.10566000000E+00  0.10566000000E+00 0. -1.
     999900   -1    0    0    0    0 -0.00000000000E+00 -0.00000000000E+00 -0.74505805969E-08  0.93827000000E+00  0.93827000000E+00 0. -1.
     999902    2    1    2    0    0 -0.19379862825E-01 -0.79574194875E-02  0.10849608147E-01  0.10203373400E+01  0.10200645440E+01 0.  0.
     999903    2    3    3    0    0 -0.40897079579E-01 -0.33319329203E-01 -0.11882362102E+00  0.13021298722E+00  0.73225891308E-02 0.  0.
         14    1    1    2    0    0  0.19379862825E-01  0.79574194875E-02 -0.10849608147E-01  0.23592659980E-01  0.00000000000E+00 0.  1.
     999901    1    3    3    0    0  0.21517216754E-01  0.25361909716E-01  0.12967322917E+00  0.89012435280E+00  0.88000000000E+00 0.  1.
        -11    1    4    4    0    0 -0.37985319956E-01 -0.29788510133E-01 -0.11221133541E+00  0.12215516684E+00  0.51100000000E-03 0. -1.
         11    1    4    4    0    0 -0.29117596234E-02 -0.35308190702E-02 -0.66122856076E-02  0.80578203857E-02  0.51100000000E-03 0.  1.
</event>
<event>
 8    1  0.1161093E+005  0.1043930E+01  0.7957747E-01            NaN
         13   -1    0    0    0    0  0.00000000000E+00  0.00000000000E+00  0.74505805969E-08  0.10566000000E+00  0.10566000000E+00 0. -1.
     999900   -1    0    0    0    0 -0.00000000000E+00 -0.00000000000E+00 -0.74505805969E-08  0.93827000000E+00  0.93827000000E+00 0.  1.
     999902    2    1    2    0    0 -0.14653139469E-01  0.16144147003E-01 -0.10470089661E-01  0.10197438313E+01  0.10194569685E+01 0.  0.
     999903    2    3    3    0    0 -0.54016296689E-01 -0.61035178117E-01 -0.10035726312E+00  0.13093237192E+00  0.20703924267E-01 0.  0.
         14    1    1    2    0    0  0.14653139469E-01 -0.16144147003E-01  0.10470089661E-01  0.24186168697E-01  0.00000000000E+00 0. -1.
     999901    1    3    3    0    0  0.39363157220E-01  0.77179325120E-01  0.89887173463E-01  0.88881145938E+00  0.88000000000E+00 0. -1.
        -11    1    4    4    0    0 -0.11823612651E-01 -0.28334548572E-01 -0.37181138048E-01  0.48221806338E-01  0.51100000000E-03 0. -1.
         11    1    4    4    0    0 -0.42192684038E-01 -0.32700629545E-01 -0.63176125075E-01  0.82710565585E-01  0.51100000000E-03 0.  1.
</event>
<event>
 8    1  0.1161093E+005  0.1043930E+01  0.7957747E-01            NaN
         13   -1    0    0    0    0  0.00000000000E+00  0.00000000000E+00  0.74505805969E-08  0.10566000000E+00  0.10566000000E+00 0. -1.
     999900   -1    0    0    0    0 -0.00000000000E+00 -0.00000000000E+00 -0.74505805969E-08  0.93827000000E+00  0.93827000000E+00 0. -1.
     999902    2    1    2    0    0 -0.75823575979E-02  0.17583082038E-01 -0.15687656587E-01  0.10191760207E+01  0.10188753612E+01 0.  0.
     999903    2    3    3    0    0 -0.57308586919E-01  0.57028894918E-01  0.98872324493E-01  0.12948356864E+00  0.21299976682E-01 0.  0.
         14    1    1    2    0    0  0.75823575979E-02 -0.17583082038E-01  0.15687656587E-01  0.24753979274E-01  0.00000000000E+00 0. -1.
     999901    1    3    3    0    0  0.49726229322E-01 -0.39445812880E-01 -0.11455998108E+00  0.88969245209E+00  0.88000000000E+00 0. -1.
        -11    1    4    4    0    0 -0.43837024471E-01  0.34813702739E-01  0.54912101184E-01  0.78417336032E-01  0.51100000000E-03 0. -1.
         11    1    4    4    0    0 -0.13471562448E-01  0.22215192179E-01  0.43960223308E-01  0.51066232607E-01  0.51100000000E-03 0.  1.
</event>
<event>
 8    1  0.1161093E+005  0.1043930E+01  0.7957747E-01            NaN
         13   -1    0    0    0    0  0.00000000000E+00  0.00000000000E+00  0.74505805969E-08  0.10566000000E+00  0.10566000000E+00 0. -1.
     999900   -1    0    0    0    0 -0.00000000000E+00 -0.00000000000E+00 -0.74505805969E-08  0.93827000000E+00  0.93827000000E+00 0.  1.
     999902    2    1    2    0    0 -0.24886311829E-02 -0.11623826653E-01 -0.21314817964E-01  0.10195245068E+01  0.10192323543E+01 0.  0.
     999903    2    3    3    0    0  0.67626289758E-01 -0.70947758740E-01  0.80095395341E-01  0.12895195931E+00  0.24625919669E-01 0.  0.
         14    1    1    2    0    0  0.24886311829E-02  0.11623826653E-01  0.21314817964E-01  0.24405493153E-01  0.00000000000E+00 0. -1.
     999901    1    3    3    0    0 -0.70114920941E-01  0.59323932087E-01 -0.10141021330E+00  0.89057254753E+00  0.88000000000E+00 0.  1.
        -11    1    4    4    0    0  0.35010964263E-01 -0.39374762437E-01  0.27370906868E-01  0.59376486923E-01  0.51100000000E-03 0. -1.
         11    1    4    4    0    0  0.32615325495E-01 -0.31572996303E-01  0.52724488473E-01  0.69575472391E-01  0.51100000000E-03 0.  1.
</event>
<event>
 8    1  0.1161093E+005  0.1043930E+01  0.7957747E-01            NaN
         13   -1    0    0    0    0  0.00000000000E+00  0.00000000000E+00  0.74505805969E-08  0.10566000000E+00  0.10566000000E+00 0. -1.
     999900   -1    0    0    0    0 -0.00000000000E+00 -0.00000000000E+00 -0.74505805969E-08  0.93827000000E+00  0.93827000000E+00 0.  1.
     999902    2    1    2    0    0 -0.13963631474E-01  0.18052035614E-01  0.70672228815E-02  0.10200384820E+01  0.10197586480E+01 0.  0.
     999903    2    3    3    0    0 -0.25965443016E-01  0.50008889727E-01 -0.11637225522E+00  0.13076766342E+00  0.19559824338E-01 0.  0.
         14    1    1    2    0    0  0.13963631474E-01 -0.18052035614E-01 -0.70672228815E-02  0.23891518014E-01  0.00000000000E+00 0. -1.
     999901    1    3    3    0    0  0.12001811541E-01 -0.31956854112E-01  0.12343947810E+00  0.88927081857E+00  0.88000000000E+00 0. -1.
        -11    1    4    4    0    0 -0.63303852738E-02  0.29370879614E-01 -0.72206292604E-01  0.78209540081E-01  0.51100000000E-03 0. -1.
         11    1    4    4    0    0 -0.19635057742E-01  0.20638010112E-01 -0.44165962614E-01  0.52558123336E-01  0.51100000000E-03 0.  1.
</event>
<event>
 8    1  0.1161093E+005  0.1043930E+01  0.7957747E-01            NaN
         13   -1    0    0    0    0  0.00000000000E+00  0.00000000000E+00  0.74505805969E-08  0.10566000000E+00  0.10566000000E+00 0.  1.
     999900   -1    0    0    0    0 -0.00000000000E+00 -0.00000000000E+00 -0.74505805969E-08  0.93827000000E+00  0.93827000000E+00 0.  1.
     999902    2    1    2    0    0 -0.29918383805E-02 -0.18695372584E-01 -0.13984424113E-01  0.10203921120E+01  0.10201205959E+01 0.  0.
     999903    2    3    3    0    0 -0.96360229947E-01  0.67594027903E-01  0.49531711776E-01  0.12898994874E+00  0.18187080035E-01 0.  0.
         14    1    1    2    0    0  0.29918383805E-02  0.18695372584E-01  0.13984424113E-01  0.23537887984E-01  0.00000000000E+00 0.  1.
     999901    1    3    3    0    0  0.93368391567E-01 -0.86289400487E-01 -0.63516135889E-01  0.89140216328E+00  0.88000000000E+00 0. -1.
        -11    1    4    4    0    0 -0.73420911318E-01  0.46241712471E-01  0.43529195726E-01  0.97077176476E-01  0.51100000000E-03 0. -1.
         11    1    4    4    0    0 -0.22939318630E-01  0.21352315432E-01  0.60025160502E-02  0.31912772262E-01  0.51100000000E-03 0.  1.
</event>
<event>
 8    1  0.1161093E+005  0.1043930E+01  0.7957747E-01            NaN
         13   -1    0    0    0    0  0.00000000000E+00  0.00000000000E+00  0.74505805969E-08  0.10566000000E+00  0.10566000000E+00 0.  1.
     999900   -1    0    0    0    0 -0.00000000000E+00 -0.00000000000E+00 -0.74505805969E-08  0.93827000000E+00  0.93827000000E+00 0.  1.
     999902    2    1    2    0    0  0.29807505224E-03 -0.19063979151E-01  0.13294745222E-01  0.10206861965E+01  0.10204214999E+01 0.  0.
     999903    2    3    3    0    0 -0.90939863313E-02  0.10505403404E+00 -0.70005237322E-01  0.12803151574E+00  0.19294691381E-01 0.  0.
         14    1    1    2    0    0 -0.29807505224E-03  0.19063979151E-01 -0.13294745222E-01  0.23243803482E-01  0.00000000000E+00 0.  1.
     999901    1    3    3    0    0  0.93920613835E-02 -0.12411801319E+00  0.83299982544E-01  0.89265468077E+00  0.88000000000E+00 0. -1.
        -11    1    4    4    0    0 -0.12883472967E-01  0.91473206265E-01 -0.65420426030E-01  0.11319639837E+00  0.51100000000E-03 0.  1.
         11    1    4    4    0    0  0.37894866352E-02  0.13580827776E-01 -0.45848112924E-02  0.14835117378E-01  0.51100000000E-03 0. -1.
</event>
<event>
 8    1  0.1161093E+005  0.1043930E+01  0.7957747E-01            NaN
         13   -1    0    0    0    0  0.00000000000E+00  0.00000000000E+00  0.74505805969E-08  0.10566000000E+00  0.10566000000E+00 0. -1.
     999900   -1    0    0    0    0 -0.00000000000E+00 -0.00000000000E+00 -0.74505805969E-08  0.93827000000E+00  0.93827000000E+00 0.  1.
     999902    2    1    2    0    0  0.11548039098E-01  0.81540230016E-02 -0.20267799488E-01  0.10192190916E+01  0.10189194903E+01 0.  0.
     999903    2    3    3    0    0  0.75982300746E-01  0.31568555823E-01 -0.10306147759E+00  0.13267816893E+00  0.14558317401E-01 0.  0.
         14    1    1    2    0    0 -0.11548039098E-01 -0.81540230016E-02  0.20267799488E-01  0.24710908405E-01  0.00000000000E+00 0. -1.
     999901    1    3    3    0    0 -0.64434261647E-01 -0.23414532822E-01  0.82793678099E-01  0.88654092266E+00  0.88000000000E+00 0. -1.
        -11    1    4    4    0    0  0.22647094854E-01  0.29083717231E-02 -0.32077897383E-01  0.39377685977E-01  0.51100000000E-03 0. -1.
         11    1    4    4    0    0  0.53335205892E-01  0.28660184100E-01 -0.70983580204E-01  0.93300482956E-01  0.51100000000E-03 0.  1.
</event>
<event>
 8    1  0.1161093E+005  0.1043930E+01  0.7957747E-01            NaN
         13   -1    0    0    0    0  0.00000000000E+00  0.00000000000E+00  0.74505805969E-08  0.10566000000E+00  0.10566000000E+00 0. -1.
     999900   -1    0    0    0    0 -0.00000000000E+00 -0.00000000000E+00 -0.74505805969E-08  0.93827000000E+00  0.93827000000E+00 0.  1.
     999902    2    1    2    0    0 -0.19725803863E-02  0.93072050786E-02  0.20098511139E-01  0.10216934245E+01  0.10214514126E+01 0.  0.
     999903    2    3    3    0    0  0.50491192796E-01  0.90305358086E-01  0.83195689788E-01  0.13417193055E+00  0.19394996723E-01 0.  0.
         14    1    1    2    0    0  0.19725803863E-02 -0.93072050786E-02 -0.20098511139E-01  0.22236575495E-01  0.00000000000E+00 0.  1.
     999901    1    3    3    0    0 -0.52463773182E-01 -0.80998153008E-01 -0.63097178650E-01  0.88752149396E+00  0.88000000000E+00 0.  1.
        -11    1    4    4    0    0  0.78245840982E-02  0.31751177400E-01  0.23103191311E-01  0.40042227115E-01  0.51100000000E-03 0. -1.
         11    1    4    4    0    0  0.42666608697E-01  0.58554180686E-01  0.60092498478E-01  0.94129703430E-01  0.51100000000E-03 0.  1.
</event>
<event>
 8    1  0.1161093E+005  0.1043930E+01  0.7957747E-01            NaN
         13   -1    0    0    0    0  0.00000000000E+00  0.00000000000E+00  0.74505805969E-08  0.10566000000E+00  0.10566000000E+00 0.  1.
     999900   -1    0    0    0    0 -0.00000000000E+00 -0.00000000000E+00 -0.74505805969E-08  0.93827000000E+00  0.93827000000E+00 0.  1.
     999902    2    1    2    0    0  0.16614673072E-02 -0.22488287743E-01 -0.67634735964E-02  0.10203879497E+01  0.10201163363E+01 0.  0.
     999903    2    3    3    0    0 -0.10685967599E+00 -0.28866038576E-01 -0.68031190614E-01  0.13158468268E+00  0.20833801456E-01 0.  0.
         14    1    1    2    0    0 -0.16614673072E-02  0.22488287743E-01  0.67634735964E-02  0.23542050342E-01  0.00000000000E+00 0. -1.
     999901    1    3    3    0    0  0.10852114330E+00  0.63777508338E-02  0.61267717018E-01  0.88880326698E+00  0.88000000000E+00 0.  1.
        -11    1    4    4    0    0 -0.44667899522E-01 -0.21565152898E-02 -0.23034443746E-01  0.50306247381E-01  0.51100000000E-03 0.  1.
         11    1    4    4    0    0 -0.62191776468E-01 -0.26709523287E-01 -0.44996746868E-01  0.81278435296E-01  0.51100000000E-03 0. -1.
</event>
<event>
 8    1  0.1161093E+005  0.1043930E+01  0.7957747E-01            NaN
         13   -1    0    0    0    0  0.00000000000E+00  0.00000000000E+00  0.74505805969E-08  0.10566000000E+00  0.10566000000E+00 0. -1.
     999900   -1    0    0    0    0 -0.00000000000E+00 -0.00000000000E+00 -0.74505805969E-08  0.93827000000E+00  0.93827000000E+00 0.  1.
     999902    2    1    2    0    0  0.14125865950E-01 -0.19856880743E-01  0.12053376717E-02  0.10195314623E+01  0.10192394783E+01 0.  0.
     999903    2    3    3    0    0  0.17125556602E-01 -0.73298006832E-01  0.10627248209E+00  0.13166657568E+00  0.19400108443E-01 0.  0.
         14    1    1    2    0    0 -0.14125865950E-01  0.19856880743E-01 -0.12053376717E-02  0.24398537673E-01  0.00000000000E+00 0.  1.
     999901    1    3    3    0    0 -0.29996906522E-02  0.53441126089E-01 -0.10506714442E+00  0.88786488665E+00  0.88000000000E+00 0.  1.
        -11    1    4    4    0    0  0.94762359500E-02 -0.62920004852E-01  0.78556994735E-01  0.10109494844E+00  0.51100000000E-03 0. -1.
         11    1    4    4    0    0  0.76493206524E-02 -0.10378001981E-01  0.27715487356E-01  0.30571627237E-01  0.51100000000E-03 0.  1.
</event>
<event>
 8    1  0.1161093E+005  0.1043930E+01  0.7957747E-01            NaN
         13   -1    0    0    0    0  0.00000000000E+00  0.00000000000E+00  0.74505805969E-08  0.10566000000E+00  0.10566000000E+00 0.  1.
     999900   -1    0    0    0    0 -0.00000000000E+00 -0.00000000000E+00 -0.74505805969E-08  0.93827000000E+00  0.93827000000E+00 0.  1.
     999902    2    1    2    0    0 -0.22924362367E-01 -0.45925157115E-03 -0.42616847666E-02  0.10206083521E+01  0.10203418590E+01 0.  0.
     999903    2    3    3    0    0  0.34638379924E-01  0.10897194269E+00  0.57945806167E-01  0.12978938764E+00  0.20319129784E-01 0.  0.
         14    1    1    2    0    0  0.22924362367E-01  0.45925157115E-03  0.42616847666E-02  0.23321647861E-01  0.00000000000E+00 0.  1.
     999901    1    3    3    0    0 -0.57562742290E-01 -0.10943119426E+00 -0.62207490933E-01  0.89081896450E+00  0.88000000000E+00 0.  1.
        -11    1    4    4    0    0  0.30143166052E-01  0.76098433699E-01  0.49090204849E-01  0.95444703385E-01  0.51100000000E-03 0.  1.
         11    1    4    4    0    0  0.44952138715E-02  0.32873508990E-01  0.88556013176E-02  0.34344684258E-01  0.51100000000E-03 0. -1.
</event>
<event>
 8    1  0.1161093E+005  0.1043930E+01  0.7957747E-01            NaN
         13   -1    0    0    0    0  0.00000000000E+00  0.00000000000E+00  0.74505805969E-08  0.10566000000E+00  0.10566000000E+00 0. -1.
     999900   -1    0    0    0    0 -0.00000000000E+00 -0.00000000000E+00 -0.74505805969E-08  0.93827000000E+00  0.93827000000E+00 0.  1.
     999902    2    1    2    0    0  0.17024110637E-01  0.15946393515E-01  0.59716725049E-03  0.10205962387E+01  0.10203294654E+01 0.  0.
     999903    2    3    3    0    0 -0.11121463887E+00 -0.42590614673E-01 -0.43341727354E-01  0.12829450458E+00  0.19957911176E-01 0.  0.
         14    1    1    2    0    0 -0.17024110637E-01 -0.15946393515E-01 -0.59716725049E-03  0.23333761331E-01  0.00000000000E+00 0.  1.
     999901    1    3    3    0    0  0.12823874950E+00  0.58537008188E-01  0.43938894604E-01  0.89230173409E+00  0.88000000000E+00 0.  1.
        -11    1    4    4    0    0 -0.55862787969E-01 -0.29594056772E-01 -0.16054101912E-01  0.65226180212E-01  0.51100000000E-03 0. -1.
         11    1    4    4    0    0 -0.55351850899E-01 -0.12996557901E-01 -0.27287625442E-01  0.63068324367E-01  0.51100000000E-03 0.  1.
</event>
<event>
 8    1  0.1161093E+005  0.1043930E+01  0.7957747E-01            NaN
         13   -1    0    0    0    0  0.00000000000E+00  0.00000000000E+00  0.74505805969E-08  0.10566000000E+00  0.10566000000E+00 0.  1.
     999900   -1    0    0    0    0 -0.00000000000E+00 -0.00000000000E+00 -0.74505805969E-08  0.93827000000E+00  0.93827000000E+00 0. -1.
     999902    2    1    2    0    0  0.54177876219E-02 -0.15310155389E-01  0.19078446063E-01  0.10188752522E+01  0.10185671501E+01 0.  0.
     999903    2    3    3    0    0  0.71121643556E-01 -0.80325904205E-02 -0.10406242377E+00  0.12784571656E+00  0.19817379049E-01 0.  0.
         14    1    1    2    0    0 -0.54177876219E-02  0.15310155389E-01 -0.19078446063E-01  0.25054747752E-01  0.00000000000E+00 0. -1.
     999901    1    3    3    0    0 -0.65703855934E-01 -0.72775649688E-02  0.12314086983E+00  0.89102953568E+00  0.88000000000E+00 0.  1.
        -11    1    4    4    0    0  0.38899001869E-01 -0.16386845208E-02 -0.39840465559E-01  0.55707642656E-01  0.51100000000E-03 0. -1.
         11    1    4    4    0    0  0.32222641687E-01 -0.63939058997E-02 -0.64221958210E-01  0.72138073909E-01  0.51100000000E-03 0.  1.
</event>
<event>
 8    1  0.1161093E+005  0.1043930E+01  0.7957747E-01            NaN
         13   -1    0    0    0    0  0.00000000000E+00  0.00000000000E+00  0.74505805969E-08  0.10566000000E+00  0.10566000000E+00 0.  1.
     999900   -1    0    0    0    0 -0.00000000000E+00 -0.00000000000E+00 -0.74505805969E-08  0.93827000000E+00  0.93827000000E+00 0.  1.
     999902    2    1    2    0    0 -0.24042018837E-01 -0.23383242563E-02  0.28650139617E-02  0.10196052238E+01  0.10193150238E+01 0.  0.
     999903    2    3    3    0    0 -0.10697050360E+00  0.31528484462E-01  0.66541111734E-01  0.13276885802E+00  0.27624556749E-01 0.  0.
         14    1    1    2    0    0  0.24042018837E-01  0.23383242563E-02 -0.28650139617E-02  0.24324776157E-01  0.00000000000E+00 0. -1.
     999901    1    3    3    0    0  0.82928484767E-01 -0.33866808719E-01 -0.63676097772E-01  0.88683636582E+00  0.88000000000E+00 0. -1.
        -11    1    4    4    0    0 -0.42342910042E-01  0.56679632816E-02  0.39194335027E-01  0.57978486163E-01  0.51100000000E-03 0.  1.
         11    1    4    4    0    0 -0.64627593561E-01  0.25860521181E-01  0.27346776707E-01  0.74790371857E-01  0.51100000000E-03 0. -1.
</event>
<event>
 8    1  0.1161093E+005  0.1043930E+01  0.7957747E-01            NaN
         13   -1    0    0    0    0  0.00000000000E+00  0.00000000000E+00  0.74505805969E-08  0.10566000000E+00  0.10566000000E+00 0. -1.
     999900   -1    0    0    0    0 -0.00000000000E+00 -0.00000000000E+00 -0.74505805969E-08  0.93827000000E+00  0.93827000000E+00 0. -1.
     999902    2    1    2    0    0 -0.94256985090E-02  0.14737368989E-01 -0.15638811828E-01  0.10204649990E+01  0.10201951813E+01 0.  0.
     999903    2    3    3    0    0  0.64249021279E-01  0.43834349875E-01  0.10121845217E+00  0.12921294778E+00  0.20035564624E-01 0.  0.
         14    1    1    2    0    0  0.94256985090E-02 -0.14737368989E-01  0.15638811828E-01  0.23465001012E-01  0.00000000000E+00 0. -1.
     999901    1    3    3    0    0 -0.73674719788E-01 -0.29096980886E-01 -0.11685726400E+00  0.89125205121E+00  0.88000000000E+00 0.  1.
        -11    1    4    4    0    0  0.29335794403E-01  0.32061487521E-01  0.53839872759E-01  0.69191913075E-01  0.51100000000E-03 0. -1.
         11    1    4    4    0    0  0.34913226876E-01  0.11772862354E-01  0.47378579412E-01  0.60021034705E-01  0.51100000000E-03 0.  1.
</event>
<event>
 8    1  0.1161093E+005  0.1043930E+01  0.7957747E-01            NaN
         13   -1    0    0    0    0  0.00000000000E+00  0.00000000000E+00  0.74505805969E-08  0.10566000000E+00  0.10566000000E+00 0.  1.
     999900   -1    0    0    0    0 -0.00000000000E+00 -0.00000000000E+00 -0.74505805969E-08  0.93827000000E+00  0.93827000000E+00 0. -1.
     999902    2    1    2    0    0 -0.20931412474E-01 -0.55496517127E-02  0.47133623718E-02  0.10217683564E+01  0.10215279907E+01 0.  0.
     999903    2    3    3    0    0 -0.13167765865E+00 -0.28435674140E-02 -0.18424720546E-01  0.13452125169E+00  0.20233763036E-01 0.  0.
         14    1    1    2    0    0  0.20931412474E-01  0.55496517127E-02 -0.47133623718E-02  0.22161643602E-01  0.00000000000E+00 0.  1.
     999901    1    3    3    0    0  0.11074624617E+00 -0.27060842987E-02  0.23138082917E-01  0.88724710471E+00  0.88000000000E+00 0. -1.
        -11    1    4    4    0    0 -0.69922403833E-01  0.83670474921E-02 -0.11818835373E-01  0.71407954963E-01  0.51100000000E-03 0.  1.
         11    1    4    4    0    0 -0.61755254813E-01 -0.11210614906E-01 -0.66058851730E-02  0.63113296725E-01  0.51100000000E-03 0. -1.
</event>
<event>
 8    1  0.1161093E+005  0.1043930E+01  0.7957747E-01            NaN
         13   -1    0    0    0    0  0.00000000000E+00  0.00000000000E+00  0.74505805969E-08  0.10566000000E+00  0.10566000000E+00 0.  1.
     999900   -1    0    0    0    0 -0.00000000000E+00 -0.00000000000E+00 -0.74505805969E-08  0.93827000000E+00  0.93827000000E+00 0.  1.
     999902    2    1    2    0    0 -0.20307462326E-01 -0.12912086974E-01 -0.16181022622E-02  0.10198108526E+01  0.10195255965E+01 0.  0.
     999903    2    3    3    0    0  0.54953525324E-01  0.97836478667E-01 -0.57865928391E-01  0.12790655337E+00  0.20487904291E-01 0.  0.
         14    1    1    2    0    0  0.20307462326E-01  0.12912086974E-01  0.16181022622E-02  0.24119147396E-01  0.00000000000E+00 0.  1.
     999901    1    3    3    0    0 -0.75260987650E-01 -0.11074856564E+00  0.56247826128E-01  0.89190429924E+00  0.88000000000E+00 0. -1.
        -11    1    4    4    0    0  0.39051098833E-01  0.53055516779E-01 -0.40368913764E-01  0.77264393482E-01  0.51100000000E-03 0.  1.
         11    1    4    4    0    0  0.15902426491E-01  0.44780961888E-01 -0.17497014627E-01  0.50642159885E-01  0.51100000000E-03 0. -1.
</event>
<event>
 8    1  0.1161093E+005  0.1043930E+01  0.7957747E-01            NaN
         13   -1    0    0    0    0  0.00000000000E+00  0.00000000000E+00  0.74505805969E-08  0.10566000000E+00  0.10566000000E+00 0. -1.
     999900   -1    0    0    0    0 -0.00000000000E+00 -0.00000000000E+00 -0.74505805969E-08  0.93827000000E+00  0.93827000000E+00 0.  1.
     999902    2    1    2    0    0  0.16884128081E-01 -0.15544345285E-01  0.64119239829E-02  0.10201011683E+01  0.10198228181E+01 0.  0.
     999903    2    3    3    0    0  0.11850199874E+00 -0.54558023726E-01  0.18797002949E-01  0.13330826748E+00  0.19961593164E-01 0.  0.
         14    1    1    2    0    0 -0.16884128081E-01  0.15544345285E-01 -0.64119239829E-02  0.23828831708E-01  0.00000000000E+00 0.  1.
     999901    1    3    3    0    0 -0.10161787066E+00  0.39013678441E-01 -0.12385078966E-01  0.88679290081E+00  0.88000000000E+00 0. -1.
        -11    1    4    4    0    0  0.51140836215E-01 -0.12970798206E-01  0.92735019247E-02  0.53571314095E-01  0.51100000000E-03 0. -1.
         11    1    4    4    0    0  0.67361162524E-01 -0.41587225520E-01  0.95235010243E-02  0.79736953389E-01  0.51100000000E-03 0.  1.
</event>
<event>
 8    1  0.1161093E+005  0.1043930E+01  0.7957747E-01            NaN
         13   -1    0    0    0    0  0.00000000000E+00  0.00000000000E+00  0.74505805969E-08  0.10566000000E+00  0.10566000000E+00 0.  1.
     999900   -1    0    0    0    0 -0.00000000000E+00 -0.00000000000E+00 -0.74505805969E-08  0.93827000000E+00  0.93827000000E+00 0.  1.
     999902    2    1    2    0    0 -0.20993684959E-01 -0.98330740186E-02 -0.93412775695E-03  0.10207287770E+01  0.10204650604E+01 0.  0.
     999903    2    3    3    0    0  0.76413519450E-01 -0.58360268133E-03 -0.10209278333E+00  0.12954597323E+00  0.22800355800E-01 0.  0.
         14    1    1    2    0    0  0.20993684959E-01  0.98330740186E-02  0.93412775695E-03  0.23201222974E-01  0.00000000000E+00 0. -1.
     999901    1    3    3    0    0 -0.97407204409E-01 -0.92494713373E-02  0.10115865557E+00  0.89118280380E+00  0.88000000000E+00 0.  1.
        -11    1    4    4    0    0  0.96325793427E-02 -0.36560902407E-02 -0.27539450815E-01  0.29408095022E-01  0.51100000000E-03 0. -1.
         11    1    4    4    0    0  0.66780940107E-01  0.30724875594E-02 -0.74553332514E-01  0.10013787820E+00  0.51100000000E-03 0.  1.
</event>
<event>
 8    1  0.1161093E+005  0.1043930E+01  0.7957747E-01            NaN
         13   -1    0    0    0    0  0.00000000000E+00  0.00000000000E+00  0.74505805969E-08  0.10566000000E+00  0.10566000000E+00 0. -1.
     999900   -1    0    0    0    0 -0.00000000000E+00 -0.00000000000E+00 -0.74505805969E-08  0.93827000000E+00  0.93827000000E+00 0.  1.
     999902    2    1    2    0    0  0.22371165870E-01  0.20452380736E-02  0.66921482410E-02  0.10204899294E+01  0.10202206914E+01 0.  0.
     999903    2    3    3    0    0 -0.60628249499E-01  0.11262778992E+00  0.85639184431E-02  0.12969202458E+00  0.19643748157E-01 0.  0.
         14    1    1    2    0    0 -0.22371165870E-01 -0.20452380736E-02 -0.66921482410E-02  0.23440070590E-01  0.00000000000E+00 0. -1.
     999901    1    3    3    0    0  0.82999415369E-01 -0.11058255184E+00 -0.18717702020E-02  0.89079790483E+00  0.88000000000E+00 0.  1.
        -11    1    4    4    0    0 -0.50009559718E-01  0.90104719036E-01  0.14552582424E-01  0.10407619916E+00  0.51100000000E-03 0.  1.
         11    1    4    4    0    0 -0.10618689781E-01  0.22523070882E-01 -0.59886639813E-02  0.25615825419E-01  0.51100000000E-03 0. -1.
</event>
<event>
 8    1  0.1161093E+005  0.1043930E+01  0.7957747E-01            NaN
         13   -1    0    0    0    0  0.00000000000E+00  0.00000000000E+00  0.74505805969E-08  0.10566000000E+00  0.10566000000E+00 0. -1.
     999900   -1    0    0    0    0 -0.00000000000E+00 -0.00000000000E+00 -0.74505805969E-08  0.93827000000E+00  0.93827000000E+00 0. -1.
     999902    2    1    2    0    0  0.13834219547E-01  0.26237618769E-02  0.19054588458E-01  0.10202372353E+01  0.10199620921E+01 0.  0.
     999903    2    3    3    0    0 -0.62945639278E-01  0.18860376680E-01 -0.10766402997E+00  0.12770354820E+00  0.19969615985E-01 0.  0.
         14    1    1    2    0    0 -0.13834219547E-01 -0.26237618769E-02 -0.19054588458E-01  0.23692764680E-01  0.00000000000E+00 0.  1.
     999901    1    3    3    0    0  0.76779858826E-01 -0.16236614803E-01  0.12671861842E+00  0.89253368712E+00  0.88000000000E+00 0.  1.
        -11    1    4    4    0    0 -0.20367799992E-01  0.87694374847E-02 -0.20651362472E-01  0.30306603295E-01  0.51100000000E-03 0.  1.
         11    1    4    4    0    0 -0.42577839286E-01  0.10090939196E-01 -0.87012667494E-01  0.97396944909E-01  0.51100000000E-03 0. -1.
</event>
<event>
 8    1  0.1161093E+005  0.1043930E+01  0.7957747E-01            NaN
         13   -1    0    0    0    0  0.00000000000E+00  0.00000000000E+00  0.74505805969E-08  0.10566000000E+00  0.10566000000E+00 0.  1.
     999900   -1    0    0    0    0 -0.00000000000E+00 -0.00000000000E+00 -0.74505805969E-08  0.93827000000E+00  0.93827000000E+00 0.  1.
     999902    2    1    2    0    0  0.92949511017E-02 -0.19340539005E-01  0.73926148091E-02  0.10212341123E+01  0.10209818847E+01 0.  0.
     999903    2    3    3    0    0  0.12842077072E+00 -0.27430120725E-01  0.88902640678E-02  0.13316956217E+00  0.20267945626E-01 0.  0.
         14    1    1    2    0    0 -0.92949511017E-02  0.19340539005E-01 -0.73926148091E-02  0.22695887704E-01  0.00000000000E+00 0. -1.
     999901    1    3    3    0    0 -0.11912581961E+00  0.80895817200E-02 -0.14976492587E-02  0.88806455012E+00  0.88000000000E+00 0. -1.
        -11    1    4    4    0    0  0.55689813766E-01 -0.13958707257E-01  0.13756557341E-01  0.59039858202E-01  0.51100000000E-03 0.  1.
         11    1    4    4    0    0  0.72730956950E-01 -0.13471413467E-01 -0.48662932731E-02  0.74129703972E-01  0.51100000000E-03 0. -1.
</event>
<event>
 8    1  0.1161093E+005  0.1043930E+01  0.7957747E-01            NaN
         13   -1    0    0    0    0  0.00000000000E+00  0.00000000000E+00  0.74505805969E-08  0.10566000000E+00  0.10566000000E+00 0. -1.
     999900   -1    0    0    0    0 -0.00000000000E+00 -0.00000000000E+00 -0.74505805969E-08  0.93827000000E+00  0.93827000000E+00 0.  1.
     999902    2    1    2    0    0  0.11611311944E-01 -0.13191882800E-01 -0.17045354092E-01  0.10194475076E+01  0.10191534862E+01 0.  0.
     999903    2    3    3    0    0 -0.61949376354E-01  0.10312449752E+00  0.35997282345E-01  0.12717277612E+00  0.20117739225E-01 0.  0.
         14    1    1    2    0    0 -0.11611311944E-01  0.13191882800E-01  0.17045354092E-01  0.24482492377E-01  0.00000000000E+00 0. -1.
     999901    1    3    3    0    0  0.73560688298E-01 -0.11631638032E+00 -0.53042636437E-01  0.89227473150E+00  0.88000000000E+00 0. -1.
        -11    1    4    4    0    0 -0.15399411708E-01  0.14341569036E-01  0.12971920240E-02  0.21089483434E-01  0.51100000000E-03 0. -1.
         11    1    4    4    0    0 -0.46549964646E-01  0.88782928483E-01  0.34700090321E-01  0.10608329269E+00  0.51100000000E-03 0.  1.
</event>
<event>
 8    1  0.1161093E+005  0.1043930E+01  0.7957747E-01            NaN
         13   -1    0    0    0    0  0.00000000000E+00  0.00000000000E+00  0.74505805969E-08  0.10566000000E+00  0.10566000000E+00 0. -1.
     999900   -1    0    0    0    0 -0.00000000000E+00 -0.00000000000E+00 -0.74505805969E-08  0.93827000000E+00  0.93827000000E+00 0. -1.
     999902    2    1    2    0    0 -0.72834861219E-02  0.20759058499E-01  0.78221352500E-02  0.10205810497E+01  0.10203139250E+01 0.  0.
     999903    2    3    3    0    0 -0.24885399730E-01 -0.10449975515E+00  0.69107576642E-01  0.12942702089E+00  0.20880963553E-01 0.  0.
         14    1    1    2    0    0  0.72834861219E-02 -0.20759058499E-01 -0.78221352500E-02  0.23348950292E-01  0.00000000000E+00 0.  1.
     999901    1    3    3    0    0  0.17601913608E-01  0.12525881365E+00 -0.61285441392E-01  0.89115402882E+00  0.88000000000E+00 0. -1.
        -11    1    4    4    0    0 -0.44263323723E-02 -0.37488093463E-01  0.35078755737E-01  0.51533773341E-01  0.51100000000E-03 0.  1.
         11    1    4    4    0    0 -0.20459067357E-01 -0.67011661691E-01  0.34028820906E-01  0.77893247544E-01  0.51100000000E-03 0. -1.
</event>
<event>
 8    1  0.1161093E+005  0.1043930E+01  0.7957747E-01            NaN
         13   -1    0    0    0    0  0.00000000000E+00  0.00000000000E+00  0.74505805969E-08  0.10566000000E+00  0.10566000000E+00 0. -1.
     999900   -1    0    0    0    0 -0.00000000000E+00 -0.00000000000E+00 -0.74505805969E-08  0.93827000000E+00  0.93827000000E+00 0.  1.
     999902    2    1    2    0    0  0.97516334908E-03 -0.76159974803E-02  0.22749736231E-01  0.10199194844E+01  0.10196368225E+01 0.  0.
     999903    2    3    3    0    0 -0.13145708357E-01  0.38419429033E-01 -0.11867680545E+00  0.12732768172E+00  0.21892743167E-01 0.  0.
         14    1    1    2    0    0 -0.97516334908E-03  0.76159974803E-02 -0.22749736231E-01  0.24010515608E-01  0.00000000000E+00 0.  1.
     999901    1    3    3    0    0  0.14120871706E-01 -0.46035426514E-01  0.14142654168E+00  0.89259180268E+00  0.88000000000E+00 0. -1.
        -11    1    4    4    0    0 -0.40363074501E-02  0.32848126248E-01 -0.69191259922E-01  0.76700604603E-01  0.51100000000E-03 0. -1.
         11    1    4    4    0    0 -0.91094009064E-02  0.55713027851E-02 -0.49485545531E-01  0.50627077113E-01  0.51100000000E-03 0.  1.
</event>
<event>
 8    1  0.1161093E+005  0.1043930E+01  0.7957747E-01            NaN
         13   -1    0    0    0    0  0.00000000000E+00  0.00000000000E+00  0.74505805969E-08  0.10566000000E+00  0.10566000000E+00 0. -1.
     999900   -1    0    0    0    0 -0.00000000000E+00 -0.00000000000E+00 -0.74505805969E-08  0.93827000000E+00  0.93827000000E+00 0. -1.
     999902    2    1    2    0    0 -0.47717488831E-02 -0.22825541357E-01 -0.83110828382E-05  0.10206110164E+01  0.10203445849E+01 0.  0.
     999903    2    3    3    0    0 -0.12163223425E+00 -0.68757490111E-03  0.45280285246E-01  0.13145550722E+00  0.20865593184E-01 0.  0.
         14    1    1    2    0    0  0.47717488831E-02  0.22825541357E-01  0.83110828382E-05  0.23318983570E-01  0.00000000000E+00 0.  1.
     999901    1    3    3    0    0  0.11686048537E+00 -0.22137966456E-01 -0.45288596329E-01  0.88915550921E+00  0.88000000000E+00 0.  1.
        -11    1    4    4    0    0 -0.10711699454E+00 -0.74724185205E-02  0.39178145707E-01  0.11430256244E+00  0.51100000000E-03 0. -1.
         11    1    4    4    0    0 -0.14515239707E-01  0.67848436194E-02  0.61021395387E-02  0.17152944781E-01  0.51100000000E-03 0.  1.
</event>
<event>
 8    1  0.1161093E+005  0.1043930E+01  0.7957747E-01            NaN
         13   -1    0    0    0    0  0.00000000000E+00  0.00000000000E+00  0.74505805969E-08  0.10566000000E+00  0.10566000000E+00 0. -1.
     999900   -1    0    0    0    0 -0.00000000000E+00 -0.00000000000E+00 -0.74505805969E-08  0.93827000000E+00  0.93827000000E+00 0.  1.
     999902    2    1    2    0    0 -0.51093489534E-02 -0.23002560110E-02  0.20441440133E-01  0.10227345029E+01  0.10225148479E+01 0.  0.
     999903    2    3    3    0    0  0.10064557188E+00  0.31416025599E-01  0.80134801133E-01  0.13375520711E+00  0.18771554855E-01 0.  0.
         14    1    1    2    0    0  0.51093489534E-02  0.23002560110E-02 -0.20441440133E-01  0.21195497144E-01  0.00000000000E+00 0.  1.
     999901    1    3    3    0    0 -0.10575492083E+00 -0.33716281610E-01 -0.59693361000E-01  0.88897929575E+00  0.88000000000E+00 0. -1.
        -11    1    4    4    0    0  0.63580766141E-01  0.20427249950E-01  0.61698475396E-01  0.90921666014E-01  0.51100000000E-03 0.  1.
         11    1    4    4    0    0  0.37064805739E-01  0.10988775649E-01  0.18436325737E-01  0.42833541092E-01  0.51100000000E-03 0. -1.
</event>
<event>
 8    1  0.1161093E+005  0.1043930E+01  0.7957747E-01            NaN
         13   -1    0    0    0    0  0.00000000000E+00  0.00000000000E+00  0.74505805969E-08  0.10566000000E+00  0.10566000000E+00 0. -1.
     999900   -1    0    0    0    0 -0.00000000000E+00 -0.00000000000E+00 -0.74505805969E-08  0.93827000000E+00  0.93827000000E+00 0.  1.
     999902    2    1    2    0    0 -0.10764353414E-01  0.21705651792E-01 -0.22345609794E-02  0.10195989522E+01  0.10193086007E+01 0.  0.
     999903    2    3    3    0    0 -0.38047466073E-01  0.63322082108E-01 -0.10757217138E+00  0.13192090940E+00  0.19340592645E-01 0.  0.
         14    1    1    2    0    0  0.10764353414E-01 -0.21705651792E-01  0.22345609794E-02  0.24331047797E-01  0.00000000000E+00 0. -1.
     999901    1    3    3    0    0  0.27283112659E-01 -0.41616430316E-01  0.10533761040E+00  0.88767804280E+00  0.88000000000E+00 0. -1.
        -11    1    4    4    0    0 -0.91720271857E-02  0.73001864583E-02 -0.28371021238E-01  0.30701706338E-01  0.51100000000E-03 0. -1.
         11    1    4    4    0    0 -0.28875438887E-01  0.56021895650E-01 -0.79201150145E-01  0.10121920306E+00  0.51100000000E-03 0.  1.
</event>
<event>
 8    1  0.1161093E+005  0.1043930E+01  0.7957747E-01            NaN
         13   -1    0    0    0    0  0.00000000000E+00  0.00000000000E+00  0.74505805969E-08  0.10566000000E+00  0.10566000000E+00 0.  1.
     999900   -1    0    0    0    0 -0.00000000000E+00 -0.00000000000E+00 -0.74505805969E-08  0.93827000000E+00  0.93827000000E+00 0. -1.
     999902    2    1    2    0    0  0.25901052041E-02 -0.30209727332E-01  0.47427554823E-02  0.10132407511E+01  0.10127758832E+01 0.  0.
     999903    2    3    3    0    0 -0.72106420580E-01 -0.42530823806E-01  0.91697438885E-01  0.12572033026E+00  0.19722430901E-01 0.  0.
         14    1    1    2    0    0 -0.25901052041E-02  0.30209727332E-01 -0.47427554823E-02  0.30689248932E-01  0.00000000000E+00 0. -1.
     999901    1    3    3    0    0  0.74696525784E-01  0.12321096474E-01 -0.86954683403E-01  0.88752042081E+00  0.88000000000E+00 0.  1.
        -11    1    4    4    0    0 -0.33650191034E-01 -0.15453158365E-01  0.27454220870E-01  0.46099141257E-01  0.51100000000E-03 0.  1.
         11    1    4    4    0    0 -0.38456229546E-01 -0.27077665441E-01  0.64243218015E-01  0.79621189005E-01  0.51100000000E-03 0. -1.
</event>
<event>
 8    1  0.1161093E+005  0.1043930E+01  0.7957747E-01            NaN
         13   -1    0    0    0    0  0.00000000000E+00  0.00000000000E+00  0.74505805969E-08  0.10566000000E+00  0.10566000000E+00 0.  1.
     999900   -1    0    0    0    0 -0.00000000000E+00 -0.00000000000E+00 -0.74505805969E-08  0.93827000000E+00  0.93827000000E+00 0. -1.
     999902    2    1    2    0    0 -0.22844788054E-01  0.13486927939E-02 -0.68411629631E-02  0.10200447572E+01  0.10197650719E+01 0.  0.
     999903    2    3    3    0    0 -0.25660738074E-02  0.60197190392E-01 -0.11470876297E+00  0.13127606340E+00  0.21095451020E-01 0.  0.
         14    1    1    2    0    0  0.22844788054E-01 -0.13486927939E-02  0.68411629631E-02  0.23885242812E-01  0.00000000000E+00 0. -1.
     999901    1    3    3    0    0 -0.20278714247E-01 -0.58848497598E-01  0.10786760001E+00  0.88876869379E+00  0.88000000000E+00 0.  1.
        -11    1    4    4    0    0 -0.10072912216E-01  0.46998816529E-01 -0.79078329712E-01  0.92541858997E-01  0.51100000000E-03 0.  1.
         11    1    4    4    0    0  0.75068384087E-02  0.13198373863E-01 -0.35630433261E-01  0.38734204405E-01  0.51100000000E-03 0. -1.
</event>
<event>
 8    1  0.1161093E+005  0.1043930E+01  0.7957747E-01            NaN
         13   -1    0    0    0    0  0.00000000000E+00  0.00000000000E+00  0.74505805969E-08  0.10566000000E+00  0.10566000000E+00 0. -1.
     999900   -1    0    0    0    0 -0.00000000000E+00 -0.00000000000E+00 -0.74505805969E-08  0.93827000000E+00  0.93827000000E+00 0. -1.
     999902    2    1    2    0    0 -0.60306291305E-02 -0.19846580645E-01 -0.58912200178E-02  0.10223670289E+01  0.10221396088E+01 0.  0.
     999903    2    3    3    0    0  0.61653788816E-01  0.60942004960E-01 -0.96705082554E-01  0.13143766375E+00  0.20220504822E-01 0.  0.
         14    1    1    2    0    0  0.60306291305E-02  0.19846580645E-01  0.58912200178E-02  0.21562971138E-01  0.00000000000E+00 0. -1.
     999901    1    3    3    0    0 -0.67684417946E-01 -0.80788585605E-01  0.90813862537E-01  0.89092936512E+00  0.88000000000E+00 0.  1.
        -11    1    4    4    0    0  0.38579166402E-01  0.47815305523E-01 -0.76231407762E-01  0.97908856458E-01  0.51100000000E-03 0.  1.
         11    1    4    4    0    0  0.23074622414E-01  0.13126699437E-01 -0.20473674793E-01  0.33528807288E-01  0.51100000000E-03 0. -1.
</event>
<event>
 8    1  0.1161093E+005  0.1043930E+01  0.7957747E-01            NaN
         13   -1    0    0    0    0  0.00000000000E+00  0.00000000000E+00  0.74505805969E-08  0.10566000000E+00  0.10566000000E+00 0.  1.
     999900   -1    0    0    0    0 -0.00000000000E+00 -0.00000000000E+00 -0.74505805969E-08  0.93827000000E+00  0.93827000000E+00 0. -1.
     999902    2    1    2    0    0  0.21540395656E-01  0.11211116623E-01  0.74316072618E-02  0.10185349893E+01  0.10182183547E+01 0.  0.
     999903    2    3    3    0    0 -0.88677404019E-02 -0.60156220160E-01  0.11197184878E+00  0.12895834080E+00  0.19878407836E-01 0.  0.
         14    1    1    2    0    0 -0.21540395656E-01 -0.11211116623E-01 -0.74316072618E-02  0.25395010680E-01  0.00000000000E+00 0. -1.
     999901    1    3    3    0    0  0.30408136058E-01  0.71367336783E-01 -0.10454024152E+00  0.88957664852E+00  0.88000000000E+00 0. -1.
        -11    1    4    4    0    0 -0.49390149357E-02 -0.44257834065E-01  0.61772955651E-01  0.76153193732E-01  0.51100000000E-03 0. -1.
         11    1    4    4    0    0 -0.39287254662E-02 -0.15898386096E-01  0.50198893130E-01  0.52805147067E-01  0.51100000000E-03 0.  1.
</event>
<event>
 8    1  0.1161093E+005  0.1043930E+01  0.7957747E-01            NaN
         13   -1    0    0    0    0  0.00000000000E+00  0.00000000000E+00  0.74505805969E-08  0.10566000000E+00  0.10566000000E+00 0.  1.
     999900   -1    0    0    0    0 -0.00000000000E+00 -0.00000000000E+00 -0.74505805969E-08  0.93827000000E+00  0.93827000000E+00 0. -1.
     999902    2    1    2    0    0  0.40274956440E-02  0.18982085858E-01  0.13360051225E-01  0.10203708983E+01  0.10200988868E+01 0.  0.
     999903    2    3    3    0    0  0.30735521151E-01 -0.66975541895E-01  0.10644790894E+00  0.13089499550E+00  0.19285928973E-01 0.  0.
         14    1    1    2    0    0 -0.40274956440E-02 -0.18982085858E-01 -0.13360051225E-01  0.23559101711E-01  0.00000000000E+00 0. -1.
     999901    1    3    3    0    0 -0.26708025507E-01  0.85957627753E-01 -0.93087857712E-01  0.88947590279E+00  0.88000000000E+00 0. -1.
        -11    1    4    4    0    0  0.15650356403E-01 -0.13868731954E-01  0.31299478873E-01  0.37645635608E-01  0.51100000000E-03 0. -1.
         11    1    4    4    0    0  0.15085164748E-01 -0.53106809941E-01  0.75148430064E-01  0.93249359889E-01  0.51100000000E-03 0.  1.
</event>
<event>
 8    1  0.1161093E+005  0.1043930E+01  0.7957747E-01            NaN
         13   -1    0    0    0    0  0.00000000000E+00  0.00000000000E+00  0.74505805969E-08  0.10566000000E+00  0.10566000000E+00 0.  1.
     999900   -1    0    0    0    0 -0.00000000000E+00 -0.00000000000E+00 -0.74505805969E-08  0.93827000000E+00  0.93827000000E+00 0.  1.
     999902    2    1    2    0    0  0.15787418286E-01  0.82338000295E-02 -0.15904704761E-01  0.10200553760E+01  0.10197759422E+01 0.  0.
     999903    2    3    3    0    0 -0.99311867394E-01  0.23561517587E-02 -0.81534344977E-01  0.13011737701E+00  0.20353966028E-01 0.  0.
         14    1    1    2    0    0 -0.15787418286E-01 -0.82338000295E-02  0.15904704761E-01  0.23874624031E-01  0.00000000000E+00 0.  1.
     999901    1    3    3    0    0  0.11509928568E+00  0.58776482708E-02  0.65629640216E-01  0.88993799896E+00  0.88000000000E+00 0. -1.
        -11    1    4    4    0    0 -0.36326763193E-01  0.85095777737E-02 -0.38305906878E-01  0.53475697851E-01  0.51100000000E-03 0.  1.
         11    1    4    4    0    0 -0.62985104201E-01 -0.61534260150E-02 -0.43228438099E-01  0.76641679160E-01  0.51100000000E-03 0. -1.
</event>
<event>
 8    1  0.1213926E+005  0.1043930E+01  0.7957747E-01            NaN
         13   -1    0    0    0    0  0.00000000000E+00  0.00000000000E+00  0.74505805969E-08  0.10566000000E+00  0.10566000000E+00 0.  1.
     999900   -1    0    0    0    0 -0.00000000000E+00 -0.00000000000E+00 -0.74505805969E-08  0.93827000000E+00  0.93827000000E+00 0. -1.
     999902    2    1    2    0    0  0.16966654121E-01  0.15559960284E-01 -0.77871246710E-02  0.10196273453E+01  0.10193376792E+01 0.  0.
     999903    2    3    3    0    0 -0.62905674098E-01  0.92198889605E-01  0.63233294133E-01  0.12985377060E+00  0.20144308720E-01 0.  0.
         14    1    1    2    0    0 -0.16966654121E-01 -0.15559960284E-01  0.77871246710E-02  0.24302654726E-01  0.00000000000E+00 0.  1.
     999901    1    3    3    0    0  0.79872328219E-01 -0.76638929320E-01 -0.71020418804E-01  0.88977357467E+00  0.88000000000E+00 0.  1.
        -11    1    4    4    0    0 -0.29412580831E-01  0.26257857869E-01  0.23289738698E-01  0.45795720985E-01  0.51100000000E-03 0. -1.
         11    1    4    4    0    0 -0.33493093268E-01  0.65941031736E-01  0.39943555435E-01  0.84058049614E-01  0.51100000000E-03 0.  1.
</event>
<event>
 8    1  0.1161093E+005  0.1043930E+01  0.7957747E-01            NaN
         13   -1    0    0    0    0  0.00000000000E+00  0.00000000000E+00  0.74505805969E-08  0.10566000000E+00  0.10566000000E+00 0. -1.
     999900   -1    0    0    0    0 -0.00000000000E+00 -0.00000000000E+00 -0.74505805969E-08  0.93827000000E+00  0.93827000000E+00 0.  1.
     999902    2    1    2    0    0  0.22439490103E-01  0.63113867584E-02 -0.48229863594E-02  0.10201261029E+01  0.10198483418E+01 0.  0.
     999903    2    3    3    0    0 -0.12400738681E+00  0.97474055411E-02 -0.22121706260E-01  0.12784938592E+00  0.19576815203E-01 0.  0.
         14    1    1    2    0    0 -0.22439490103E-01 -0.63113867584E-02  0.48229863594E-02  0.23803897083E-01  0.00000000000E+00 0. -1.
     999901    1    3    3    0    0  0.14644687692E+00 -0.34360187827E-02  0.17298719900E-01  0.89227671700E+00  0.88000000000E+00 0.  1.
        -11    1    4    4    0    0 -0.30106090709E-01 -0.47634997445E-02 -0.98845467888E-02  0.32047355801E-01  0.51100000000E-03 0. -1.
         11    1    4    4    0    0 -0.93901296104E-01  0.14510905286E-01 -0.12237159471E-01  0.95802030120E-01  0.51100000000E-03 0.  1.
</event>
<event>
 8    1  0.1161093E+005  0.1043930E+01  0.7957747E-01            NaN
         13   -1    0    0    0    0  0.00000000000E+00  0.00000000000E+00  0.74505805969E-08  0.10566000000E+00  0.10566000000E+00 0.  1.
     999900   -1    0    0    0    0 -0.00000000000E+00 -0.00000000000E+00 -0.74505805969E-08  0.93827000000E+00  0.93827000000E+00 0.  1.
     999902    2    1    2    0    0  0.18066282635E-01 -0.16123750548E-01 -0.72282533308E-02  0.10186591958E+01  0.10183456896E+01 0.  0.
     999903    2    3    3    0    0 -0.86016295876E-01  0.46718281242E-01 -0.79153961673E-01  0.12739289908E+00  0.19549939343E-01 0.  0.
         14    1    1    2    0    0 -0.18066282635E-01  0.16123750548E-01  0.72282533308E-02  0.25270804225E-01  0.00000000000E+00 0. -1.
     999901    1    3    3    0    0  0.10408257851E+00 -0.62842031790E-01  0.71925708342E-01  0.89126629670E+00  0.88000000000E+00 0. -1.
        -11    1    4    4    0    0 -0.50320254298E-01  0.32514359399E-01 -0.58654668249E-01  0.83844754088E-01  0.51100000000E-03 0.  1.
         11    1    4    4    0    0 -0.35696041579E-01  0.14203921843E-01 -0.20499293423E-01  0.43548144989E-01  0.51100000000E-03 0. -1.
</event>
<event>
 8    1  0.1161093E+005  0.1043930E+01  0.7957747E-01            NaN
         13   -1    0    0    0    0  0.00000000000E+00  0.00000000000E+00  0.74505805969E-08  0.10566000000E+00  0.10566000000E+00 0. -1.
     999900   -1    0    0    0    0 -0.00000000000E+00 -0.00000000000E+00 -0.74505805969E-08  0.93827000000E+00  0.93827000000E+00 0. -1.
     999902    2    1    2    0    0  0.47084542086E-02 -0.20890371232E-01 -0.10643705436E-01  0.10200162881E+01  0.10197359278E+01 0.  0.
     999903    2    3    3    0    0 -0.11107854749E+00  0.22661751301E-01 -0.60276677521E-01  0.12997873325E+00  0.20228557982E-01 0.  0.
         14    1    1    2    0    0 -0.47084542086E-02  0.20890371232E-01  0.10643705436E-01  0.23913711896E-01  0.00000000000E+00 0.  1.
     999901    1    3    3    0    0  0.11578700170E+00 -0.43552122533E-01  0.49632972085E-01  0.89003755486E+00  0.88000000000E+00 0.  1.
        -11    1    4    4    0    0 -0.74258775728E-01  0.22257367031E-01 -0.47901746623E-01  0.91129548503E-01  0.51100000000E-03 0. -1.
         11    1    4    4    0    0 -0.36819771765E-01  0.40438426956E-03 -0.12374930898E-01  0.38849184743E-01  0.51100000000E-03 0.  1.
</event>
<event>
 8    1  0.1161093E+005  0.1043930E+01  0.7957747E-01            NaN
         13   -1    0    0    0    0  0.00000000000E+00  0.00000000000E+00  0.74505805969E-08  0.10566000000E+00  0.10566000000E+00 0.  1.
     999900   -1    0    0    0    0 -0.00000000000E+00 -0.00000000000E+00 -0.74505805969E-08  0.93827000000E+00  0.93827000000E+00 0.  1.
     999902    2    1    2    0    0  0.59778071694E-02  0.13825847496E-01  0.18090842060E-01  0.10203892523E+01  0.10201176694E+01 0.  0.
     999903    2    3    3    0    0  0.53305443169E-01  0.10505774100E+00 -0.54426755275E-01  0.13144495398E+00  0.20902273118E-01 0.  0.
         14    1    1    2    0    0 -0.59778071694E-02 -0.13825847496E-01 -0.18090842060E-01  0.23540747737E-01  0.00000000000E+00 0. -1.
     999901    1    3    3    0    0 -0.47327636000E-01 -0.91231893508E-01  0.72517597335E-01  0.88894429828E+00  0.88000000000E+00 0. -1.
        -11    1    4    4    0    0  0.52191574806E-02  0.29943585791E-01 -0.12050588198E-01  0.32700699255E-01  0.51100000000E-03 0. -1.
         11    1    4    4    0    0  0.48086285688E-01  0.75114155213E-01 -0.42376167077E-01  0.98744254728E-01  0.51100000000E-03 0.  1.
</event>
<event>
 8    1  0.1161093E+005  0.1043930E+01  0.7957747E-01            NaN
         13   -1    0    0    0    0  0.00000000000E+00  0.00000000000E+00  0.74505805969E-08  0.10566000000E+00  0.10566000000E+00 0. -1.
     999900   -1    0    0    0    0 -0.00000000000E+00 -0.00000000000E+00 -0.74505805969E-08  0.93827000000E+00  0.93827000000E+00 0.  1.
     999902    2    1    2    0    0 -0.66784368000E-02  0.21525811314E-01 -0.54317967226E-02  0.10207466765E+01  0.10204833713E+01 0.  0.
     999903    2    3    3    0    0 -0.29761851864E-01  0.12012228756E+00  0.45712624843E-01  0.13346438717E+00  0.20198187483E-01 0.  0.
         14    1    1    2    0    0  0.66784368000E-02 -0.21525811314E-01  0.54317967226E-02  0.23183323455E-01  0.00000000000E+00 0. -1.
     999901    1    3    3    0    0  0.23083415064E-01 -0.98596476247E-01 -0.51144421565E-01  0.88728228937E+00  0.88000000000E+00 0.  1.
        -11    1    4    4    0    0 -0.21484317686E-01  0.11096387815E+00  0.41723741261E-01  0.12048107680E+00  0.51100000000E-03 0. -1.
         11    1    4    4    0    0 -0.82775341782E-02  0.91584094100E-02  0.39888835816E-02  0.12983310372E-01  0.51100000000E-03 0.  1.
</event>
<event>
 8    1  0.1161093E+005  0.1043930E+01  0.7957747E-01            NaN
         13   -1    0    0    0    0  0.00000000000E+00  0.00000000000E+00  0.74505805969E-08  0.10566000000E+00  0.10566000000E+00 0.  1.
     999900   -1    0    0    0    0 -0.00000000000E+00 -0.00000000000E+00 -0.74505805969E-08  0.93827000000E+00  0.93827000000E+00 0.  1.
     999902    2    1    2    0    0  0.95087434634E-02  0.21262598313E-01  0.19705083109E-03  0.10206372303E+01  0.10203714044E+01 0.  0.
     999903    2    3    3    0    0  0.11580294903E-02 -0.10436417136E+00 -0.72781594085E-01  0.12868560481E+00  0.19225065696E-01 0.  0.
         14    1    1    2    0    0 -0.95087434634E-02 -0.21262598313E-01 -0.19705083109E-03  0.23292769658E-01  0.00000000000E+00 0. -1.
     999901    1    3    3    0    0  0.83507139731E-02  0.12562676967E+00  0.72978644916E-01  0.89195162554E+00  0.88000000000E+00 0. -1.
        -11    1    4    4    0    0 -0.15026070002E-02 -0.66533265373E-01 -0.35182384152E-01  0.75279442775E-01  0.51100000000E-03 0. -1.
         11    1    4    4    0    0  0.26606364905E-02 -0.37830905987E-01 -0.37599209933E-01  0.53406162031E-01  0.51100000000E-03 0.  1.
</event>
<event>
 8    1  0.1161093E+005  0.1043930E+01  0.7957747E-01            NaN
         13   -1    0    0    0    0  0.00000000000E+00  0.00000000000E+00  0.74505805969E-08  0.10566000000E+00  0.10566000000E+00 0. -1.
     999900   -1    0    0    0    0 -0.00000000000E+00 -0.00000000000E+00 -0.74505805969E-08  0.93827000000E+00  0.93827000000E+00 0.  1.
     999902    2    1    2    0    0 -0.10876431071E-01 -0.21050203104E-01 -0.31115322070E-02  0.10200325224E+01  0.10197525471E+01 0.  0.
     999903    2    3    3    0    0 -0.39994227037E-01  0.11797866748E+00 -0.22635325252E-01  0.12842832130E+00  0.21516774542E-01 0.  0.
         14    1    1    2    0    0  0.10876431071E-01  0.21050203104E-01  0.31115322070E-02  0.23897477612E-01  0.00000000000E+00 0. -1.
     999901    1    3    3    0    0  0.29117795966E-01 -0.13902887058E+00  0.19523793045E-01  0.89160420109E+00  0.88000000000E+00 0. -1.
        -11    1    4    4    0    0 -0.97085107444E-02  0.31401125621E-01 -0.15741319366E-01  0.36446345873E-01  0.51100000000E-03 0. -1.
         11    1    4    4    0    0 -0.30285716292E-01  0.86577541859E-01 -0.68940058862E-02  0.91981975429E-01  0.51100000000E-03 0.  1.
</event>
<event>
 8    1  0.1161093E+005  0.1043930E+01  0.7957747E-01            NaN
         13   -1    0    0    0    0  0.00000000000E+00  0.00000000000E+00  0.74505805969E-08  0.10566000000E+00  0.10566000000E+00 0. -1.
     999900   -1    0    0    0    0 -0.00000000000E+00 -0.00000000000E+00 -0.74505805969E-08  0.93827000000E+00  0.93827000000E+00 0.  1.
     999902    2    1    2    0    0  0.19286637495E-01 -0.64735387251E-02 -0.12305378354E-01  0.10201538896E+01  0.10198767842E+01 0.  0.
     999903    2    3    3    0    0  0.24317659167E-01  0.87803480281E-01  0.89301793288E-01  0.12929055282E+00  0.20986592529E-01 0.  0.
         14    1    1    2    0    0 -0.19286637495E-01  0.64735387251E-02  0.12305378354E-01  0.23776110403E-01  0.00000000000E+00 0. -1.
     999901    1    3    3    0    0 -0.50310216727E-02 -0.94277019007E-01 -0.10160717164E+00  0.89086333678E+00  0.88000000000E+00 0.  1.
        -11    1    4    4    0    0  0.19773877705E-01  0.33854732321E-01  0.41053520097E-01  0.56769725853E-01  0.51100000000E-03 0. -1.
         11    1    4    4    0    0  0.45437814624E-02  0.53948747961E-01  0.48248273191E-01  0.72520826963E-01  0.51100000000E-03 0.  1.
</event>
<event>
 8    1  0.1161093E+005  0.1043930E+01  0.7957747E-01            NaN
         13   -1    0    0    0    0  0.00000000000E+00  0.00000000000E+00  0.74505805969E-08  0.10566000000E+00  0.10566000000E+00 0. -1.
     999900   -1    0    0    0    0 -0.00000000000E+00 -0.00000000000E+00 -0.74505805969E-08  0.93827000000E+00  0.93827000000E+00 0.  1.
     999902    2    1    2    0    0  0.54368573390E-03  0.23554745545E-03 -0.23893752670E-01  0.10200289018E+01  0.10197488407E+01 0.  0.
     999903    2    3    3    0    0  0.31892114380E-01 -0.11186587342E+00  0.52534114813E-01  0.12907959269E+00  0.19251686524E-01 0.  0.
         14    1    1    2    0    0 -0.54368573390E-03 -0.23554745545E-03  0.23893752670E-01  0.23901098164E-01  0.00000000000E+00 0. -1.
     999901    1    3    3    0    0 -0.31348428646E-01  0.11210142088E+00 -0.76427867483E-01  0.89094930915E+00  0.88000000000E+00 0.  1.
        -11    1    4    4    0    0  0.31497319685E-01 -0.97219469587E-01  0.39839478119E-01  0.10968660607E+00  0.51100000000E-03 0.  1.
         11    1    4    4    0    0  0.39479469490E-03 -0.14646403833E-01  0.12694636694E-01  0.19392986616E-01  0.51100000000E-03 0. -1.
</event>
<event>
 8    1  0.1161093E+005  0.1043930E+01  0.7957747E-01            NaN
         13   -1    0    0    0    0  0.00000000000E+00  0.00000000000E+00  0.74505805969E-08  0.10566000000E+00  0.10566000000E+00 0. -1.
     999900   -1    0    0    0    0 -0.00000000000E+00 -0.00000000000E+00 -0.74505805969E-08  0.93827000000E+00  0.93827000000E+00 0.  1.
     999902    2    1    2    0    0 -0.21345169896E-01 -0.81883040684E-02 -0.17745220397E-02  0.10209993757E+01  0.10207418438E+01 0.  0.
     999903    2    3    3    0    0  0.10163106797E-01  0.92097963566E-01  0.89219512709E-01  0.13008410403E+00  0.19401779292E-01 0.  0.
         14    1    1    2    0    0  0.21345169896E-01  0.81883040684E-02  0.17745220397E-02  0.22930624280E-01  0.00000000000E+00 0. -1.
     999901    1    3    3    0    0 -0.31508276692E-01 -0.10028626763E+00 -0.90994034748E-01  0.89091527169E+00  0.88000000000E+00 0. -1.
        -11    1    4    4    0    0  0.10083817028E-01  0.20275285268E-01  0.25020309794E-01  0.33749778988E-01  0.51100000000E-03 0. -1.
         11    1    4    4    0    0  0.79289768384E-04  0.71822678298E-01  0.64199202914E-01  0.96334325039E-01  0.51100000000E-03 0.  1.
</event>
<event>
 8    1  0.1161093E+005  0.1043930E+01  0.7957747E-01            NaN
         13   -1    0    0    0    0  0.00000000000E+00  0.00000000000E+00  0.74505805969E-08  0.10566000000E+00  0.10566000000E+00 0. -1.
     999900   -1    0    0    0    0 -0.00000000000E+00 -0.00000000000E+00 -0.74505805969E-08  0.93827000000E+00  0.93827000000E+00 0.  1.
     999902    2    1    2    0    0  0.20109662358E-01 -0.10904603306E-01  0.97731177276E-02  0.10190538523E+01  0.10187501810E+01 0.  0.
     999903    2    3    3    0    0 -0.82478444684E-01 -0.30818725384E-01 -0.89524692202E-01  0.12732466303E+00  0.21081072808E-01 0.  0.
         14    1    1    2    0    0 -0.20109662358E-01  0.10904603306E-01 -0.97731177276E-02  0.24876147683E-01  0.00000000000E+00 0.  1.
     999901    1    3    3    0    0  0.10258810704E+00  0.19914122078E-01  0.99297809930E-01  0.89172918928E+00  0.88000000000E+00 0. -1.
        -11    1    4    4    0    0 -0.55462502258E-01 -0.28263539732E-01 -0.71202367697E-01  0.94577772873E-01  0.51100000000E-03 0.  1.
         11    1    4    4    0    0 -0.27015942426E-01 -0.25551856522E-02 -0.18322324505E-01  0.32746890160E-01  0.51100000000E-03 0. -1.
</event>
<event>
 8    1  0.1161093E+005  0.1043930E+01  0.7957747E-01            NaN
         13   -1    0    0    0    0  0.00000000000E+00  0.00000000000E+00  0.74505805969E-08  0.10566000000E+00  0.10566000000E+00 0.  1.
     999900   -1    0    0    0    0 -0.00000000000E+00 -0.00000000000E+00 -0.74505805969E-08  0.93827000000E+00  0.93827000000E+00 0. -1.
     999902    2    1    2    0    0  0.23528821902E-01  0.20852341543E-02 -0.18336036082E-02  0.10202378966E+01  0.10199627689E+01 0.  0.
     999903    2    3    3    0    0 -0.83820613859E-01  0.84609847774E-01 -0.44802965795E-01  0.12884540207E+00  0.20226473796E-01 0.  0.
         14    1    1    2    0    0 -0.23528821902E-01 -0.20852341543E-02  0.18336036082E-02  0.23692103405E-01  0.00000000000E+00 0.  1.
     999901    1    3    3    0    0  0.10734943576E+00 -0.82524613619E-01  0.42969362187E-01  0.89139249453E+00  0.88000000000E+00 0.  1.
        -11    1    4    4    0    0 -0.42746361777E-01  0.37380455786E-01 -0.11487102203E-01  0.57937591925E-01  0.51100000000E-03 0.  1.
         11    1    4    4    0    0 -0.41074252081E-01  0.47229391988E-01 -0.33315863592E-01  0.70907810144E-01  0.51100000000E-03 0. -1.
</event>
<event>
 8    1  0.1161093E+005  0.1043930E+01  0.7957747E-01            NaN
         13   -1    0    0    0    0  0.00000000000E+00  0.00000000000E+00  0.74505805969E-08  0.10566000000E+00  0.10566000000E+00 0.  1.
     999900   -1    0    0    0    0 -0.00000000000E+00 -0.00000000000E+00 -0.74505805969E-08  0.93827000000E+00  0.93827000000E+00 0. -1.
     999902    2    1    2    0    0 -0.15051426878E-01 -0.17066597942E-01  0.11164828201E-01  0.10185830553E+01  0.10182676333E+01 0.  0.
     999903    2    3    3    0    0  0.64519559273E-01  0.74531698902E-01  0.78554161834E-01  0.12770533524E+00  0.20497527613E-01 0.  0.
         14    1    1    2    0    0  0.15051426878E-01  0.17066597942E-01 -0.11164828201E-01  0.25346944691E-01  0.00000000000E+00 0. -1.
     999901    1    3    3    0    0 -0.79570986152E-01 -0.91598296844E-01 -0.67389333633E-01  0.89087772007E+00  0.88000000000E+00 0. -1.
        -11    1    4    4    0    0  0.19622828090E-01  0.11830360113E-01  0.24368387685E-01  0.33452836084E-01  0.51100000000E-03 0. -1.
         11    1    4    4    0    0  0.44896731183E-01  0.62701338788E-01  0.54185774149E-01  0.94252499160E-01  0.51100000000E-03 0.  1.
</event>
<event>
 8    1  0.1161093E+005  0.1043930E+01  0.7957747E-01            NaN
         13   -1    0    0    0    0  0.00000000000E+00  0.00000000000E+00  0.74505805969E-08  0.10566000000E+00  0.10566000000E+00 0.  1.
     999900   -1    0    0    0    0 -0.00000000000E+00 -0.00000000000E+00 -0.74505805969E-08  0.93827000000E+00  0.93827000000E+00 0.  1.
     999902    2    1    2    0    0  0.56725329828E-02  0.14106449505E-01 -0.14428765084E-01  0.10229691124E+01  0.10227543430E+01 0.  0.
     999903    2    3    3    0    0 -0.18674913480E-01 -0.16695227948E-01  0.12685480822E+00  0.13083538385E+00  0.19956760014E-01 0.  0.
         14    1    1    2    0    0 -0.56725329828E-02 -0.14106449505E-01  0.14428765084E-01  0.20960887622E-01  0.00000000000E+00 0.  1.
     999901    1    3    3    0    0  0.24347446463E-01  0.30801677452E-01 -0.14128357330E+00  0.89213372852E+00  0.88000000000E+00 0.  1.
        -11    1    4    4    0    0 -0.13205263150E-01 -0.16087868788E-01  0.55660308637E-01  0.59426673940E-01  0.51100000000E-03 0.  1.
         11    1    4    4    0    0 -0.54696503297E-02 -0.60735916001E-03  0.71194499583E-01  0.71408709915E-01  0.51100000000E-03 0. -1.
</event>
<event>
 8    1  0.1161093E+005  0.1043930E+01  0.7957747E-01            NaN
         13   -1    0    0    0    0  0.00000000000E+00  0.00000000000E+00  0.74505805969E-08  0.10566000000E+00  0.10566000000E+00 0.  1.
     999900   -1    0    0    0    0 -0.00000000000E+00 -0.00000000000E+00 -0.74505805969E-08  0.93827000000E+00  0.93827000000E+00 0. -1.
     999902    2    1    2    0    0 -0.69535066757E-02 -0.17046875769E-01  0.14806048360E-01  0.10203044567E+01  0.10200308907E+01 0.  0.
     999903    2    3    3    0    0  0.83595404366E-01  0.93474385657E-01  0.21346319658E-01  0.12875702124E+00  0.19926182517E-01 0.  0.
         14    1    1    2    0    0  0.69535066757E-02  0.17046875769E-01 -0.14806048360E-01  0.23625543308E-01  0.00000000000E+00 0. -1.
     999901    1    3    3    0    0 -0.90548911042E-01 -0.11052126143E+00 -0.65402712980E-02  0.89154743546E+00  0.88000000000E+00 0. -1.
        -11    1    4    4    0    0  0.31447188009E-01  0.45050846314E-01  0.18727393314E-02  0.54975200417E-01  0.51100000000E-03 0.  1.
         11    1    4    4    0    0  0.52148216357E-01  0.48423539343E-01  0.19473580327E-01  0.73781820820E-01  0.51100000000E-03 0. -1.
</event>
<event>
 7    1  0.1161093E+005  0.1043930E+01  0.7957747E-01            NaN
         13   -1    0    0    0    0  0.00000000000E+00  0.00000000000E+00  0.74505805969E-08  0.10566000000E+00  0.10566000000E+00 0. -1.
     999900   -1    0    0    0    0 -0.00000000000E+00 -0.00000000000E+00 -0.74505805969E-08  0.93827000000E+00  0.93827000000E+00 0. -1.
     999902    2    1    2    0    0  0.15913829235E-01 -0.53054001899E-03  0.19615724540E-01  0.10186652403E+01  0.10183518860E+01 0.  0.
         14    1    1    2    0    0 -0.15913829235E-01  0.53054001899E-03 -0.19615724540E-01  0.25264759703E-01  0.00000000000E+00 0. -1.
     999901    1    3    3    0    0 -0.76328013099E-01  0.76560057255E-01  0.28210045707E-01  0.88706438021E+00  0.88000000000E+00 0.  1.
        -11    1    3    3    0    0  0.73020744061E-01 -0.27742729151E-01 -0.11882775033E-02  0.78124011727E-01  0.51100000000E-03 0. -1.
         11    1    3    3    0    0  0.19221098273E-01 -0.49347868124E-01 -0.74060436634E-02  0.53476848364E-01  0.51100000000E-03 0.  1.
</event>
<event>
 8    1  0.1161093E+005  0.1043930E+01  0.7957747E-01            NaN
         13   -1    0    0    0    0  0.00000000000E+00  0.00000000000E+00  0.74505805969E-08  0.10566000000E+00  0.10566000000E+00 0. -1.
     999900   -1    0    0    0    0 -0.00000000000E+00 -0.00000000000E+00 -0.74505805969E-08  0.93827000000E+00  0.93827000000E+00 0.  1.
     999902    2    1    2    0    0 -0.24273441555E-01  0.27669638010E-02  0.90051878821E-03  0.10194827714E+01  0.10191896066E+01 0.  0.
     999903    2    3    3    0    0  0.10101035825E+00 -0.73225084727E-01  0.13468063159E-01  0.12727833005E+00  0.21292699898E-01 0.  0.
         14    1    1    2    0    0  0.24273441555E-01 -0.27669638010E-02 -0.90051878821E-03  0.24447228630E-01  0.00000000000E+00 0.  1.
     999901    1    3    3    0    0 -0.12528379981E+00  0.75992048528E-01 -0.12567544371E-01  0.89220444132E+00  0.88000000000E+00 0.  1.
        -11    1    4    4    0    0  0.94792792613E-01 -0.63573482864E-01  0.16668156315E-01  0.11534881799E+00  0.51100000000E-03 0. -1.
         11    1    4    4    0    0  0.62175656374E-02 -0.96516018625E-02 -0.32000931559E-02  0.11929512068E-01  0.51100000000E-03 0.  1.
</event>
<event>
 8    1  0.1161093E+005  0.1043930E+01  0.7957747E-01            NaN
         13   -1    0    0    0    0  0.00000000000E+00  0.00000000000E+00  0.74505805969E-08  0.10566000000E+00  0.10566000000E+00 0. -1.
     999900   -1    0    0    0    0 -0.00000000000E+00 -0.00000000000E+00 -0.74505805969E-08  0.93827000000E+00  0.93827000000E+00 0.  1.
     999902    2    1    2    0    0  0.25745606779E-02  0.22968172461E-01  0.48896704943E-02  0.10203064061E+01  0.10200328859E+01 0.  0.
     999903    2    3    3    0    0  0.12055909242E+00  0.48472452968E-01  0.12303591556E-01  0.13203517264E+00  0.19945801258E-01 0.  0.
         14    1    1    2    0    0 -0.25745606779E-02 -0.22968172461E-01 -0.48896704943E-02  0.23623593850E-01  0.00000000000E+00 0. -1.
     999901    1    3    3    0    0 -0.11798453174E+00 -0.25504280507E-01 -0.74139210622E-02  0.88827123351E+00  0.88000000000E+00 0. -1.
        -11    1    4    4    0    0  0.39479223862E-01  0.11559725009E-01  0.12325642164E-01  0.42946698764E-01  0.51100000000E-03 0. -1.
         11    1    4    4    0    0  0.81079868556E-01  0.36912727959E-01 -0.22050607363E-04  0.89088473877E-01  0.51100000000E-03 0.  1.
</event>
<event>
 8    1  0.1161093E+005  0.1043930E+01  0.7957747E-01            NaN
         13   -1    0    0    0    0  0.00000000000E+00  0.00000000000E+00  0.74505805969E-08  0.10566000000E+00  0.10566000000E+00 0.  1.
     999900   -1    0    0    0    0 -0.00000000000E+00 -0.00000000000E+00 -0.74505805969E-08  0.93827000000E+00  0.93827000000E+00 0.  1.
     999902    2    1    2    0    0 -0.12770808022E-01  0.98812620697E-02  0.17774070144E-01  0.10199164528E+01  0.10196337187E+01 0.  0.
     999903    2    3    3    0    0 -0.50371455573E-01  0.47714114621E-01  0.11201356611E+00  0.13327886283E+00  0.20057318184E-01 0.  0.
         14    1    1    2    0    0  0.12770808022E-01 -0.98812620697E-02 -0.17774070144E-01  0.24013547158E-01  0.00000000000E+00 0. -1.
     999901    1    3    3    0    0  0.37600647552E-01 -0.37832852551E-01 -0.94239495968E-01  0.88663759002E+00  0.88000000000E+00 0.  1.
        -11    1    4    4    0    0 -0.28172542462E-01  0.32718445743E-01  0.84390840102E-01  0.94795906319E-01  0.51100000000E-03 0.  1.
         11    1    4    4    0    0 -0.22198913111E-01  0.14995668878E-01  0.27622726009E-01  0.38482956508E-01  0.51100000000E-03 0. -1.
</event>
<event>
 8    1  0.1267134E+005  0.1043930E+01  0.7957747E-01            NaN
         13   -1    0    0    0    0  0.00000000000E+00  0.00000000000E+00  0.74505805969E-08  0.10566000000E+00  0.10566000000E+00 0. -1.
     999900   -1    0    0    0    0 -0.00000000000E+00 -0.00000000000E+00 -0.74505805969E-08  0.93827000000E+00  0.93827000000E+00 0. -1.
     999902    2    1    2    0    0  0.17980453183E-01  0.11913382156E-01  0.94429624283E-02  0.10203844078E+01  0.10201127118E+01 0.  0.
     999903    2    3    3    0    0  0.19944306273E-01  0.85527959258E-01  0.97605470386E-01  0.13291858286E+00  0.20681263343E-01 0.  0.
         14    1    1    2    0    0 -0.17980453183E-01 -0.11913382156E-01 -0.94429624283E-02  0.23545592167E-01  0.00000000000E+00 0.  1.
     999901    1    3    3    0    0 -0.19638530898E-02 -0.73614577102E-01 -0.88162507958E-01  0.88746582497E+00  0.88000000000E+00 0. -1.
        -11    1    4    4    0    0  0.17472657639E-01  0.54166324793E-01  0.75116809325E-01  0.94244791213E-01  0.51100000000E-03 0. -1.
         11    1    4    4    0    0  0.24716486333E-02  0.31361634465E-01  0.22488661061E-01  0.38673791650E-01  0.51100000000E-03 0.  1.
</event>
<event>
 8    1  0.1161093E+005  0.1043930E+01  0.7957747E-01            NaN
         13   -1    0    0    0    0  0.00000000000E+00  0.00000000000E+00  0.74505805969E-08  0.10566000000E+00  0.10566000000E+00 0. -1.
     999900   -1    0    0    0    0 -0.00000000000E+00 -0.00000000000E+00 -0.74505805969E-08  0.93827000000E+00  0.93827000000E+00 0. -1.
     999902    2    1    2    0    0  0.28319044585E-02 -0.22958256492E-01 -0.16240747226E-02  0.10207408033E+01  0.10204773632E+01 0.  0.
     999903    2    3    3    0    0  0.11343028070E+00 -0.42412182026E-01 -0.49253407027E-01  0.13232704310E+00  0.20477462427E-01 0.  0.
         14    1    1    2    0    0 -0.28319044585E-02  0.22958256492E-01  0.16240747226E-02  0.23189196682E-01  0.00000000000E+00 0.  1.
     999901    1    3    3    0    0 -0.11059837625E+00  0.19453925534E-01  0.47629332305E-01  0.88841376022E+00  0.88000000000E+00 0. -1.
        -11    1    4    4    0    0  0.10262743418E+00 -0.44261229695E-01 -0.43451007614E-01  0.11991537801E+00  0.51100000000E-03 0. -1.
         11    1    4    4    0    0  0.10802846525E-01  0.18490476692E-02 -0.58023994130E-02  0.12411665088E-01  0.51100000000E-03 0.  1.
</event>
<event>
 8    1  0.1161093E+005  0.1043930E+01  0.7957747E-01            NaN
         13   -1    0    0    0    0  0.00000000000E+00  0.00000000000E+00  0.74505805969E-08  0.10566000000E+00  0.10566000000E+00 0. -1.
     999900   -1    0    0    0    0 -0.00000000000E+00 -0.00000000000E+00 -0.74505805969E-08  0.93827000000E+00  0.93827000000E+00 0. -1.
     999902    2    1    2    0    0 -0.24939492066E-02 -0.65265829462E-02 -0.21971662805E-01  0.10208741974E+01  0.10206138138E+01 0.  0.
     999903    2    3    3    0    0  0.73778986869E-01  0.10538710724E+00  0.12915302195E-01  0.12983023935E+00  0.11802743000E-01 0.  0.
         14    1    1    2    0    0  0.24939492066E-02  0.65265829462E-02  0.21971662805E-01  0.23055802611E-01  0.00000000000E+00 0. -1.
     999901    1    3    3    0    0 -0.76272936076E-01 -0.11191369019E+00 -0.34886965001E-01  0.89104395804E+00  0.88000000000E+00 0.  1.
        -11    1    4    4    0    0  0.10142973229E-01  0.13763968615E-01 -0.22356962978E-02  0.17250686853E-01  0.51100000000E-03 0. -1.
         11    1    4    4    0    0  0.63636013640E-01  0.91623138630E-01  0.15150998493E-01  0.11257955250E+00  0.51100000000E-03 0.  1.
</event>
<event>
 8    1  0.1161093E+005  0.1043930E+01  0.7957747E-01            NaN
         13   -1    0    0    0    0  0.00000000000E+00  0.00000000000E+00  0.74505805969E-08  0.10566000000E+00  0.10566000000E+00 0. -1.
     999900   -1    0    0    0    0 -0.00000000000E+00 -0.00000000000E+00 -0.74505805969E-08  0.93827000000E+00  0.93827000000E+00 0.  1.
     999902    2    1    2    0    0  0.15879285244E-01 -0.17910349356E-01  0.13730858210E-02  0.10199546443E+01  0.10196728195E+01 0.  0.
     999903    2    3    3    0    0  0.14645734694E-01 -0.74792092797E-01 -0.10471231000E+00  0.13175918974E+00  0.24237605599E-01 0.  0.
         14    1    1    2    0    0 -0.15879285244E-01  0.17910349356E-01 -0.13730858210E-02  0.23975355651E-01  0.00000000000E+00 0. -1.
     999901    1    3    3    0    0  0.12335505495E-02  0.56881743441E-01  0.10608539582E+00  0.88819545461E+00  0.88000000000E+00 0. -1.
        -11    1    4    4    0    0  0.20897618265E-01 -0.65563189285E-01 -0.90081219468E-01  0.11335841151E+00  0.51100000000E-03 0. -1.
         11    1    4    4    0    0 -0.62518835707E-02 -0.92289035121E-02 -0.14631090533E-01  0.18400778228E-01  0.51100000000E-03 0.  1.
</event>
<event>
 8    1  0.1161093E+005  0.1043930E+01  0.7957747E-01            NaN
         13   -1    0    0    0    0  0.00000000000E+00  0.00000000000E+00  0.74505805969E-08  0.10566000000E+00  0.10566000000E+00 0. -1.
     999900   -1    0    0    0    0 -0.00000000000E+00 -0.00000000000E+00 -0.74505805969E-08  0.93827000000E+00  0.93827000000E+00 0.  1.
     999902    2    1    2    0    0 -0.14058411822E-01  0.68265921933E-03  0.17773504896E-01  0.10212583780E+01  0.10210066955E+01 0.  0.
     999903    2    3    3    0    0 -0.29391398128E-01 -0.85909916334E-01 -0.91347546278E-01  0.13016872013E+00  0.18845516177E-01 0.  0.
         14    1    1    2    0    0  0.14058411822E-01 -0.68265921933E-03 -0.17773504896E-01  0.22671621972E-01  0.00000000000E+00 0.  1.
     999901    1    3    3    0    0  0.15332986307E-01  0.86592575553E-01  0.10912105117E+00  0.89108965790E+00  0.88000000000E+00 0. -1.
        -11    1    4    4    0    0 -0.78949735341E-02 -0.27109283738E-01 -0.41215200913E-01  0.49961963324E-01  0.51100000000E-03 0.  1.
         11    1    4    4    0    0 -0.21496424594E-01 -0.58800632595E-01 -0.50132345365E-01  0.80206756802E-01  0.51100000000E-03 0. -1.
</event>
<event>
 8    1  0.1161093E+005  0.1043930E+01  0.7957747E-01            NaN
         13   -1    0    0    0    0  0.00000000000E+00  0.00000000000E+00  0.74505805969E-08  0.10566000000E+00  0.10566000000E+00 0. -1.
     999900   -1    0    0    0    0 -0.00000000000E+00 -0.00000000000E+00 -0.74505805969E-08  0.93827000000E+00  0.93827000000E+00 0. -1.
     999902    2    1    2    0    0 -0.13436923166E-01  0.57313970993E-02 -0.18094907407E-01  0.10206743450E+01  0.10204093752E+01 0.  0.
     999903    2    3    3    0    0 -0.11487238343E+00 -0.60078927218E-01 -0.18845696369E-01  0.13240596488E+00  0.19262328349E-01 0.  0.
         14    1    1    2    0    0  0.13436923166E-01 -0.57313970993E-02  0.18094907407E-01  0.23255655032E-01  0.00000000000E+00 0. -1.
     999901    1    3    3    0    0  0.10143546026E+00  0.65810324318E-01  0.75078896188E-03  0.88826838009E+00  0.88000000000E+00 0.  1.
        -11    1    4    4    0    0 -0.47908106122E-01 -0.15114324986E-01 -0.40770400511E-02  0.50403500162E-01  0.51100000000E-03 0. -1.
         11    1    4    4    0    0 -0.66964277305E-01 -0.44964602233E-01 -0.14768656318E-01  0.82002464715E-01  0.51100000000E-03 0.  1.
</event>
<event>
 8    1  0.1161093E+005  0.1043930E+01  0.7957747E-01            NaN
         13   -1    0    0    0    0  0.00000000000E+00  0.00000000000E+00  0.74505805969E-08  0.10566000000E+00  0.10566000000E+00 0. -1.
     999900   -1    0    0    0    0 -0.00000000000E+00 -0.00000000000E+00 -0.74505805969E-08  0.93827000000E+00  0.93827000000E+00 0. -1.
     999902    2    1    2    0    0  0.22293363096E-01 -0.25821431167E-02 -0.58328274311E-02  0.10207419993E+01  0.10204785866E+01 0.  0.
     999903    2    3    3    0    0  0.68298199921E-02  0.11588707082E+00 -0.57843437790E-01  0.13114704685E+00  0.19422280420E-01 0.  0.
         14    1    1    2    0    0 -0.22293363096E-01  0.25821431167E-02  0.58328274311E-02  0.23188000713E-01  0.00000000000E+00 0. -1.
     999901    1    3    3    0    0  0.15463543104E-01 -0.11846921394E+00  0.52010610359E-01  0.88959495244E+00  0.88000000000E+00 0. -1.
        -11    1    4    4    0    0  0.10721457289E-01  0.84364474888E-01 -0.34732903744E-01  0.91863757778E-01  0.51100000000E-03 0. -1.
         11    1    4    4    0    0 -0.38916372970E-02  0.31522595933E-01 -0.23110534047E-01  0.39283289070E-01  0.51100000000E-03 0.  1.
</event>
<event>
 8    1  0.1161093E+005  0.1043930E+01  0.7957747E-01            NaN
         13   -1    0    0    0    0  0.00000000000E+00  0.00000000000E+00  0.74505805969E-08  0.10566000000E+00  0.10566000000E+00 0. -1.
     999900   -1    0    0    0    0 -0.00000000000E+00 -0.00000000000E+00 -0.74505805969E-08  0.93827000000E+00  0.93827000000E+00 0.  1.
     999902    2    1    2    0    0 -0.88283277583E-03 -0.42166491924E-02 -0.24240180547E-01  0.10193099700E+01  0.10190125951E+01 0.  0.
     999903    2    3    3    0    0 -0.12771547492E+00  0.10161984715E-01 -0.89379686901E-02  0.12996896571E+00  0.19938312262E-01 0.  0.
         14    1    1    2    0    0  0.88283277583E-03  0.42166491924E-02  0.24240180547E-01  0.24620029998E-01  0.00000000000E+00 0. -1.
     999901    1    3    3    0    0  0.12683264215E+00 -0.14378633908E-01 -0.15302211857E-01  0.88934100429E+00  0.88000000000E+00 0. -1.
        -11    1    4    4    0    0 -0.10004621973E+00  0.14645115020E-02 -0.17070886289E-02  0.10007280424E+00  0.51100000000E-03 0.  1.
         11    1    4    4    0    0 -0.27669255195E-01  0.86974732134E-02 -0.72308800613E-02  0.29896161473E-01  0.51100000000E-03 0. -1.
</event>
<event>
 8    1  0.1161093E+005  0.1043930E+01  0.7957747E-01            NaN
         13   -1    0    0    0    0  0.00000000000E+00  0.00000000000E+00  0.74505805969E-08  0.10566000000E+00  0.10566000000E+00 0.  1.
     999900   -1    0    0    0    0 -0.00000000000E+00 -0.00000000000E+00 -0.74505805969E-08  0.93827000000E+00  0.93827000000E+00 0.  1.
     999902    2    1    2    0    0 -0.23200839409E-01  0.10591238714E-02 -0.99930056256E-02  0.10186463916E+01  0.10183325637E+01 0.  0.
     999903    2    3    3    0    0  0.75671277046E-01 -0.94923675113E-01 -0.34165899954E-01  0.12759492174E+00  0.19403841539E-01 0.  0.
         14    1    1    2    0    0  0.23200839409E-01 -0.10591238714E-02  0.99930056256E-02  0.25283608407E-01  0.00000000000E+00 0. -1.
     999901    1    3    3    0    0 -0.98872116455E-01  0.95982798985E-01  0.24172894328E-01  0.89105146986E+00  0.88000000000E+00 0.  1.
        -11    1    4    4    0    0  0.24619043913E-01 -0.41684472185E-01 -0.20503953285E-01  0.52577236194E-01  0.51100000000E-03 0. -1.
         11    1    4    4    0    0  0.51052233133E-01 -0.53239202928E-01 -0.13661946669E-01  0.75017685542E-01  0.51100000000E-03 0.  1.
</event>
<event>
 8    1  0.1161093E+005  0.1043930E+01  0.7957747E-01            NaN
         13   -1    0    0    0    0  0.00000000000E+00  0.00000000000E+00  0.74505805969E-08  0.10566000000E+00  0.10566000000E+00 0.  1.
     999900   -1    0    0    0    0 -0.00000000000E+00 -0.00000000000E+00 -0.74505805969E-08  0.93827000000E+00  0.93827000000E+00 0.  1.
     999902    2    1    2    0    0 -0.70184669491E-02 -0.16850203094E-01  0.14631384556E-01  0.10205362907E+01  0.10202681289E+01 0.  0.
     999903    2    3    3    0    0  0.31556712835E-02 -0.12340014541E+00  0.46891433661E-01  0.13346407598E+00  0.19398424610E-01 0.  0.
         14    1    1    2    0    0  0.70184669491E-02  0.16850203094E-01 -0.14631384556E-01  0.23393709339E-01  0.00000000000E+00 0.  1.
     999901    1    3    3    0    0 -0.10174138233E-01  0.10654994231E+00 -0.32260049105E-01  0.88707221468E+00  0.88000000000E+00 0. -1.
        -11    1    4    4    0    0  0.32656153485E-02 -0.25702110371E-01  0.18105324995E-01  0.31612127978E-01  0.51100000000E-03 0. -1.
         11    1    4    4    0    0 -0.10994406495E-03 -0.97698035038E-01  0.28786108666E-01  0.10185194800E+00  0.51100000000E-03 0.  1.
</event>
<event>
 8    1  0.1161093E+005  0.1043930E+01  0.7957747E-01            NaN
         13   -1    0    0    0    0  0.00000000000E+00  0.00000000000E+00  0.74505805969E-08  0.10566000000E+00  0.10566000000E+00 0.  1.
     999900   -1    0    0    0    0 -0.00000000000E+00 -0.00000000000E+00 -0.74505805969E-08  0.93827000000E+00  0.93827000000E+00 0. -1.
     999902    2    1    2    0    0 -0.78212984559E-02 -0.16182182169E-01  0.16304097976E-01  0.10196635759E+01  0.10193747832E+01 0.  0.
     999903    2    3    3    0    0  0.70498593026E-01  0.87797405749E-02  0.10816105343E+00  0.13107210435E+00  0.20831408885E-01 0.  0.
         14    1    1    2    0    0  0.78212984559E-02  0.16182182169E-01 -0.16304097976E-01  0.24266424131E-01  0.00000000000E+00 0. -1.
     999901    1    3    3    0    0 -0.78319891481E-01 -0.24961922744E-01 -0.91856955457E-01  0.88859147152E+00  0.88000000000E+00 0. -1.
        -11    1    4    4    0    0  0.33159720282E-01  0.13763592939E-01  0.45548805302E-01  0.57999640733E-01  0.51100000000E-03 0. -1.
         11    1    4    4    0    0  0.37338872744E-01 -0.49838523637E-02  0.62612248131E-01  0.73072463617E-01  0.51100000000E-03 0.  1.
</event>
<event>
 8    1  0.1161093E+005  0.1043930E+01  0.7957747E-01            NaN
         13   -1    0    0    0    0  0.00000000000E+00  0.00000000000E+00  0.74505805969E-08  0.10566000000E+00  0.10566000000E+00 0. -1.
     999900   -1    0    0    0    0 -0.00000000000E+00 -0.00000000000E+00 -0.74505805969E-08  0.93827000000E+00  0.93827000000E+00 0. -1.
     999902    2    1    2    0    0 -0.15986542382E-01 -0.10096513364E-01  0.14269952996E-01  0.10202415919E+01  0.10199665510E+01 0.  0.
     999903    2    3    3    0    0 -0.99286138329E-02 -0.16301752796E-01 -0.12606439171E+00  0.12908002867E+00  0.20127057048E-01 0.  0.
         14    1    1    2    0    0  0.15986542382E-01  0.10096513364E-01 -0.14269952996E-01  0.23688408093E-01  0.00000000000E+00 0. -1.
     999901    1    3    3    0    0 -0.60579285492E-02  0.62052394318E-02  0.14033434471E+00  0.89116156324E+00  0.88000000000E+00 0.  1.
        -11    1    4    4    0    0 -0.12528914690E-01 -0.16379557622E-02 -0.65483703048E-01  0.66693576065E-01  0.51100000000E-03 0.  1.
         11    1    4    4    0    0  0.26003008566E-02 -0.14663797034E-01 -0.60580688665E-01  0.62386452601E-01  0.51100000000E-03 0. -1.
</event>
<event>
 8    1  0.1161093E+005  0.1043930E+01  0.7957747E-01            NaN
         13   -1    0    0    0    0  0.00000000000E+00  0.00000000000E+00  0.74505805969E-08  0.10566000000E+00  0.10566000000E+00 0. -1.
     999900   -1    0    0    0    0 -0.00000000000E+00 -0.00000000000E+00 -0.74505805969E-08  0.93827000000E+00  0.93827000000E+00 0. -1.
     999902    2    1    2    0    0  0.17910031134E-01 -0.14272667382E-01  0.47455671980E-02  0.10205419976E+01  0.10202739682E+01 0.  0.
     999903    2    3    3    0    0  0.79819750407E-01  0.44670029214E-01 -0.91589411180E-01  0.13116722680E+00  0.21204176058E-01 0.  0.
         14    1    1    2    0    0 -0.17910031134E-01  0.14272667382E-01 -0.47455671980E-02  0.23388002426E-01  0.00000000000E+00 0.  1.
     999901    1    3    3    0    0 -0.61909719272E-01 -0.58942696596E-01  0.96334978378E-01  0.88937477077E+00  0.88000000000E+00 0. -1.
        -11    1    4    4    0    0  0.51823408918E-01  0.31490046972E-01 -0.73620851714E-01  0.95381233470E-01  0.51100000000E-03 0.  1.
         11    1    4    4    0    0  0.27996341489E-01  0.13179982241E-01 -0.17968559467E-01  0.35785993334E-01  0.51100000000E-03 0. -1.
</event>
<event>
 8    1  0.1161093E+005  0.1043930E+01  0.7957747E-01            NaN
         13   -1    0    0    0    0  0.00000000000E+00  0.00000000000E+00  0.74505805969E-08  0.10566000000E+00  0.10566000000E+00 0.  1.
     999900   -1    0    0    0    0 -0.00000000000E+00 -0.00000000000E+00 -0.74505805969E-08  0.93827000000E+00  0.93827000000E+00 0. -1.
     999902    2    1    2    0    0 -0.96826128798E-03  0.11365158140E-01 -0.21152485689E-01  0.10198981045E+01  0.10196149330E+01 0.  0.
     999903    2    3    3    0    0 -0.62412380427E-01  0.31505563445E-01  0.10597278907E+00  0.12841515394E+00  0.19295439322E-01 0.  0.
         14    1    1    2    0    0  0.96826128798E-03 -0.11365158140E-01  0.21152485689E-01  0.24031895478E-01  0.00000000000E+00 0.  1.
     999901    1    3    3    0    0  0.61444119139E-01 -0.20140405305E-01 -0.12712527476E+00  0.89148295059E+00  0.88000000000E+00 0. -1.
        -11    1    4    4    0    0 -0.40978851454E-01  0.26139617772E-01  0.58570219942E-01  0.76113583997E-01  0.51100000000E-03 0.  1.
         11    1    4    4    0    0 -0.21433528973E-01  0.53659456728E-02  0.47402569128E-01  0.52301569939E-01  0.51100000000E-03 0. -1.
</event>
<event>
 8    1  0.1161093E+005  0.1043930E+01  0.7957747E-01            NaN
         13   -1    0    0    0    0  0.00000000000E+00  0.00000000000E+00  0.74505805969E-08  0.10566000000E+00  0.10566000000E+00 0. -1.
     999900   -1    0    0    0    0 -0.00000000000E+00 -0.00000000000E+00 -0.74505805969E-08  0.93827000000E+00  0.93827000000E+00 0.  1.
     999902    2    1    2    0    0  0.95523124096E-02 -0.22507853703E-01 -0.20802751312E-02  0.10193906908E+01  0.10190952864E+01 0.  0.
     999903    2    3    3    0    0 -0.11768349469E-01  0.58104535399E-01 -0.11238253995E+00  0.12859356603E+00  0.19794919934E-01 0.  0.
         14    1    1    2    0    0 -0.95523124096E-02  0.22507853703E-01  0.20802751312E-02  0.24539309186E-01  0.00000000000E+00 0. -1.
     999901    1    3    3    0    0  0.21320661879E-01 -0.80612389102E-01  0.11030226482E+00  0.89079712478E+00  0.88000000000E+00 0. -1.
        -11    1    4    4    0    0 -0.78730222444E-02  0.15408466321E-01 -0.18239572361E-01  0.25146539216E-01  0.51100000000E-03 0. -1.
         11    1    4    4    0    0 -0.38953272247E-02  0.42696069078E-01 -0.94142967591E-01  0.10344702681E+00  0.51100000000E-03 0.  1.
</event>
<event>
 8    1  0.1161093E+005  0.1043930E+01  0.7957747E-01            NaN
         13   -1    0    0    0    0  0.00000000000E+00  0.00000000000E+00  0.74505805969E-08  0.10566000000E+00  0.10566000000E+00 0. -1.
     999900   -1    0    0    0    0 -0.00000000000E+00 -0.00000000000E+00 -0.74505805969E-08  0.93827000000E+00  0.93827000000E+00 0. -1.
     999902    2    1    2    0    0 -0.10473842964E-02  0.16226455800E-01  0.17032684072E-01  0.10203820233E+01  0.10201102716E+01 0.  0.
     999903    2    3    3    0    0 -0.85861745017E-01  0.55339366218E-01  0.83583439101E-01  0.13294058940E+00  0.15884719287E-01 0.  0.
         14    1    1    2    0    0  0.10473842964E-02 -0.16226455800E-01 -0.17032684072E-01  0.23547976737E-01  0.00000000000E+00 0. -1.
     999901    1    3    3    0    0  0.84814360720E-01 -0.39112910418E-01 -0.66550755029E-01  0.88744143387E+00  0.88000000000E+00 0.  1.
        -11    1    4    4    0    0 -0.16035240983E-01  0.17573306609E-01  0.22809312107E-01  0.32961733849E-01  0.51100000000E-03 0. -1.
         11    1    4    4    0    0 -0.69826504034E-01  0.37766059609E-01  0.60774126994E-01  0.99978855549E-01  0.51100000000E-03 0.  1.
</event>
<event>
 8    1  0.1161093E+005  0.1043930E+01  0.7957747E-01            NaN
         13   -1    0    0    0    0  0.00000000000E+00  0.00000000000E+00  0.74505805969E-08  0.10566000000E+00  0.10566000000E+00 0.  1.
     999900   -1    0    0    0    0 -0.00000000000E+00 -0.00000000000E+00 -0.74505805969E-08  0.93827000000E+00  0.93827000000E+00 0.  1.
     999902    2    1    2    0    0 -0.24035800187E-02 -0.21477717208E-01  0.67700362292E-02  0.10212826398E+01  0.10210315017E+01 0.  0.
     999903    2    3    3    0    0  0.11132905566E-01  0.12368521236E+00 -0.25636662959E-01  0.12869891448E+00  0.22004516735E-01 0.  0.
         14    1    1    2    0    0  0.24035800187E-02  0.21477717208E-01 -0.67700362292E-02  0.22647360198E-01  0.00000000000E+00 0.  1.
     999901    1    3    3    0    0 -0.13536485584E-01 -0.14516292957E+00  0.32406699188E-01  0.89258372533E+00  0.88000000000E+00 0.  1.
        -11    1    4    4    0    0  0.15225375305E-01  0.11061898687E+00 -0.18287175789E-01  0.11315058210E+00  0.51100000000E-03 0. -1.
         11    1    4    4    0    0 -0.40924697397E-02  0.13066225489E-01 -0.73494871704E-02  0.15548332379E-01  0.51100000000E-03 0.  1.
</event>
<event>
 8    1  0.1161093E+005  0.1043930E+01  0.7957747E-01            NaN
         13   -1    0    0    0    0  0.00000000000E+00  0.00000000000E+00  0.74505805969E-08  0.10566000000E+00  0.10566000000E+00 0.  1.
     999900   -1    0    0    0    0 -0.00000000000E+00 -0.00000000000E+00 -0.74505805969E-08  0.93827000000E+00  0.93827000000E+00 0. -1.
     999902    2    1    2    0    0 -0.11085142642E-01 -0.18090547472E-01 -0.80679730133E-02  0.10212310907E+01  0.10209787951E+01 0.  0.
     999903    2    3    3    0    0  0.12074362982E+00  0.12326439237E-01 -0.44191545616E-01  0.13015930300E+00  0.16049492369E-01 0.  0.
         14    1    1    2    0    0  0.11085142642E-01  0.18090547472E-01  0.80679730133E-02  0.22698909309E-01  0.00000000000E+00 0. -1.
     999901    1    3    3    0    0 -0.13182877246E+00 -0.30416986710E-01  0.36123572603E-01  0.89107178770E+00  0.88000000000E+00 0. -1.
        -11    1    4    4    0    0  0.58302771167E-01  0.13996125216E-01 -0.21367803958E-01  0.63654919793E-01  0.51100000000E-03 0. -1.
         11    1    4    4    0    0  0.62440858655E-01 -0.16696859786E-02 -0.22823741658E-01  0.66504383203E-01  0.51100000000E-03 0.  1.
</event>
<event>
 8    1  0.1161093E+005  0.1043930E+01  0.7957747E-01            NaN
         13   -1    0    0    0    0  0.00000000000E+00  0.00000000000E+00  0.74505805969E-08  0.10566000000E+00  0.10566000000E+00 0.  1.
     999900   -1    0    0    0    0 -0.00000000000E+00 -0.00000000000E+00 -0.74505805969E-08  0.93827000000E+00  0.93827000000E+00 0. -1.
     999902    2    1    2    0    0  0.24265216760E-01  0.71357446907E-02  0.51164904244E-02  0.10181249991E+01  0.10177979248E+01 0.  0.
     999903    2    3    3    0    0  0.31960605684E-01  0.38694530463E-01  0.11842851292E+00  0.13026533091E+00  0.20615449605E-01 0.  0.
         14    1    1    2    0    0 -0.24265216760E-01 -0.71357446907E-02 -0.51164904244E-02  0.25805000890E-01  0.00000000000E+00 0. -1.
     999901    1    3    3    0    0 -0.76953889246E-02 -0.31558785773E-01 -0.11331202249E+00  0.88785966820E+00  0.88000000000E+00 0. -1.
        -11    1    4    4    0    0  0.20073235660E-01  0.35053261305E-01  0.76255983050E-01  0.86295434351E-01  0.51100000000E-03 0. -1.
         11    1    4    4    0    0  0.11887370025E-01  0.36412691587E-02  0.42172529867E-01  0.43969896561E-01  0.51100000000E-03 0.  1.
</event>
<event>
 8    1  0.1161093E+005  0.1043930E+01  0.7957747E-01            NaN
         13   -1    0    0    0    0  0.00000000000E+00  0.00000000000E+00  0.74505805969E-08  0.10566000000E+00  0.10566000000E+00 0.  1.
     999900   -1    0    0    0    0 -0.00000000000E+00 -0.00000000000E+00 -0.74505805969E-08  0.93827000000E+00  0.93827000000E+00 0. -1.
     999902    2    1    2    0    0  0.11530484556E-01  0.14002894145E-01  0.13496878111E-01  0.10213202933E+01  0.10210699989E+01 0.  0.
     999903    2    3    3    0    0 -0.76516528584E-01 -0.30169151854E-02  0.10607957928E+00  0.13193089208E+00  0.17000065343E-01 0.  0.
         14    1    1    2    0    0 -0.11530484556E-01 -0.14002894145E-01 -0.13496878111E-01  0.22609706704E-01  0.00000000000E+00 0. -1.
     999901    1    3    3    0    0  0.88047013139E-01  0.17019809330E-01 -0.92582701171E-01  0.88938940121E+00  0.88000000000E+00 0. -1.
        -11    1    4    4    0    0 -0.39697500503E-01  0.53274069156E-02  0.46259291043E-01  0.61191959761E-01  0.51100000000E-03 0.  1.
         11    1    4    4    0    0 -0.36819028081E-01 -0.83443221010E-02  0.59820288239E-01  0.70738932322E-01  0.51100000000E-03 0. -1.
</event>
<event>
 8    1  0.1161093E+005  0.1043930E+01  0.7957747E-01            NaN
         13   -1    0    0    0    0  0.00000000000E+00  0.00000000000E+00  0.74505805969E-08  0.10566000000E+00  0.10566000000E+00 0. -1.
     999900   -1    0    0    0    0 -0.00000000000E+00 -0.00000000000E+00 -0.74505805969E-08  0.93827000000E+00  0.93827000000E+00 0. -1.
     999902    2    1    2    0    0 -0.14788428983E-03 -0.43595056720E-02  0.22274772508E-01  0.10212321444E+01  0.10209798725E+01 0.  0.
     999903    2    3    3    0    0 -0.45251460891E-01 -0.12220387241E+00  0.86282426952E-02  0.13212705769E+00  0.20040749913E-01 0.  0.
         14    1    1    2    0    0  0.14788428983E-03  0.43595056720E-02 -0.22274772508E-01  0.22697855620E-01  0.00000000000E+00 0.  1.
     999901    1    3    3    0    0  0.45103576602E-01  0.11784436674E+00  0.13646529813E-01  0.88910508669E+00  0.88000000000E+00 0. -1.
        -11    1    4    4    0    0  0.81839719478E-03 -0.10313118262E-01  0.37752203028E-02  0.11024681019E-01  0.51100000000E-03 0. -1.
         11    1    4    4    0    0 -0.46069858086E-01 -0.11189075415E+00  0.48530223923E-02  0.12110237667E+00  0.51100000000E-03 0.  1.
</event>
<event>
 8    1  0.1161093E+005  0.1043930E+01  0.7957747E-01            NaN
         13   -1    0    0    0    0  0.00000000000E+00  0.00000000000E+00  0.74505805969E-08  0.10566000000E+00  0.10566000000E+00 0. -1.
     999900   -1    0    0    0    0 -0.00000000000E+00 -0.00000000000E+00 -0.74505805969E-08  0.93827000000E+00  0.93827000000E+00 0.  1.
     999902    2    1    2    0    0 -0.19206134748E-01  0.53611385234E-02  0.12592394361E-01  0.10203464080E+01  0.10200738240E+01 0.  0.
     999903    2    3    3    0    0  0.12155417638E+00 -0.23911207684E-01  0.27185694413E-01  0.12855983043E+00  0.21009625645E-01 0.  0.
         14    1    1    2    0    0  0.19206134748E-01 -0.53611385234E-02 -0.12592394361E-01  0.23583592050E-01  0.00000000000E+00 0. -1.
     999901    1    3    3    0    0 -0.14076031113E+00  0.29272346207E-01 -0.14593300052E-01  0.89178657752E+00  0.88000000000E+00 0.  1.
        -11    1    4    4    0    0  0.10530135274E+00 -0.16723535922E-01  0.16707978669E-01  0.10792344145E+00  0.51100000000E-03 0. -1.
         11    1    4    4    0    0  0.16252823642E-01 -0.71876717618E-02  0.10477715744E-01  0.20636388974E-01  0.51100000000E-03 0.  1.
</event>
<event>
 8    1  0.1161093E+005  0.1043930E+01  0.7957747E-01            NaN
         13   -1    0    0    0    0  0.00000000000E+00  0.00000000000E+00  0.74505805969E-08  0.10566000000E+00  0.10566000000E+00 0.  1.
     999900   -1    0    0    0    0 -0.00000000000E+00 -0.00000000000E+00 -0.74505805969E-08  0.93827000000E+00  0.93827000000E+00 0.  1.
     999902    2    1    2    0    0  0.14521386451E-01 -0.63206132932E-02 -0.16716439357E-01  0.10209026215E+01  0.10206428868E+01 0.  0.
     999903    2    3    3    0    0 -0.22113276844E-01 -0.12347161730E+00  0.32261829621E-01  0.13103446994E+00  0.19873836339E-01 0.  0.
         14    1    1    2    0    0 -0.14521386451E-01  0.63206132932E-02  0.16716439357E-01  0.23027378523E-01  0.00000000000E+00 0.  1.
     999901    1    3    3    0    0  0.36634663294E-01  0.11715100400E+00 -0.48978268978E-01  0.88986815154E+00  0.88000000000E+00 0. -1.
        -11    1    4    4    0    0 -0.22219270234E-01 -0.78096644227E-01  0.25805049291E-01  0.85199433679E-01  0.51100000000E-03 0.  1.
         11    1    4    4    0    0  0.10599339040E-03 -0.45374973069E-01  0.64567803298E-02  0.45835036258E-01  0.51100000000E-03 0. -1.
</event>
<event>
 8    1  0.1161093E+005  0.1043930E+01  0.7957747E-01            NaN
         13   -1    0    0    0    0  0.00000000000E+00  0.00000000000E+00  0.74505805969E-08  0.10566000000E+00  0.10566000000E+00 0.  1.
     999900   -1    0    0    0    0 -0.00000000000E+00 -0.00000000000E+00 -0.74505805969E-08  0.93827000000E+00  0.93827000000E+00 0.  1.
     999902    2    1    2    0    0 -0.74366654250E-03  0.10324570201E-01  0.21059776758E-01  0.10204637692E+01  0.10201939229E+01 0.  0.
     999903    2    3    3    0    0  0.84637891030E-01  0.29175496237E-01 -0.90773529667E-01  0.12908727401E+00  0.20221484746E-01 0.  0.
         14    1    1    2    0    0  0.74366654250E-03 -0.10324570201E-01 -0.21059776758E-01  0.23466230777E-01  0.00000000000E+00 0.  1.
     999901    1    3    3    0    0 -0.85381557573E-01 -0.18850926036E-01  0.11183330643E+00  0.89137649521E+00  0.88000000000E+00 0. -1.
        -11    1    4    4    0    0  0.60849026208E-01  0.18405052813E-01 -0.75986285085E-01  0.99073339510E-01  0.51100000000E-03 0.  1.
         11    1    4    4    0    0  0.23788864823E-01  0.10770443425E-01 -0.14787244581E-01  0.30013934504E-01  0.51100000000E-03 0. -1.
</event>
<event>
 8    1  0.1161093E+005  0.1043930E+01  0.7957747E-01            NaN
         13   -1    0    0    0    0  0.00000000000E+00  0.00000000000E+00  0.74505805969E-08  0.10566000000E+00  0.10566000000E+00 0.  1.
     999900   -1    0    0    0    0 -0.00000000000E+00 -0.00000000000E+00 -0.74505805969E-08  0.93827000000E+00  0.93827000000E+00 0. -1.
     999902    2    1    2    0    0 -0.40844088574E-02 -0.16150970917E-01 -0.75588975183E-02  0.10256359248E+01  0.10254727578E+01 0.  0.
     999903    2    3    3    0    0  0.11145979186E-01 -0.44483835523E-01  0.12337313036E+00  0.13536747543E+00  0.31628778605E-01 0.  0.
         14    1    1    2    0    0  0.40844088574E-02  0.16150970917E-01  0.75588975183E-02  0.18294075242E-01  0.00000000000E+00 0.  1.
     999901    1    3    3    0    0 -0.15230388043E-01  0.28332864606E-01 -0.13093202788E+00  0.89026844932E+00  0.88000000000E+00 0. -1.
        -11    1    4    4    0    0  0.31529421248E-02 -0.39073436231E-01  0.62830324792E-01  0.74057986048E-01  0.51100000000E-03 0. -1.
         11    1    4    4    0    0  0.79930370608E-02 -0.54103992919E-02  0.60542805567E-01  0.61309489387E-01  0.51100000000E-03 0.  1.
</event>
<event>
 8    1  0.1161093E+005  0.1043930E+01  0.7957747E-01            NaN
         13   -1    0    0    0    0  0.00000000000E+00  0.00000000000E+00  0.74505805969E-08  0.10566000000E+00  0.10566000000E+00 0.  1.
     999900   -1    0    0    0    0 -0.00000000000E+00 -0.00000000000E+00 -0.74505805969E-08  0.93827000000E+00  0.93827000000E+00 0.  1.
     999902    2    1    2    0    0  0.22713115135E-02  0.99719410868E-02 -0.21939245010E-01  0.10197240310E+01  0.10194366927E+01 0.  0.
     999903    2    3    3    0    0 -0.10071274140E+00 -0.72446848392E-01  0.27219288392E-01  0.12853654597E+00  0.19726932551E-01 0.  0.
         14    1    1    2    0    0 -0.22713115135E-02 -0.99719410868E-02  0.21939245010E-01  0.24205969029E-01  0.00000000000E+00 0.  1.
     999901    1    3    3    0    0  0.10298405291E+00  0.82418789479E-01 -0.49158533401E-01  0.89118748500E+00  0.88000000000E+00 0.  1.
        -11    1    4    4    0    0 -0.55684971491E-01 -0.43916472074E-01  0.24946214364E-01  0.75180099105E-01  0.51100000000E-03 0.  1.
         11    1    4    4    0    0 -0.45027769908E-01 -0.28530376319E-01  0.22730740280E-02  0.53356446867E-01  0.51100000000E-03 0. -1.
</event>
<event>
 8    1  0.1161093E+005  0.1043930E+01  0.7957747E-01            NaN
         13   -1    0    0    0    0  0.00000000000E+00  0.00000000000E+00  0.74505805969E-08  0.10566000000E+00  0.10566000000E+00 0.  1.
     999900   -1    0    0    0    0 -0.00000000000E+00 -0.00000000000E+00 -0.74505805969E-08  0.93827000000E+00  0.93827000000E+00 0.  1.
     999902    2    1    2    0    0  0.20740420225E-01 -0.12158902015E-01  0.34283627637E-02  0.10196450746E+01  0.10193558361E+01 0.  0.
     999903    2    3    3    0    0  0.42414707235E-01  0.14603031082E-01  0.12051048579E+00  0.13122276552E+00  0.26160678475E-01 0.  0.
         14    1    1    2    0    0 -0.20740420225E-01  0.12158902015E-01 -0.34283627637E-02  0.24284925377E-01  0.00000000000E+00 0.  1.
     999901    1    3    3    0    0 -0.21674287009E-01 -0.26761933097E-01 -0.11708212303E+00  0.88842230910E+00  0.88000000000E+00 0.  1.
        -11    1    4    4    0    0  0.14648075913E-01  0.12842608676E-01  0.78126302991E-01  0.80520053810E-01  0.51100000000E-03 0. -1.
         11    1    4    4    0    0  0.27766631322E-01  0.17604224059E-02  0.42384182800E-01  0.50702711709E-01  0.51100000000E-03 0.  1.
</event>
<event>
 8    1  0.1161093E+005  0.1043930E+01  0.7957747E-01            NaN
         13   -1    0    0    0    0  0.00000000000E+00  0.00000000000E+00  0.74505805969E-08  0.10566000000E+00  0.10566000000E+00 0. -1.
     999900   -1    0    0    0    0 -0.00000000000E+00 -0.00000000000E+00 -0.74505805969E-08  0.93827000000E+00  0.93827000000E+00 0.  1.
     999902    2    1    2    0    0 -0.62232563276E-02 -0.14384097120E-01 -0.18015539573E-01  0.10200513310E+01  0.10197718014E+01 0.  0.
     999903    2    3    3    0    0  0.30759172187E-01 -0.74195264375E-01 -0.10367887778E+00  0.13309965061E+00  0.22696769968E-01 0.  0.
         14    1    1    2    0    0  0.62232563276E-02  0.14384097120E-01  0.18015539573E-01  0.23878669045E-01  0.00000000000E+00 0. -1.
     999901    1    3    3    0    0 -0.36982428515E-01  0.59811167255E-01  0.85663338205E-01  0.88695168034E+00  0.88000000000E+00 0. -1.
        -11    1    4    4    0    0  0.90291980995E-02 -0.17179414316E-01 -0.11531451627E-01  0.22580836835E-01  0.51100000000E-03 0.  1.
         11    1    4    4    0    0  0.21729974088E-01 -0.57015850059E-01 -0.92147426151E-01  0.11051881378E+00  0.51100000000E-03 0. -1.
</event>
<event>
 8    1  0.1161093E+005  0.1043930E+01  0.7957747E-01            NaN
         13   -1    0    0    0    0  0.00000000000E+00  0.00000000000E+00  0.74505805969E-08  0.10566000000E+00  0.10566000000E+00 0.  1.
     999900   -1    0    0    0    0 -0.00000000000E+00 -0.00000000000E+00 -0.74505805969E-08  0.93827000000E+00  0.93827000000E+00 0.  1.
     999902    2    1    2    0    0  0.16562070722E-01 -0.13380281725E-01  0.19417823885E-01  0.10151135809E+01  0.10147044871E+01 0.  0.
     999903    2    3    3    0    0  0.94748598547E-01  0.69483475904E-01 -0.40618774999E-01  0.12574080828E+00  0.18857773841E-01 0.  0.
         14    1    1    2    0    0 -0.16562070722E-01  0.13380281725E-01 -0.19417823885E-01  0.28816419106E-01  0.00000000000E+00 0. -1.
     999901    1    3    3    0    0 -0.78186527825E-01 -0.82863757629E-01  0.60036598884E-01  0.88937277261E+00  0.88000000000E+00 0. -1.
        -11    1    4    4    0    0  0.64529170581E-01  0.56310335989E-01 -0.24743400576E-01  0.89147993742E-01  0.51100000000E-03 0. -1.
         11    1    4    4    0    0  0.30219427966E-01  0.13173139915E-01 -0.15875374423E-01  0.36592814539E-01  0.51100000000E-03 0.  1.
</event>
<event>
 8    1  0.1161093E+005  0.1043930E+01  0.7957747E-01            NaN
         13   -1    0    0    0    0  0.00000000000E+00  0.00000000000E+00  0.74505805969E-08  0.10566000000E+00  0.10566000000E+00 0.  1.
     999900   -1    0    0    0    0 -0.00000000000E+00 -0.00000000000E+00 -0.74505805969E-08  0.93827000000E+00  0.93827000000E+00 0. -1.
     999902    2    1    2    0    0  0.45442046022E-02  0.46393591927E-02 -0.22193768780E-01  0.10208056228E+01  0.10205436701E+01 0.  0.
     999903    2    3    3    0    0  0.75716776570E-02 -0.31987945758E-01  0.12230305265E+00  0.12826427558E+00  0.20325568245E-01 0.  0.
         14    1    1    2    0    0 -0.45442046022E-02 -0.46393591927E-02  0.22193768780E-01  0.23124377221E-01  0.00000000000E+00 0.  1.
     999901    1    3    3    0    0 -0.30274730548E-02  0.36627304951E-01 -0.14449682143E+00  0.89254134720E+00  0.88000000000E+00 0. -1.
        -11    1    4    4    0    0  0.44623657005E-02  0.16906295184E-02  0.16725909031E-01  0.17400807158E-01  0.51100000000E-03 0. -1.
         11    1    4    4    0    0  0.31093119565E-02 -0.33678575277E-01  0.10557714362E+00  0.11086346842E+00  0.51100000000E-03 0.  1.
</event>
<event>
 8    1  0.1161093E+005  0.1043930E+01  0.7957747E-01            NaN
         13   -1    0    0    0    0  0.00000000000E+00  0.00000000000E+00  0.74505805969E-08  0.10566000000E+00  0.10566000000E+00 0. -1.
     999900   -1    0    0    0    0 -0.00000000000E+00 -0.00000000000E+00 -0.74505805969E-08  0.93827000000E+00  0.93827000000E+00 0. -1.
     999902    2    1    2    0    0  0.92504919122E-02  0.14450994547E-01  0.15332040388E-01  0.10209196913E+01  0.10206603459E+01 0.  0.
     999903    2    3    3    0    0  0.18615609697E-01  0.13074796613E+00  0.12563474787E-01  0.13321458487E+00  0.12112520375E-01 0.  0.
         14    1    1    2    0    0 -0.92504919122E-02 -0.14450994547E-01 -0.15332040388E-01  0.23010308700E-01  0.00000000000E+00 0.  1.
     999901    1    3    3    0    0 -0.93651177846E-02 -0.11629697159E+00  0.27685656013E-02  0.88770510643E+00  0.88000000000E+00 0.  1.
        -11    1    4    4    0    0  0.75479818879E-02  0.85103621687E-01  0.44995334079E-02  0.85557614370E-01  0.51100000000E-03 0.  1.
         11    1    4    4    0    0  0.11067627809E-01  0.45644344447E-01  0.80639413787E-02  0.47656970497E-01  0.51100000000E-03 0. -1.
</event>
<event>
 8    1  0.1161093E+005  0.1043930E+01  0.7957747E-01            NaN
         13   -1    0    0    0    0  0.00000000000E+00  0.00000000000E+00  0.74505805969E-08  0.10566000000E+00  0.10566000000E+00 0. -1.
     999900   -1    0    0    0    0 -0.00000000000E+00 -0.00000000000E+00 -0.74505805969E-08  0.93827000000E+00  0.93827000000E+00 0.  1.
     999902    2    1    2    0    0 -0.20795267590E-01 -0.83663595167E-03 -0.93702484045E-02  0.10211057877E+01  0.10208506673E+01 0.  0.
     999903    2    3    3    0    0 -0.39895534587E-01 -0.11322572902E+00 -0.53834882418E-01  0.13263900037E+00  0.16828263755E-01 0.  0.
         14    1    1    2    0    0  0.20795267590E-01  0.83663595167E-03  0.93702484045E-02  0.22824212342E-01  0.00000000000E+00 0. -1.
     999901    1    3    3    0    0  0.19100266996E-01  0.11238909307E+00  0.44464634013E-01  0.88846678729E+00  0.88000000000E+00 0. -1.
        -11    1    4    4    0    0 -0.22126896870E-01 -0.74155587020E-01 -0.42291449022E-01  0.88190013226E-01  0.51100000000E-03 0. -1.
         11    1    4    4    0    0 -0.17768637717E-01 -0.39070142002E-01 -0.11543433396E-01  0.44448987142E-01  0.51100000000E-03 0.  1.
</event>
<event>
 8    1  0.1161093E+005  0.1043930E+01  0.7957747E-01            NaN
         13   -1    0    0    0    0  0.00000000000E+00  0.00000000000E+00  0.74505805969E-08  0.10566000000E+00  0.10566000000E+00 0. -1.
     999900   -1    0    0    0    0 -0.00000000000E+00 -0.00000000000E+00 -0.74505805969E-08  0.93827000000E+00  0.93827000000E+00 0.  1.
     999902    2    1    2    0    0  0.22862209236E-01  0.75990033669E-02  0.22567204921E-01  0.10109193320E+01  0.10103802213E+01 0.  0.
     999903    2    3    3    0    0  0.50794008602E-02 -0.16724879021E-01  0.12204190451E+00  0.12480246873E+00  0.19388343248E-01 0.  0.
         14    1    1    2    0    0 -0.22862209236E-01 -0.75990033669E-02 -0.22567204921E-01  0.33010667992E-01  0.00000000000E+00 0. -1.
     999901    1    3    3    0    0  0.17782808376E-01  0.24323882388E-01 -0.99474699587E-01  0.88611686328E+00  0.88000000000E+00 0.  1.
        -11    1    4    4    0    0  0.51493159230E-02 -0.20303154822E-01  0.83391533416E-01  0.85983385120E-01  0.51100000000E-03 0.  1.
         11    1    4    4    0    0 -0.69915062762E-04  0.35782758008E-02  0.38650371091E-01  0.38819083610E-01  0.51100000000E-03 0. -1.
</event>
<event>
 8    1  0.1161093E+005  0.1043930E+01  0.7957747E-01            NaN
         13   -1    0    0    0    0  0.00000000000E+00  0.00000000000E+00  0.74505805969E-08  0.10566000000E+00  0.10566000000E+00 0.  1.
     999900   -1    0    0    0    0 -0.00000000000E+00 -0.00000000000E+00 -0.74505805969E-08  0.93827000000E+00  0.93827000000E+00 0.  1.
     999902    2    1    2    0    0  0.13188296591E-01  0.11752882051E-01 -0.14776991375E-01  0.10208991321E+01  0.10206393178E+01 0.  0.
     999903    2    3    3    0    0  0.83520453341E-01  0.60067430072E-01 -0.81024954605E-01  0.13429341336E+00  0.29764329670E-01 0.  0.
         14    1    1    2    0    0 -0.13188296591E-01 -0.11752882051E-01  0.14776991375E-01  0.23030867929E-01  0.00000000000E+00 0.  1.
     999901    1    3    3    0    0 -0.70332156750E-01 -0.48314548022E-01  0.66247963230E-01  0.88660571871E+00  0.88000000000E+00 0. -1.
        -11    1    4    4    0    0  0.11920556957E-01  0.77685103948E-02 -0.26833164181E-01  0.30376458860E-01  0.51100000000E-03 0. -1.
         11    1    4    4    0    0  0.71599896384E-01  0.52298919678E-01 -0.54191790424E-01  0.10391695450E+00  0.51100000000E-03 0.  1.
</event>
<event>
 8    1  0.1161093E+005  0.1043930E+01  0.7957747E-01            NaN
         13   -1    0    0    0    0  0.00000000000E+00  0.00000000000E+00  0.74505805969E-08  0.10566000000E+00  0.10566000000E+00 0.  1.
     999900   -1    0    0    0    0 -0.00000000000E+00 -0.00000000000E+00 -0.74505805969E-08  0.93827000000E+00  0.93827000000E+00 0. -1.
     999902    2    1    2    0    0  0.76355317631E-02  0.20050824639E-01  0.10565434012E-01  0.10200142038E+01  0.10197337940E+01 0.  0.
     999903    2    3    3    0    0  0.11058082915E+00  0.27379417306E-01  0.63089382857E-01  0.13242747125E+00  0.24062681592E-01 0.  0.
         14    1    1    2    0    0 -0.76355317631E-02 -0.20050824639E-01 -0.10565434012E-01  0.23915796242E-01  0.00000000000E+00 0. -1.
     999901    1    3    3    0    0 -0.10294529738E+00 -0.73285926671E-02 -0.52523948845E-01  0.88758673251E+00  0.88000000000E+00 0. -1.
        -11    1    4    4    0    0  0.28432895684E-01  0.18132715141E-01  0.19836464695E-01  0.39127629214E-01  0.51100000000E-03 0.  1.
         11    1    4    4    0    0  0.82147933463E-01  0.92467021648E-02  0.43252918162E-01  0.93299842035E-01  0.51100000000E-03 0. -1.
</event>
<event>
 8    1  0.1161093E+005  0.1043930E+01  0.7957747E-01            NaN
         13   -1    0    0    0    0  0.00000000000E+00  0.00000000000E+00  0.74505805969E-08  0.10566000000E+00  0.10566000000E+00 0. -1.
     999900   -1    0    0    0    0 -0.00000000000E+00 -0.00000000000E+00 -0.74505805969E-08  0.93827000000E+00  0.93827000000E+00 0.  1.
     999902    2    1    2    0    0  0.21099349671E-01  0.68553315856E-02  0.93107510875E-03  0.10217253827E+01  0.10214840736E+01 0.  0.
     999903    2    3    3    0    0 -0.57599459158E-01  0.35158242607E-01 -0.10979702566E+00  0.13085206424E+00  0.22651184355E-01 0.  0.
         14    1    1    2    0    0 -0.21099349671E-01 -0.68553315856E-02 -0.93107510875E-03  0.22204617280E-01  0.00000000000E+00 0. -1.
     999901    1    3    3    0    0  0.78698808829E-01 -0.28302911022E-01  0.11072810077E+00  0.89087331848E+00  0.88000000000E+00 0. -1.
        -11    1    4    4    0    0 -0.35414254904E-01  0.33761413024E-01 -0.76759832099E-01  0.91029310690E-01  0.51100000000E-03 0.  1.
         11    1    4    4    0    0 -0.22185204255E-01  0.13968295835E-02 -0.33037193562E-01  0.39822753548E-01  0.51100000000E-03 0. -1.
</event>
<event>
 8    1  0.1161093E+005  0.1043930E+01  0.7957747E-01            NaN
         13   -1    0    0    0    0  0.00000000000E+00  0.00000000000E+00  0.74505805969E-08  0.10566000000E+00  0.10566000000E+00 0.  1.
     999900   -1    0    0    0    0 -0.00000000000E+00 -0.00000000000E+00 -0.74505805969E-08  0.93827000000E+00  0.93827000000E+00 0.  1.
     999902    2    1    2    0    0 -0.80511313341E-02  0.23263340282E-01  0.26530452263E-01  0.10077378929E+01  0.10070877778E+01 0.  0.
     999903    2    3    3    0    0 -0.10031670352E+00  0.65661332581E-01  0.58708853171E-02  0.12165813170E+00  0.19783379676E-01 0.  0.
         14    1    1    2    0    0  0.80511313341E-02 -0.23263340282E-01 -0.26530452263E-01  0.36192107070E-01  0.00000000000E+00 0. -1.
     999901    1    3    3    0    0  0.92265572189E-01 -0.42397992298E-01  0.20659566946E-01  0.88607976123E+00  0.88000000000E+00 0.  1.
        -11    1    4    4    0    0 -0.70691441395E-01  0.43788998082E-01  0.12940752871E-01  0.84157474091E-01  0.51100000000E-03 0. -1.
         11    1    4    4    0    0 -0.29625262128E-01  0.21872334499E-01 -0.70698675542E-02  0.37500657605E-01  0.51100000000E-03 0.  1.
</event>
<event>
 8    1  0.1161093E+005  0.1043930E+01  0.7957747E-01            NaN
         13   -1    0    0    0    0  0.00000000000E+00  0.00000000000E+00  0.74505805969E-08  0.10566000000E+00  0.10566000000E+00 0. -1.
     999900   -1    0    0    0    0 -0.00000000000E+00 -0.00000000000E+00 -0.74505805969E-08  0.93827000000E+00  0.93827000000E+00 0.  1.
     999902    2    1    2    0    0  0.23050330593E-01  0.30749433023E-02  0.26541170825E-02  0.10205245016E+01  0.10202560664E+01 0.  0.
     999903    2    3    3    0    0  0.32801280489E-01  0.22560893112E-01  0.12352953145E+00  0.13199445201E+00  0.24043134586E-01 0.  0.
         14    1    1    2    0    0 -0.23050330593E-01 -0.30749433023E-02 -0.26541170825E-02  0.23405498376E-01  0.00000000000E+00 0. -1.
     999901    1    3    3    0    0 -0.97509498964E-02 -0.19485949809E-01 -0.12087541437E+00  0.88853004961E+00  0.88000000000E+00 0.  1.
        -11    1    4    4    0    0  0.17934770396E-01 -0.11229161880E-02  0.38658248903E-01  0.42633769000E-01  0.51100000000E-03 0. -1.
         11    1    4    4    0    0  0.14866510093E-01  0.23683809300E-01  0.84871282552E-01  0.89360683012E-01  0.51100000000E-03 0.  1.
</event>
<event>
 8    1  0.1161093E+005  0.1043930E+01  0.7957747E-01            NaN
         13   -1    0    0    0    0  0.00000000000E+00  0.00000000000E+00  0.74505805969E-08  0.10566000000E+00  0.10566000000E+00 0. -1.
     999900   -1    0    0    0    0 -0.00000000000E+00 -0.00000000000E+00 -0.74505805969E-08  0.93827000000E+00  0.93827000000E+00 0. -1.
     999902    2    1    2    0    0 -0.23203364111E-01 -0.52778526147E-02 -0.43597723160E-02  0.10197378639E+01  0.10194508579E+01 0.  0.
     999903    2    3    3    0    0 -0.10009863297E+00 -0.32910257185E-01  0.77197318215E-01  0.13219744726E+00  0.20344969221E-01 0.  0.
         14    1    1    2    0    0  0.23203364111E-01  0.52778526147E-02  0.43597723160E-02  0.24192136098E-01  0.00000000000E+00 0.  1.
     999901    1    3    3    0    0  0.76895268858E-01  0.27632404570E-01 -0.81557090531E-01  0.88754041664E+00  0.88000000000E+00 0. -1.
        -11    1    4    4    0    0 -0.26750041492E-01 -0.10006256481E-01  0.10460708478E-01  0.30420016953E-01  0.51100000000E-03 0.  1.
         11    1    4    4    0    0 -0.73348591478E-01 -0.22904000703E-01  0.66736609737E-01  0.10177743031E+00  0.51100000000E-03 0. -1.
</event>
<event>
 8    1  0.1161093E+005  0.1043930E+01  0.7957747E-01            NaN
         13   -1    0    0    0    0  0.00000000000E+00  0.00000000000E+00  0.74505805969E-08  0.10566000000E+00  0.10566000000E+00 0.  1.
     999900   -1    0    0    0    0 -0.00000000000E+00 -0.00000000000E+00 -0.74505805969E-08  0.93827000000E+00  0.93827000000E+00 0. -1.
     999902    2    1    2    0    0 -0.19113994873E-02 -0.26286010166E-02 -0.22025081185E-01  0.10216664156E+01  0.10214238089E+01 0.  0.
     999903    2    3    3    0    0 -0.91851864010E-01 -0.41690127484E-01 -0.86089559688E-01  0.13390555394E+00  0.18559456782E-01 0.  0.
         14    1    1    2    0    0  0.19113994873E-02  0.26286010166E-02  0.22025081185E-01  0.22263584449E-01  0.00000000000E+00 0.  1.
     999901    1    3    3    0    0  0.89940464523E-01  0.39061526468E-01  0.64064478502E-01  0.88776086161E+00  0.88000000000E+00 0. -1.
        -11    1    4    4    0    0 -0.22042726342E-01 -0.77575635942E-02 -0.30527520354E-01  0.38448045431E-01  0.51100000000E-03 0.  1.
         11    1    4    4    0    0 -0.69809137669E-01 -0.33932563890E-01 -0.55562039333E-01  0.95457508505E-01  0.51100000000E-03 0. -1.
</event>
<event>
 8    1  0.1161093E+005  0.1043930E+01  0.7957747E-01            NaN
         13   -1    0    0    0    0  0.00000000000E+00  0.00000000000E+00  0.74505805969E-08  0.10566000000E+00  0.10566000000E+00 0. -1.
     999900   -1    0    0    0    0 -0.00000000000E+00 -0.00000000000E+00 -0.74505805969E-08  0.93827000000E+00  0.93827000000E+00 0.  1.
     999902    2    1    2    0    0  0.66147626088E-02 -0.98268875107E-02  0.19713664865E-01  0.10209310569E+01  0.10206719706E+01 0.  0.
     999903    2    3    3    0    0  0.80541034207E-01 -0.95389070354E-01  0.42631153793E-01  0.13340010414E+00  0.19805039160E-01 0.  0.
         14    1    1    2    0    0 -0.66147626088E-02  0.98268875107E-02 -0.19713664865E-01  0.22998943127E-01  0.00000000000E+00 0.  1.
     999901    1    3    3    0    0 -0.73926271598E-01  0.85562182843E-01 -0.22917488927E-01  0.88753095274E+00  0.88000000000E+00 0.  1.
        -11    1    4    4    0    0  0.28064715831E-01 -0.20107258020E-01  0.14136334249E-01  0.37309880283E-01  0.51100000000E-03 0. -1.
         11    1    4    4    0    0  0.52476318376E-01 -0.75281812334E-01  0.28494819544E-01  0.96090223855E-01  0.51100000000E-03 0.  1.
</event>
<event>
 8    1  0.1161093E+005  0.1043930E+01  0.7957747E-01            NaN
         13   -1    0    0    0    0  0.00000000000E+00  0.00000000000E+00  0.74505805969E-08  0.10566000000E+00  0.10566000000E+00 0. -1.
     999900   -1    0    0    0    0 -0.00000000000E+00 -0.00000000000E+00 -0.74505805969E-08  0.93827000000E+00  0.93827000000E+00 0. -1.
     999902    2    1    2    0    0 -0.89889572746E-02  0.17194683116E-01  0.17135543264E-01  0.10180439937E+01  0.10177148362E+01 0.  0.
     999903    2    3    3    0    0  0.20791702240E-01  0.93973022209E-01  0.87241594489E-01  0.13142307161E+00  0.19942521318E-01 0.  0.
         14    1    1    2    0    0  0.89889572746E-02 -0.17194683116E-01 -0.17135543264E-01  0.25886006322E-01  0.00000000000E+00 0.  1.
     999901    1    3    3    0    0 -0.29780659515E-01 -0.76778339093E-01 -0.70106051224E-01  0.88662092207E+00  0.88000000000E+00 0. -1.
        -11    1    4    4    0    0 -0.96256025507E-03  0.11925797094E-01  0.19227341597E-01  0.22651775746E-01  0.51100000000E-03 0. -1.
         11    1    4    4    0    0  0.21754262495E-01  0.82047225115E-01  0.68014252892E-01  0.10877129586E+00  0.51100000000E-03 0.  1.
</event>
<event>
 7    1  0.1161093E+005  0.1043930E+01  0.7957747E-01            NaN
         13   -1    0    0    0    0  0.00000000000E+00  0.00000000000E+00  0.74505805969E-08  0.10566000000E+00  0.10566000000E+00 0.  1.
     999900   -1    0    0    0    0 -0.00000000000E+00 -0.00000000000E+00 -0.74505805969E-08  0.93827000000E+00  0.93827000000E+00 0. -1.
     999903    2    1    2    0    0 -0.55016008682E-01  0.42284175383E-01  0.94716187822E-01  0.11944324235E+00  0.21927590107E-01 0.  0.
         14    1    1    2    0    0  0.19721597204E-01  0.17768475917E-01 -0.28964747411E-01  0.39288888063E-01  0.00000000000E+00 0. -1.
     999901    1    1    2    0    0  0.35294411478E-01 -0.60052651300E-01 -0.65751440411E-01  0.88519786959E+00  0.88000000000E+00 0. -1.
        -11    1    3    3    0    0 -0.24343736467E-01  0.13347487420E-01  0.22176964484E-01  0.35536626181E-01  0.51100000000E-03 0.  1.
         11    1    3    3    0    0 -0.30672272215E-01  0.28936687963E-01  0.72539223338E-01  0.83906616167E-01  0.51100000000E-03 0. -1.
</event>
<event>
 8    1  0.1161093E+005  0.1043930E+01  0.7957747E-01            NaN
         13   -1    0    0    0    0  0.00000000000E+00  0.00000000000E+00  0.74505805969E-08  0.10566000000E+00  0.10566000000E+00 0. -1.
     999900   -1    0    0    0    0 -0.00000000000E+00 -0.00000000000E+00 -0.74505805969E-08  0.93827000000E+00  0.93827000000E+00 0. -1.
     999902    2    1    2    0    0  0.20540065827E-01 -0.11213352979E-01  0.22008861933E-03  0.10205273927E+01  0.10202590246E+01 0.  0.
     999903    2    3    3    0    0  0.10846517450E+00 -0.71951050051E-01 -0.23474763105E-01  0.13374594354E+00  0.19881278345E-01 0.  0.
         14    1    1    2    0    0 -0.20540065827E-01  0.11213352979E-01 -0.22008861933E-03  0.23402607295E-01  0.00000000000E+00 0. -1.
     999901    1    3    3    0    0 -0.87925108671E-01  0.60737697072E-01  0.23694851724E-01  0.88678144916E+00  0.88000000000E+00 0.  1.
        -11    1    4    4    0    0  0.32971885725E-01 -0.25983148286E-01  0.11262881568E-02  0.41997605755E-01  0.51100000000E-03 0. -1.
         11    1    4    4    0    0  0.75493288774E-01 -0.45967901765E-01 -0.24601051262E-01  0.91748337787E-01  0.51100000000E-03 0.  1.
</event>
<event>
 8    1  0.1161093E+005  0.1043930E+01  0.7957747E-01            NaN
         13   -1    0    0    0    0  0.00000000000E+00  0.00000000000E+00  0.74505805969E-08  0.10566000000E+00  0.10566000000E+00 0.  1.
     999900   -1    0    0    0    0 -0.00000000000E+00 -0.00000000000E+00 -0.74505805969E-08  0.93827000000E+00  0.93827000000E+00 0. -1.
     999902    2    1    2    0    0 -0.67519045901E-02  0.15616756002E-01 -0.16727133122E-01  0.10200706566E+01  0.10197915847E+01 0.  0.
     999903    2    3    3    0    0 -0.29142171271E-01  0.12382472305E+00 -0.33382039117E-01  0.13300376283E+00  0.19844702231E-01 0.  0.
         14    1    1    2    0    0  0.67519045901E-02 -0.15616756002E-01  0.16727133122E-01  0.23859343371E-01  0.00000000000E+00 0.  1.
     999901    1    3    3    0    0  0.22390266681E-01 -0.10820796705E+00  0.16654905995E-01  0.88706689380E+00  0.88000000000E+00 0.  1.
        -11    1    4    4    0    0 -0.53543263827E-02  0.59651605090E-01 -0.20882716172E-01  0.63429738739E-01  0.51100000000E-03 0.  1.
         11    1    4    4    0    0 -0.23787844888E-01  0.64173117963E-01 -0.12499322945E-01  0.69574024093E-01  0.51100000000E-03 0. -1.
</event>
<event>
 8    1  0.1161093E+005  0.1043930E+01  0.7957747E-01            NaN
         13   -1    0    0    0    0  0.00000000000E+00  0.00000000000E+00  0.74505805969E-08  0.10566000000E+00  0.10566000000E+00 0.  1.
     999900   -1    0    0    0    0 -0.00000000000E+00 -0.00000000000E+00 -0.74505805969E-08  0.93827000000E+00  0.93827000000E+00 0. -1.
     999902    2    1    2    0    0 -0.49436290889E-02 -0.12737885160E-01  0.19534191257E-01  0.10200914217E+01  0.10198128411E+01 0.  0.
     999903    2    3    3    0    0  0.12539973701E+00  0.23962951710E-01 -0.61427286888E-02  0.12936382658E+00  0.19948669505E-01 0.  0.
         14    1    1    2    0    0  0.49436290889E-02  0.12737885160E-01 -0.19534191257E-01  0.23838578292E-01  0.00000000000E+00 0. -1.
     999901    1    3    3    0    0 -0.13034336609E+00 -0.36700836870E-01  0.25676919946E-01  0.89072759513E+00  0.88000000000E+00 0.  1.
        -11    1    4    4    0    0  0.49916498613E-01  0.14714658948E-01  0.58656869865E-02  0.52372181800E-01  0.51100000000E-03 0. -1.
         11    1    4    4    0    0  0.75483238393E-01  0.92482927620E-02 -0.12008415675E-01  0.76991644776E-01  0.51100000000E-03 0.  1.
</event>
<event>
 8    1  0.1161093E+005  0.1043930E+01  0.7957747E-01            NaN
         13   -1    0    0    0    0  0.00000000000E+00  0.00000000000E+00  0.74505805969E-08  0.10566000000E+00  0.10566000000E+00 0. -1.
     999900   -1    0    0    0    0 -0.00000000000E+00 -0.00000000000E+00 -0.74505805969E-08  0.93827000000E+00  0.93827000000E+00 0.  1.
     999902    2    1    2    0    0  0.78693411292E-02  0.14504982145E-01  0.95065697104E-02  0.10248854232E+01  0.10247084633E+01 0.  0.
     999903    2    3    3    0    0 -0.26591511323E-02  0.82124537746E-01  0.10761457498E+00  0.13679284126E+00  0.19490353696E-01 0.  0.
         14    1    1    2    0    0 -0.78693411292E-02 -0.14504982145E-01 -0.95065697104E-02  0.19044576773E-01  0.00000000000E+00 0.  1.
     999901    1    3    3    0    0  0.10528492262E-01 -0.67619555601E-01 -0.98108005268E-01  0.88809258197E+00  0.88000000000E+00 0.  1.
        -11    1    4    4    0    0  0.82840026114E-02  0.30046617781E-01  0.37324160715E-01  0.48628983471E-01  0.51100000000E-03 0. -1.
         11    1    4    4    0    0 -0.10943153744E-01  0.52077919964E-01  0.70290414263E-01  0.88163857787E-01  0.51100000000E-03 0.  1.
</event>
<event>
 8    1  0.1161093E+005  0.1043930E+01  0.7957747E-01            NaN
         13   -1    0    0    0    0  0.00000000000E+00  0.00000000000E+00  0.74505805969E-08  0.10566000000E+00  0.10566000000E+00 0. -1.
     999900   -1    0    0    0    0 -0.00000000000E+00 -0.00000000000E+00 -0.74505805969E-08  0.93827000000E+00  0.93827000000E+00 0.  1.
     999902    2    1    2    0    0 -0.16088725184E-02  0.17763992895E-01  0.16175602214E-01  0.10198510046E+01  0.10195667087E+01 0.  0.
     999903    2    3    3    0    0  0.10147972772E+00 -0.74873382842E-01  0.17474824542E-01  0.12900273978E+00  0.20788910098E-01 0.  0.
         14    1    1    2    0    0  0.16088725184E-02 -0.17763992895E-01 -0.16175602214E-01  0.24078995439E-01  0.00000000000E+00 0.  1.
     999901    1    3    3    0    0 -0.10308860023E+00  0.92637375737E-01 -0.12992223276E-02  0.89084826478E+00  0.88000000000E+00 0. -1.
        -11    1    4    4    0    0  0.26511625656E-01 -0.28252480923E-01  0.11943868520E-01  0.40546098326E-01  0.51100000000E-03 0. -1.
         11    1    4    4    0    0  0.74968102060E-01 -0.46620901918E-01  0.55309560219E-02  0.88456641456E-01  0.51100000000E-03 0.  1.
</event>
<event>
 8    1  0.1161093E+005  0.1043930E+01  0.7957747E-01            NaN
         13   -1    0    0    0    0  0.00000000000E+00  0.00000000000E+00  0.74505805969E-08  0.10566000000E+00  0.10566000000E+00 0.  1.
     999900   -1    0    0    0    0 -0.00000000000E+00 -0.00000000000E+00 -0.74505805969E-08  0.93827000000E+00  0.93827000000E+00 0. -1.
     999902    2    1    2    0    0 -0.64019261798E-02  0.48332094145E-02 -0.22096592200E-01  0.10204224702E+01  0.10201516621E+01 0.  0.
     999903    2    3    3    0    0  0.48417871385E-01  0.11932413121E+00 -0.16540615463E-01  0.13129691646E+00  0.19563991261E-01 0.  0.
         14    1    1    2    0    0  0.64019261798E-02 -0.48332094145E-02  0.22096592200E-01  0.23507529834E-01  0.00000000000E+00 0.  1.
     999901    1    3    3    0    0 -0.54819797565E-01 -0.11449092179E+00 -0.55559767369E-02  0.88912555371E+00  0.88000000000E+00 0. -1.
        -11    1    4    4    0    0  0.36480346759E-01  0.10319237725E+00 -0.88856886234E-02  0.10981210774E+00  0.51100000000E-03 0. -1.
         11    1    4    4    0    0  0.11937524626E-01  0.16131753954E-01 -0.76549268393E-02  0.21484808720E-01  0.51100000000E-03 0.  1.
</event>
<event>
 8    1  0.1161093E+005  0.1043930E+01  0.7957747E-01            NaN
         13   -1    0    0    0    0  0.00000000000E+00  0.00000000000E+00  0.74505805969E-08  0.10566000000E+00  0.10566000000E+00 0.  1.
     999900   -1    0    0    0    0 -0.00000000000E+00 -0.00000000000E+00 -0.74505805969E-08  0.93827000000E+00  0.93827000000E+00 0.  1.
     999902    2    1    2    0    0 -0.19002153718E-01 -0.14394618676E-01  0.16041979555E-02  0.10200373161E+01  0.10197574544E+01 0.  0.
     999903    2    3    3    0    0 -0.28406738810E-01  0.12265105485E+00  0.19971610260E-01  0.12919090696E+00  0.21004788929E-01 0.  0.
         14    1    1    2    0    0  0.19002153718E-01  0.14394618676E-01 -0.16041979555E-02  0.23892683897E-01  0.00000000000E+00 0.  1.
     999901    1    3    3    0    0  0.94045850929E-02 -0.13704567353E+00 -0.18367412304E-01  0.89084640915E+00  0.88000000000E+00 0.  1.
        -11    1    4    4    0    0 -0.24294966861E-01  0.80312969326E-01  0.48714094001E-02  0.84050045850E-01  0.51100000000E-03 0. -1.
         11    1    4    4    0    0 -0.41117719493E-02  0.42338085526E-01  0.15100200860E-01  0.45140861108E-01  0.51100000000E-03 0.  1.
</event>
<event>
 8    1  0.1161093E+005  0.1043930E+01  0.7957747E-01            NaN
         13   -1    0    0    0    0  0.00000000000E+00  0.00000000000E+00  0.74505805969E-08  0.10566000000E+00  0.10566000000E+00 0. -1.
     999900   -1    0    0    0    0 -0.00000000000E+00 -0.00000000000E+00 -0.74505805969E-08  0.93827000000E+00  0.93827000000E+00 0. -1.
     999902    2    1    2    0    0  0.23406685529E-01 -0.74670586477E-02 -0.11640738346E-02  0.10193335580E+01  0.10190367596E+01 0.  0.
     999903    2    3    3    0    0  0.77042272589E-01 -0.99799154576E-01  0.31144447785E-01  0.13229024860E+00  0.25206154556E-01 0.  0.
         14    1    1    2    0    0 -0.23406685529E-01  0.74670586477E-02  0.11640738346E-02  0.24596442023E-01  0.00000000000E+00 0. -1.
     999901    1    3    3    0    0 -0.53635587060E-01  0.92332095928E-01 -0.32308521619E-01  0.88704330938E+00  0.88000000000E+00 0.  1.
        -11    1    4    4    0    0  0.12523107272E-01 -0.19395219393E-01 -0.38712388515E-02  0.23414746684E-01  0.51100000000E-03 0. -1.
         11    1    4    4    0    0  0.64519165318E-01 -0.80403935183E-01  0.35015686636E-01  0.10887550192E+00  0.51100000000E-03 0.  1.
</event>
<event>
 8    1  0.1161093E+005  0.1043930E+01  0.7957747E-01            NaN
         13   -1    0    0    0    0  0.00000000000E+00  0.00000000000E+00  0.74505805969E-08  0.10566000000E+00  0.10566000000E+00 0. -1.
     999900   -1    0    0    0    0 -0.00000000000E+00 -0.00000000000E+00 -0.74505805969E-08  0.93827000000E+00  0.93827000000E+00 0. -1.
     999902    2    1    2    0    0  0.23917023468E-02  0.99769904930E-02  0.21318799354E-01  0.10202709259E+01  0.10199965738E+01 0.  0.
     999903    2    3    3    0    0 -0.11454495226E+00  0.22361659184E-01 -0.51842027017E-01  0.12943981528E+00  0.21130076326E-01 0.  0.
         14    1    1    2    0    0 -0.23917023468E-02 -0.99769904930E-02 -0.21318799354E-01  0.23659074059E-01  0.00000000000E+00 0.  1.
     999901    1    3    3    0    0  0.11693665460E+00 -0.12384668691E-01  0.73160826371E-01  0.89083111066E+00  0.88000000000E+00 0.  1.
        -11    1    4    4    0    0 -0.67392375133E-01  0.25169960434E-02 -0.29063967452E-01  0.73437339414E-01  0.51100000000E-03 0.  1.
         11    1    4    4    0    0 -0.47152577122E-01  0.19844663141E-01 -0.22778059565E-01  0.56002475865E-01  0.51100000000E-03 0. -1.
</event>
<event>
 8    1  0.1161093E+005  0.1043930E+01  0.7957747E-01            NaN
         13   -1    0    0    0    0  0.00000000000E+00  0.00000000000E+00  0.74505805969E-08  0.10566000000E+00  0.10566000000E+00 0. -1.
     999900   -1    0    0    0    0 -0.00000000000E+00 -0.00000000000E+00 -0.74505805969E-08  0.93827000000E+00  0.93827000000E+00 0.  1.
     999902    2    1    2    0    0 -0.18427198026E-01 -0.18411427660E-01  0.12090751205E-01  0.10152119123E+01  0.10148056456E+01 0.  0.
     999903    2    3    3    0    0  0.64207256214E-01 -0.87969822748E-01 -0.59631301764E-01  0.12571156030E+00  0.19653060264E-01 0.  0.
         14    1    1    2    0    0  0.18427198026E-01  0.18411427660E-01 -0.12090751205E-01  0.28718087685E-01  0.00000000000E+00 0.  1.
     999901    1    3    3    0    0 -0.82634454241E-01  0.69558395088E-01  0.71722052969E-01  0.88950035202E+00  0.88000000000E+00 0. -1.
        -11    1    4    4    0    0  0.23179290506E-01 -0.48163552342E-01 -0.26969900312E-01  0.59871895965E-01  0.51100000000E-03 0. -1.
         11    1    4    4    0    0  0.41027965708E-01 -0.39806270407E-01 -0.32661401453E-01  0.65839664334E-01  0.51100000000E-03 0.  1.
</event>
<event>
 8    1  0.1161093E+005  0.1043930E+01  0.7957747E-01            NaN
         13   -1    0    0    0    0  0.00000000000E+00  0.00000000000E+00  0.74505805969E-08  0.10566000000E+00  0.10566000000E+00 0. -1.
     999900   -1    0    0    0    0 -0.00000000000E+00 -0.00000000000E+00 -0.74505805969E-08  0.93827000000E+00  0.93827000000E+00 0. -1.
     999902    2    1    2    0    0  0.10780310922E-01 -0.25036467980E-02  0.20476830807E-01  0.10206537471E+01  0.10203883023E+01 0.  0.
     999903    2    3    3    0    0 -0.12209069752E+00  0.39111570537E-01 -0.92992152452E-03  0.12944962889E+00  0.17902186895E-01 0.  0.
         14    1    1    2    0    0 -0.10780310922E-01  0.25036467980E-02 -0.20476830807E-01  0.23276252937E-01  0.00000000000E+00 0.  1.
     999901    1    3    3    0    0  0.13287100844E+00 -0.41615217335E-01  0.21406752332E-01  0.89120411817E+00  0.88000000000E+00 0.  1.
        -11    1    4    4    0    0 -0.22833480503E-01  0.58137147843E-02 -0.69821017547E-02  0.24580032087E-01  0.51100000000E-03 0.  1.
         11    1    4    4    0    0 -0.99257217017E-01  0.33297855753E-01  0.60521802302E-02  0.10486959681E+00  0.51100000000E-03 0. -1.
</event>
<event>
 8    1  0.1161093E+005  0.1043930E+01  0.7957747E-01            NaN
         13   -1    0    0    0    0  0.00000000000E+00  0.00000000000E+00  0.74505805969E-08  0.10566000000E+00  0.10566000000E+00 0.  1.
     999900   -1    0    0    0    0 -0.00000000000E+00 -0.00000000000E+00 -0.74505805969E-08  0.93827000000E+00  0.93827000000E+00 0. -1.
     999902    2    1    2    0    0 -0.11275764560E-01  0.13356684433E-01  0.15083828110E-01  0.10208417832E+01  0.10205806585E+01 0.  0.
     999903    2    3    3    0    0 -0.35070435821E-01 -0.11370475946E+00  0.50264864604E-01  0.13070218613E+00  0.19944850276E-01 0.  0.
         14    1    1    2    0    0  0.11275764560E-01 -0.13356684433E-01 -0.15083828110E-01  0.23088216820E-01  0.00000000000E+00 0. -1.
     999901    1    3    3    0    0  0.23794671261E-01  0.12706144390E+00 -0.35181036494E-01  0.89013959705E+00  0.88000000000E+00 0. -1.
        -11    1    4    4    0    0 -0.25559317997E-01 -0.51624310946E-01  0.28133915597E-01  0.64110268639E-01  0.51100000000E-03 0. -1.
         11    1    4    4    0    0 -0.95111178242E-02 -0.62080448517E-01  0.22130949007E-01  0.66591917492E-01  0.51100000000E-03 0.  1.
</event>
<event>
 8    1  0.1161093E+005  0.1043930E+01  0.7957747E-01            NaN
         13   -1    0    0    0    0  0.00000000000E+00  0.00000000000E+00  0.74505805969E-08  0.10566000000E+00  0.10566000000E+00 0.  1.
     999900   -1    0    0    0    0 -0.00000000000E+00 -0.00000000000E+00 -0.74505805969E-08  0.93827000000E+00  0.93827000000E+00 0.  1.
     999902    2    1    2    0    0  0.21826943639E-02  0.23780376512E-01 -0.20968704673E-03  0.10200487431E+01  0.10197691523E+01 0.  0.
     999903    2    3    3    0    0  0.77265296845E-01  0.10063946608E+00  0.34393789905E-01  0.13283844253E+00  0.19102115119E-01 0.  0.
         14    1    1    2    0    0 -0.21826943639E-02 -0.23780376512E-01  0.20968704673E-03  0.23881256884E-01  0.00000000000E+00 0. -1.
     999901    1    3    3    0    0 -0.75082602481E-01 -0.76859089564E-01 -0.34603476952E-01  0.88721030058E+00  0.88000000000E+00 0.  1.
        -11    1    4    4    0    0  0.18804952732E-01  0.29435876430E-01  0.13409178983E-02  0.34959351400E-01  0.51100000000E-03 0. -1.
         11    1    4    4    0    0  0.58460344113E-01  0.71203589645E-01  0.33052872007E-01  0.97879091133E-01  0.51100000000E-03 0.  1.
</event>
<event>
 8    1  0.1161093E+005  0.1043930E+01  0.7957747E-01            NaN
         13   -1    0    0    0    0  0.00000000000E+00  0.00000000000E+00  0.74505805969E-08  0.10566000000E+00  0.10566000000E+00 0.  1.
     999900   -1    0    0    0    0 -0.00000000000E+00 -0.00000000000E+00 -0.74505805969E-08  0.93827000000E+00  0.93827000000E+00 0.  1.
     999902    2    1    2    0    0 -0.21238872284E-01 -0.87048600362E-02 -0.54931783740E-02  0.10203283201E+01  0.10200553130E+01 0.  0.
     999903    2    3    3    0    0 -0.11268742476E+00  0.35320683891E-01  0.56345208604E-01  0.13233897764E+00  0.19819587816E-01 0.  0.
         14    1    1    2    0    0  0.21238872284E-01  0.87048600362E-02  0.54931783740E-02  0.23601679872E-01  0.00000000000E+00 0.  1.
     999901    1    3    3    0    0  0.91448552474E-01 -0.44025543927E-01 -0.61838386978E-01  0.88798934249E+00  0.88000000000E+00 0. -1.
        -11    1    4    4    0    0 -0.74042335848E-01  0.30674560943E-01  0.44386703700E-01  0.91616793074E-01  0.51100000000E-03 0. -1.
         11    1    4    4    0    0 -0.38645088910E-01  0.46461229484E-02  0.11958504904E-01  0.40722184566E-01  0.51100000000E-03 0.  1.
</event>
<event>
 8    1  0.1161093E+005  0.1043930E+01  0.7957747E-01            NaN
         13   -1    0    0    0    0  0.00000000000E+00  0.00000000000E+00  0.74505805969E-08  0.10566000000E+00  0.10566000000E+00 0. -1.
     999900   -1    0    0    0    0 -0.00000000000E+00 -0.00000000000E+00 -0.74505805969E-08  0.93827000000E+00  0.93827000000E+00 0.  1.
     999902    2    1    2    0    0 -0.12057421375E-02  0.22516366041E-01  0.78940506877E-02  0.10200394874E+01  0.10197596773E+01 0.  0.
     999903    2    3    3    0    0 -0.27494923283E-01  0.28832000839E-01 -0.12211609459E+00  0.13007676566E+00  0.20502910288E-01 0.  0.
         14    1    1    2    0    0  0.12057421375E-02 -0.22516366041E-01 -0.78940506877E-02  0.23890512553E-01  0.00000000000E+00 0.  1.
     999901    1    3    3    0    0  0.26289181145E-01 -0.63156347978E-02  0.13001014527E+00  0.88996272178E+00  0.88000000000E+00 0. -1.
        -11    1    4    4    0    0 -0.40270856764E-02  0.18786359065E-01 -0.55625001767E-01  0.58851904374E-01  0.51100000000E-03 0.  1.
         11    1    4    4    0    0 -0.23467837606E-01  0.10045641774E-01 -0.66491092818E-01  0.71224861290E-01  0.51100000000E-03 0. -1.
</event>
<event>
 7    1  0.1161093E+005  0.1043930E+01  0.7957747E-01            NaN
         13   -1    0    0    0    0  0.00000000000E+00  0.00000000000E+00  0.74505805969E-08  0.10566000000E+00  0.10566000000E+00 0. -1.
     999900   -1    0    0    0    0 -0.00000000000E+00 -0.00000000000E+00 -0.74505805969E-08  0.93827000000E+00  0.93827000000E+00 0. -1.
     999903    2    1    2    0    0  0.97004472149E-01 -0.49447263475E-01  0.26856607526E-01  0.11456436213E+00  0.23426826930E-01 0.  0.
         14    1    1    2    0    0 -0.30998478683E-01  0.15471565674E-01 -0.30612271774E-01  0.46231874375E-01  0.00000000000E+00 0.  1.
     999901    1    1    2    0    0 -0.66005993466E-01  0.33975697801E-01  0.37556642482E-02  0.88313376350E+00  0.88000000000E+00 0.  1.
        -11    1    3    3    0    0  0.48346619898E-01 -0.24022606318E-01  0.25344364663E-01  0.59641254271E-01  0.51100000000E-03 0. -1.
         11    1    3    3    0    0  0.48657852251E-01 -0.25424657157E-01  0.15122428630E-02  0.54923107857E-01  0.51100000000E-03 0.  1.
</event>
<event>
 8    1  0.1161093E+005  0.1043930E+01  0.7957747E-01            NaN
         13   -1    0    0    0    0  0.00000000000E+00  0.00000000000E+00  0.74505805969E-08  0.10566000000E+00  0.10566000000E+00 0. -1.
     999900   -1    0    0    0    0 -0.00000000000E+00 -0.00000000000E+00 -0.74505805969E-08  0.93827000000E+00  0.93827000000E+00 0. -1.
     999902    2    1    2    0    0 -0.16408735880E-01  0.17762496994E-01  0.10572443794E-02  0.10197252344E+01  0.10194379250E+01 0.  0.
     999903    2    3    3    0    0  0.74752184237E-01 -0.85635627909E-01 -0.53605631542E-01  0.12731864791E+00  0.20374605678E-01 0.  0.
         14    1    1    2    0    0  0.16408735880E-01 -0.17762496994E-01 -0.10572443794E-02  0.24204765612E-01  0.00000000000E+00 0. -1.
     999901    1    3    3    0    0 -0.91160920117E-01  0.10339812490E+00  0.54662875921E-01  0.89240658648E+00  0.88000000000E+00 0. -1.
        -11    1    4    4    0    0  0.57326149159E-01 -0.54809734525E-01 -0.30199317002E-01  0.84868452587E-01  0.51100000000E-03 0.  1.
         11    1    4    4    0    0  0.17426035078E-01 -0.30825893384E-01 -0.23406314540E-01  0.42450195321E-01  0.51100000000E-03 0. -1.
</event>
<event>
 8    1  0.1161093E+005  0.1043930E+01  0.7957747E-01            NaN
         13   -1    0    0    0    0  0.00000000000E+00  0.00000000000E+00  0.74505805969E-08  0.10566000000E+00  0.10566000000E+00 0. -1.
     999900   -1    0    0    0    0 -0.00000000000E+00 -0.00000000000E+00 -0.74505805969E-08  0.93827000000E+00  0.93827000000E+00 0. -1.
     999902    2    1    2    0    0 -0.12594789042E-01 -0.16717562986E-01 -0.42435777092E-02  0.10225731843E+01  0.10223501376E+01 0.  0.
     999903    2    3    3    0    0  0.67671178883E-01  0.99742691045E-01 -0.45542914006E-01  0.13032251802E+00  0.19539928831E-01 0.  0.
         14    1    1    2    0    0  0.12594789042E-01  0.16717562986E-01  0.42435777092E-02  0.21356815656E-01  0.00000000000E+00 0.  1.
     999901    1    3    3    0    0 -0.80265967925E-01 -0.11646025403E+00  0.41299336296E-01  0.89225066632E+00  0.88000000000E+00 0. -1.
        -11    1    4    4    0    0  0.35216262531E-01  0.49432354384E-01 -0.12616269974E-01  0.61993339930E-01  0.51100000000E-03 0. -1.
         11    1    4    4    0    0  0.32454916352E-01  0.50310336661E-01 -0.32926644031E-01  0.68329178090E-01  0.51100000000E-03 0.  1.
</event>
<event>
 8    1  0.1161093E+005  0.1043930E+01  0.7957747E-01            NaN
         13   -1    0    0    0    0  0.00000000000E+00  0.00000000000E+00  0.74505805969E-08  0.10566000000E+00  0.10566000000E+00 0. -1.
     999900   -1    0    0    0    0 -0.00000000000E+00 -0.00000000000E+00 -0.74505805969E-08  0.93827000000E+00  0.93827000000E+00 0. -1.
     999902    2    1    2    0    0 -0.50276198072E-02  0.80263450766E-02  0.21492068917E-01  0.10204436592E+01  0.10201733448E+01 0.  0.
     999903    2    3    3    0    0  0.43046303640E-01  0.10759100713E+00  0.61041210416E-01  0.13264393033E+00  0.20966015688E-01 0.  0.
         14    1    1    2    0    0  0.50276198072E-02 -0.80263450766E-02 -0.21492068917E-01  0.23486340765E-01  0.00000000000E+00 0.  1.
     999901    1    3    3    0    0 -0.48073923448E-01 -0.99564662049E-01 -0.39549141500E-01  0.88779972890E+00  0.88000000000E+00 0. -1.
        -11    1    4    4    0    0  0.26644795002E-01  0.39299393848E-01  0.22816877653E-01  0.52680722132E-01  0.51100000000E-03 0.  1.
         11    1    4    4    0    0  0.16401508638E-01  0.68291613278E-01  0.38224332763E-01  0.79963208202E-01  0.51100000000E-03 0. -1.
</event>
<event>
 8    1  0.1161093E+005  0.1043930E+01  0.7957747E-01            NaN
         13   -1    0    0    0    0  0.00000000000E+00  0.00000000000E+00  0.74505805969E-08  0.10566000000E+00  0.10566000000E+00 0.  1.
     999900   -1    0    0    0    0 -0.00000000000E+00 -0.00000000000E+00 -0.74505805969E-08  0.93827000000E+00  0.93827000000E+00 0.  1.
     999902    2    1    2    0    0  0.14122974495E-01  0.68486062672E-02  0.17934691333E-01  0.10200969354E+01  0.10198184851E+01 0.  0.
     999903    2    3    3    0    0 -0.66766141274E-01 -0.80894391450E-01 -0.70047765995E-01  0.12769411405E+00  0.19936826583E-01 0.  0.
         14    1    1    2    0    0 -0.14122974495E-01 -0.68486062672E-02 -0.17934691333E-01  0.23833064629E-01  0.00000000000E+00 0. -1.
     999901    1    3    3    0    0  0.80889115770E-01  0.87742997717E-01  0.87982457329E-01  0.89240282132E+00  0.88000000000E+00 0. -1.
        -11    1    4    4    0    0 -0.26987474521E-01 -0.46337470066E-01 -0.41153389527E-01  0.67596948923E-01  0.51100000000E-03 0.  1.
         11    1    4    4    0    0 -0.39778666753E-01 -0.34556921384E-01 -0.28894376468E-01  0.60097165130E-01  0.51100000000E-03 0. -1.
</event>
<event>
 8    1  0.1161093E+005  0.1043930E+01  0.7957747E-01            NaN
         13   -1    0    0    0    0  0.00000000000E+00  0.00000000000E+00  0.74505805969E-08  0.10566000000E+00  0.10566000000E+00 0.  1.
     999900   -1    0    0    0    0 -0.00000000000E+00 -0.00000000000E+00 -0.74505805969E-08  0.93827000000E+00  0.93827000000E+00 0. -1.
     999902    2    1    2    0    0  0.98289938098E-02 -0.17885972181E-01 -0.12762058404E-01  0.10198595356E+01  0.10195754436E+01 0.  0.
     999903    2    3    3    0    0 -0.60159143065E-01  0.10962813478E+00  0.12076322279E-01  0.12757307270E+00  0.22172074528E-01 0.  0.
         14    1    1    2    0    0 -0.98289938098E-02  0.17885972181E-01  0.12762058404E-01  0.24070464368E-01  0.00000000000E+00 0.  1.
     999901    1    3    3    0    0  0.69988136874E-01 -0.12751410696E+00 -0.24838380684E-01  0.89228646293E+00  0.88000000000E+00 0. -1.
        -11    1    4    4    0    0 -0.17150486517E-01  0.14771795500E-01  0.49603841486E-02  0.23177826946E-01  0.51100000000E-03 0. -1.
         11    1    4    4    0    0 -0.43008656548E-01  0.94856339279E-01  0.71159381309E-02  0.10439524575E+00  0.51100000000E-03 0.  1.
</event>
<event>
 8    1  0.1161093E+005  0.1043930E+01  0.7957747E-01            NaN
         13   -1    0    0    0    0  0.00000000000E+00  0.00000000000E+00  0.74505805969E-08  0.10566000000E+00  0.10566000000E+00 0. -1.
     999900   -1    0    0    0    0 -0.00000000000E+00 -0.00000000000E+00 -0.74505805969E-08  0.93827000000E+00  0.93827000000E+00 0. -1.
     999902    2    1    2    0    0 -0.15999674323E-03  0.20233587465E-02 -0.25566392998E-01  0.10182831672E+01  0.10179601410E+01 0.  0.
     999903    2    3    3    0    0 -0.82942016220E-01  0.43383710356E-01 -0.89643154429E-01  0.13111386390E+00  0.19834963888E-01 0.  0.
         14    1    1    2    0    0  0.15999674323E-03 -0.20233587465E-02  0.25566392998E-01  0.25646832758E-01  0.00000000000E+00 0. -1.
     999901    1    3    3    0    0  0.82782019477E-01 -0.41360351609E-01  0.64076761431E-01  0.88716930334E+00  0.88000000000E+00 0. -1.
        -11    1    4    4    0    0 -0.27865623567E-01  0.10506525606E-01 -0.17366823423E-01  0.34478221153E-01  0.51100000000E-03 0.  1.
         11    1    4    4    0    0 -0.55076392653E-01  0.32877184749E-01 -0.72276331006E-01  0.96635642748E-01  0.51100000000E-03 0. -1.
</event>
<event>
 8    1  0.1161093E+005  0.1043930E+01  0.7957747E-01            NaN
         13   -1    0    0    0    0  0.00000000000E+00  0.00000000000E+00  0.74505805969E-08  0.10566000000E+00  0.10566000000E+00 0. -1.
     999900   -1    0    0    0    0 -0.00000000000E+00 -0.00000000000E+00 -0.74505805969E-08  0.93827000000E+00  0.93827000000E+00 0.  1.
     999902    2    1    2    0    0 -0.53454952839E-02  0.21612218926E-01 -0.76227574062E-02  0.10203977082E+01  0.10201263226E+01 0.  0.
     999903    2    3    3    0    0 -0.29439389212E-01 -0.23021229263E-02 -0.12662007201E+00  0.13173985934E+00  0.21231356378E-01 0.  0.
         14    1    1    2    0    0  0.53454952839E-02 -0.21612218926E-01  0.76227574062E-02  0.23532291797E-01  0.00000000000E+00 0. -1.
     999901    1    3    3    0    0  0.24093893929E-01  0.23914341852E-01  0.11899731461E+00  0.88865784887E+00  0.88000000000E+00 0. -1.
        -11    1    4    4    0    0 -0.13671174495E-01  0.12830273721E-02 -0.97184747914E-01  0.98151329687E-01  0.51100000000E-03 0.  1.
         11    1    4    4    0    0 -0.15768214717E-01 -0.35851502984E-02 -0.29435324100E-01  0.33588529648E-01  0.51100000000E-03 0. -1.
</event>
<event>
 8    1  0.1161093E+005  0.1043930E+01  0.7957747E-01            NaN
         13   -1    0    0    0    0  0.00000000000E+00  0.00000000000E+00  0.74505805969E-08  0.10566000000E+00  0.10566000000E+00 0.  1.
     999900   -1    0    0    0    0 -0.00000000000E+00 -0.00000000000E+00 -0.74505805969E-08  0.93827000000E+00  0.93827000000E+00 0. -1.
     999902    2    1    2    0    0  0.20754204548E-01  0.10493984774E-01 -0.32406536083E-03  0.10206713298E+01  0.10204062905E+01 0.  0.
     999903    2    3    3    0    0 -0.43642475463E-01 -0.11603111751E+00 -0.28885869184E-01  0.12883540845E+00  0.19906861546E-01 0.  0.
         14    1    1    2    0    0 -0.20754204548E-01 -0.10493984774E-01  0.32406536083E-03  0.23258670237E-01  0.00000000000E+00 0.  1.
     999901    1    3    3    0    0  0.64396680011E-01  0.12652510229E+00  0.28561803823E-01  0.89183592131E+00  0.88000000000E+00 0. -1.
        -11    1    4    4    0    0 -0.18442034131E-01 -0.38289466006E-01 -0.11040901723E-02  0.42516725720E-01  0.51100000000E-03 0. -1.
         11    1    4    4    0    0 -0.25200441332E-01 -0.77741651506E-01 -0.27781779012E-01  0.86318682730E-01  0.51100000000E-03 0.  1.
</event>
<event>
 8    1  0.1161093E+005  0.1043930E+01  0.7957747E-01            NaN
         13   -1    0    0    0    0  0.00000000000E+00  0.00000000000E+00  0.74505805969E-08  0.10566000000E+00  0.10566000000E+00 0. -1.
     999900   -1    0    0    0    0 -0.00000000000E+00 -0.00000000000E+00 -0.74505805969E-08  0.93827000000E+00  0.93827000000E+00 0. -1.
     999902    2    1    2    0    0  0.19660680313E-01 -0.10706019560E-01  0.52240636596E-02  0.10209419151E+01  0.10206830762E+01 0.  0.
     999903    2    3    3    0    0 -0.49532903567E-01  0.10443267111E+00 -0.52679497873E-01  0.12886709058E+00  0.21723402349E-01 0.  0.
         14    1    1    2    0    0 -0.19660680313E-01  0.10706019560E-01 -0.52240636596E-02  0.22988084877E-01  0.00000000000E+00 0.  1.
     999901    1    3    3    0    0  0.69193583880E-01 -0.11513869067E+00  0.57903561532E-01  0.89207482454E+00  0.88000000000E+00 0.  1.
        -11    1    4    4    0    0 -0.40304811499E-01  0.73650351640E-01 -0.28560445004E-01  0.88683776794E-01  0.51100000000E-03 0. -1.
         11    1    4    4    0    0 -0.92280920679E-02  0.30782319465E-01 -0.24119052868E-01  0.40183313790E-01  0.51100000000E-03 0.  1.
</event>
<event>
 8    1  0.1161093E+005  0.1043930E+01  0.7957747E-01            NaN
         13   -1    0    0    0    0  0.00000000000E+00  0.00000000000E+00  0.74505805969E-08  0.10566000000E+00  0.10566000000E+00 0. -1.
     999900   -1    0    0    0    0 -0.00000000000E+00 -0.00000000000E+00 -0.74505805969E-08  0.93827000000E+00  0.93827000000E+00 0. -1.
     999902    2    1    2    0    0 -0.14113583450E-01  0.13712668468E-01  0.12080633134E-01  0.10208394779E+01  0.10205783005E+01 0.  0.
     999903    2    3    3    0    0  0.33079552166E-01  0.12646840716E+00 -0.15660874940E-02  0.13228600081E+00  0.20214316629E-01 0.  0.
         14    1    1    2    0    0  0.14113583450E-01 -0.13712668468E-01 -0.12080633134E-01  0.23090522108E-01  0.00000000000E+00 0. -1.
     999901    1    3    3    0    0 -0.47193135616E-01 -0.11275573870E+00  0.13646720628E-01  0.88855347709E+00  0.88000000000E+00 0. -1.
        -11    1    4    4    0    0 -0.37424036464E-03  0.32293271201E-01 -0.16976112591E-02  0.32344063222E-01  0.51100000000E-03 0. -1.
         11    1    4    4    0    0  0.33453792531E-01  0.94175135964E-01  0.13152376510E-03  0.99941937583E-01  0.51100000000E-03 0.  1.
</event>
<event>
 8    1  0.1161093E+005  0.1043930E+01  0.7957747E-01            NaN
         13   -1    0    0    0    0  0.00000000000E+00  0.00000000000E+00  0.74505805969E-08  0.10566000000E+00  0.10566000000E+00 0. -1.
     999900   -1    0    0    0    0 -0.00000000000E+00 -0.00000000000E+00 -0.74505805969E-08  0.93827000000E+00  0.93827000000E+00 0.  1.
     999902    2    1    2    0    0 -0.12786816575E-01 -0.60162036775E-02 -0.18812325727E-01  0.10204012732E+01  0.10201299708E+01 0.  0.
     999903    2    3    3    0    0  0.71483493504E-02 -0.12861175659E+00  0.18579682961E-01  0.13089284563E+00  0.13987479585E-01 0.  0.
         14    1    1    2    0    0  0.12786816575E-01  0.60162036775E-02  0.18812325727E-01  0.23528726784E-01  0.00000000000E+00 0. -1.
     999901    1    3    3    0    0 -0.19935165926E-01  0.12259555292E+00 -0.37392008688E-01  0.88950842759E+00  0.88000000000E+00 0. -1.
        -11    1    4    4    0    0 -0.19834226426E-02 -0.37558917933E-01  0.52848487478E-03  0.37618435625E-01  0.51100000000E-03 0. -1.
         11    1    4    4    0    0  0.91317719930E-02 -0.91052838662E-01  0.18051198087E-01  0.93274410003E-01  0.51100000000E-03 0.  1.
</event>
<event>
 8    1  0.1161093E+005  0.1043930E+01  0.7957747E-01            NaN
         13   -1    0    0    0    0  0.00000000000E+00  0.00000000000E+00  0.74505805969E-08  0.10566000000E+00  0.10566000000E+00 0. -1.
     999900   -1    0    0    0    0 -0.00000000000E+00 -0.00000000000E+00 -0.74505805969E-08  0.93827000000E+00  0.93827000000E+00 0.  1.
     999902    2    1    2    0    0  0.80823109633E-02  0.19344552509E-01 -0.97020400422E-02  0.10208288086E+01  0.10205673870E+01 0.  0.
     999903    2    3    3    0    0  0.34906126139E-01  0.73594030245E-01  0.10160879607E+00  0.13175478182E+00  0.20011400850E-01 0.  0.
         14    1    1    2    0    0 -0.80823109633E-02 -0.19344552509E-01  0.97020400422E-02  0.23101191382E-01  0.00000000000E+00 0. -1.
     999901    1    3    3    0    0 -0.26823815176E-01 -0.54249477736E-01 -0.11131083611E+00  0.88907402680E+00  0.88000000000E+00 0.  1.
        -11    1    4    4    0    0  0.13370747558E-01  0.19390542608E-01  0.17267099991E-01  0.29209311803E-01  0.51100000000E-03 0. -1.
         11    1    4    4    0    0  0.21535378582E-01  0.54203487636E-01  0.84341696077E-01  0.10254547002E+00  0.51100000000E-03 0.  1.
</event>
<event>
 8    1  0.1161093E+005  0.1043930E+01  0.7957747E-01            NaN
         13   -1    0    0    0    0  0.00000000000E+00  0.00000000000E+00  0.74505805969E-08  0.10566000000E+00  0.10566000000E+00 0. -1.
     999900   -1    0    0    0    0 -0.00000000000E+00 -0.00000000000E+00 -0.74505805969E-08  0.93827000000E+00  0.93827000000E+00 0. -1.
     999902    2    1    2    0    0 -0.15602198209E-01  0.12843768927E-01 -0.12315053457E-01  0.10202645921E+01  0.10199900913E+01 0.  0.
     999903    2    3    3    0    0  0.86135935801E-01  0.13752197959E-01 -0.94947832239E-01  0.13055697199E+00  0.20530701507E-01 0.  0.
         14    1    1    2    0    0  0.15602198209E-01 -0.12843768927E-01  0.12315053457E-01  0.23665407895E-01  0.00000000000E+00 0. -1.
     999901    1    3    3    0    0 -0.10173813401E+00 -0.90842903160E-03  0.82632778782E-01  0.88970762011E+00  0.88000000000E+00 0.  1.
        -11    1    4    4    0    0  0.75664795294E-01  0.12831709418E-01 -0.71657749098E-01  0.10499956257E+00  0.51100000000E-03 0. -1.
         11    1    4    4    0    0  0.10471140507E-01  0.92048854038E-03 -0.23290083140E-01  0.25557409422E-01  0.51100000000E-03 0.  1.
</event>
<event>
 8    1  0.1161093E+005  0.1043930E+01  0.7957747E-01            NaN
         13   -1    0    0    0    0  0.00000000000E+00  0.00000000000E+00  0.74505805969E-08  0.10566000000E+00  0.10566000000E+00 0. -1.
     999900   -1    0    0    0    0 -0.00000000000E+00 -0.00000000000E+00 -0.74505805969E-08  0.93827000000E+00  0.93827000000E+00 0.  1.
     999902    2    1    2    0    0  0.23206169788E-01 -0.60561164878E-03  0.75172300159E-02  0.10195291429E+01  0.10192371026E+01 0.  0.
     999903    2    3    3    0    0 -0.93320932501E-01 -0.65892063422E-01  0.54800547565E-01  0.12819497519E+00  0.19501056003E-01 0.  0.
         14    1    1    2    0    0 -0.23206169788E-01  0.60561164878E-03 -0.75172300159E-02  0.24400857133E-01  0.00000000000E+00 0. -1.
     999901    1    3    3    0    0  0.11652710229E+00  0.65286451774E-01 -0.47283317549E-01  0.89133416768E+00  0.88000000000E+00 0.  1.
        -11    1    4    4    0    0 -0.26200406951E-01 -0.14851083811E-01  0.58228314656E-02  0.30678697854E-01  0.51100000000E-03 0.  1.
         11    1    4    4    0    0 -0.67120525550E-01 -0.51040979611E-01  0.48977716100E-01  0.97516277334E-01  0.51100000000E-03 0. -1.
</event>
<event>
 8    1  0.1161093E+005  0.1043930E+01  0.7957747E-01            NaN
         13   -1    0    0    0    0  0.00000000000E+00  0.00000000000E+00  0.74505805969E-08  0.10566000000E+00  0.10566000000E+00 0.  1.
     999900   -1    0    0    0    0 -0.00000000000E+00 -0.00000000000E+00 -0.74505805969E-08  0.93827000000E+00  0.93827000000E+00 0. -1.
     999902    2    1    2    0    0 -0.65872168467E-02 -0.20747453304E-01  0.86745957296E-02  0.10204971842E+01  0.10202281148E+01 0.  0.
     999903    2    3    3    0    0 -0.27218478378E-01  0.10234424543E+00  0.71680419595E-01  0.12946017652E+00  0.20165927028E-01 0.  0.
         14    1    1    2    0    0  0.65872168467E-02  0.20747453304E-01 -0.86745957296E-02  0.23432815782E-01  0.00000000000E+00 0.  1.
     999901    1    3    3    0    0  0.20631261532E-01 -0.12309169873E+00 -0.63005823866E-01  0.89103700770E+00  0.88000000000E+00 0. -1.
        -11    1    4    4    0    0 -0.12707702184E-01  0.31405207621E-01  0.33302110165E-01  0.47508572100E-01  0.51100000000E-03 0.  1.
         11    1    4    4    0    0 -0.14510776194E-01  0.70939037809E-01  0.38378309430E-01  0.81951604418E-01  0.51100000000E-03 0. -1.
</event>
<event>
 8    1  0.1161093E+005  0.1043930E+01  0.7957747E-01            NaN
         13   -1    0    0    0    0  0.00000000000E+00  0.00000000000E+00  0.74505805969E-08  0.10566000000E+00  0.10566000000E+00 0. -1.
     999900   -1    0    0    0    0 -0.00000000000E+00 -0.00000000000E+00 -0.74505805969E-08  0.93827000000E+00  0.93827000000E+00 0.  1.
     999902    2    1    2    0    0  0.58448229675E-03 -0.15870985688E-01  0.16818681483E-01  0.10207978178E+01  0.10205356863E+01 0.  0.
     999903    2    3    3    0    0 -0.90487275324E-01 -0.39027031206E-02  0.94997279087E-01  0.13256969511E+00  0.18629625344E-01 0.  0.
         14    1    1    2    0    0 -0.58448229675E-03  0.15870985688E-01 -0.16818681483E-01  0.23132182195E-01  0.00000000000E+00 0.  1.
     999901    1    3    3    0    0  0.91071757620E-01 -0.11968282568E-01 -0.78178597604E-01  0.88822812270E+00  0.88000000000E+00 0.  1.
        -11    1    4    4    0    0 -0.76849511714E-01 -0.10018488365E-01  0.80377343370E-01  0.11165570298E+00  0.51100000000E-03 0.  1.
         11    1    4    4    0    0 -0.13637763609E-01  0.61157852444E-02  0.14619935717E-01  0.20913992129E-01  0.51100000000E-03 0. -1.
</event>
<event>
 8    1  0.1161093E+005  0.1043930E+01  0.7957747E-01            NaN
         13   -1    0    0    0    0  0.00000000000E+00  0.00000000000E+00  0.74505805969E-08  0.10566000000E+00  0.10566000000E+00 0. -1.
     999900   -1    0    0    0    0 -0.00000000000E+00 -0.00000000000E+00 -0.74505805969E-08  0.93827000000E+00  0.93827000000E+00 0.  1.
     999902    2    1    2    0    0 -0.12471767299E-01  0.20276956670E-01 -0.81073507075E-03  0.10201107380E+01  0.10198326140E+01 0.  0.
     999903    2    3    3    0    0 -0.11463902717E+00 -0.44225179634E-01 -0.40184492650E-01  0.13098253162E+00  0.21063168730E-01 0.  0.
         14    1    1    2    0    0  0.12471767299E-01 -0.20276956670E-01  0.81073507075E-03  0.23819262010E-01  0.00000000000E+00 0. -1.
     999901    1    3    3    0    0  0.10216725987E+00  0.64502136303E-01  0.39373757579E-01  0.88912820637E+00  0.88000000000E+00 0. -1.
        -11    1    4    4    0    0 -0.49997442957E-01 -0.98573965412E-02 -0.10801217604E-01  0.52094529382E-01  0.51100000000E-03 0. -1.
         11    1    4    4    0    0 -0.64641584209E-01 -0.34367783093E-01 -0.29383275046E-01  0.78888002238E-01  0.51100000000E-03 0.  1.
</event>
<event>
 8    1  0.1161093E+005  0.1043930E+01  0.7957747E-01            NaN
         13   -1    0    0    0    0  0.00000000000E+00  0.00000000000E+00  0.74505805969E-08  0.10566000000E+00  0.10566000000E+00 0. -1.
     999900   -1    0    0    0    0 -0.00000000000E+00 -0.00000000000E+00 -0.74505805969E-08  0.93827000000E+00  0.93827000000E+00 0. -1.
     999902    2    1    2    0    0 -0.19330608390E-01 -0.65167573038E-02  0.11339300839E-01  0.10205907564E+01  0.10203238564E+01 0.  0.
     999903    2    3    3    0    0  0.47717014515E-01  0.11608406142E+00 -0.21914537022E-01  0.12894499594E+00  0.19853016239E-01 0.  0.
         14    1    1    2    0    0  0.19330608390E-01  0.65167573038E-02 -0.11339300839E-01  0.23339243562E-01  0.00000000000E+00 0. -1.
     999901    1    3    3    0    0 -0.67047622905E-01 -0.12260081873E+00  0.33253837862E-01  0.89164576050E+00  0.88000000000E+00 0.  1.
        -11    1    4    4    0    0  0.84759623690E-02  0.23132577445E-01 -0.12442215081E-01  0.27604853096E-01  0.51100000000E-03 0.  1.
         11    1    4    4    0    0  0.39241052146E-01  0.92951483976E-01 -0.94723219417E-02  0.10134014284E+00  0.51100000000E-03 0. -1.
</event>
<event>
 8    1  0.1161093E+005  0.1043930E+01  0.7957747E-01            NaN
         13   -1    0    0    0    0  0.00000000000E+00  0.00000000000E+00  0.74505805969E-08  0.10566000000E+00  0.10566000000E+00 0.  1.
     999900   -1    0    0    0    0 -0.00000000000E+00 -0.00000000000E+00 -0.74505805969E-08  0.93827000000E+00  0.93827000000E+00 0.  1.
     999902    2    1    2    0    0 -0.12123791643E-01 -0.95947999021E-02  0.16934474127E-01  0.10209991709E+01  0.10207416343E+01 0.  0.
     999903    2    3    3    0    0 -0.50773407631E-01 -0.11662391501E+00  0.34868653567E-01  0.13349105315E+00  0.20614601476E-01 0.  0.
         14    1    1    2    0    0  0.12123791643E-01  0.95947999021E-02 -0.16934474127E-01  0.22930829093E-01  0.00000000000E+00 0. -1.
     999901    1    3    3    0    0  0.38649615988E-01  0.10702911511E+00 -0.17934179440E-01  0.88750811776E+00  0.88000000000E+00 0.  1.
        -11    1    4    4    0    0 -0.23842231787E-01 -0.34373437526E-01  0.16759481731E-01  0.45068021621E-01  0.51100000000E-03 0.  1.
         11    1    4    4    0    0 -0.26931175844E-01 -0.82250477483E-01  0.18109171836E-01  0.88423031526E-01  0.51100000000E-03 0. -1.
</event>
<event>
 8    1  0.1161093E+005  0.1043930E+01  0.7957747E-01            NaN
         13   -1    0    0    0    0  0.00000000000E+00  0.00000000000E+00  0.74505805969E-08  0.10566000000E+00  0.10566000000E+00 0.  1.
     999900   -1    0    0    0    0 -0.00000000000E+00 -0.00000000000E+00 -0.74505805969E-08  0.93827000000E+00  0.93827000000E+00 0.  1.
     999902    2    1    2    0    0  0.13865972891E-01  0.19357853053E-01 -0.52936100650E-02  0.10195370915E+01  0.10192452437E+01 0.  0.
     999903    2    3    3    0    0  0.68116139493E-01  0.44143490445E-01  0.10113222402E+00  0.13112059761E+00  0.19401756997E-01 0.  0.
         14    1    1    2    0    0 -0.13865972891E-01 -0.19357853053E-01  0.52936100650E-02  0.24392908530E-01  0.00000000000E+00 0.  1.
     999901    1    3    3    0    0 -0.54250166602E-01 -0.24785637392E-01 -0.10642583409E+00  0.88841649386E+00  0.88000000000E+00 0.  1.
        -11    1    4    4    0    0  0.60829715081E-01  0.45570409429E-01  0.91668651474E-01  0.11908114560E+00  0.51100000000E-03 0. -1.
         11    1    4    4    0    0  0.72864244119E-02 -0.14269189837E-02  0.94635725471E-02  0.12039452016E-01  0.51100000000E-03 0.  1.
</event>
<event>
 8    1  0.1161093E+005  0.1043930E+01  0.7957747E-01            NaN
         13   -1    0    0    0    0  0.00000000000E+00  0.00000000000E+00  0.74505805969E-08  0.10566000000E+00  0.10566000000E+00 0.  1.
     999900   -1    0    0    0    0 -0.00000000000E+00 -0.00000000000E+00 -0.74505805969E-08  0.93827000000E+00  0.93827000000E+00 0.  1.
     999902    2    1    2    0    0  0.10777188509E-02 -0.51978535917E-02  0.22665269692E-01  0.10206513916E+01  0.10203858925E+01 0.  0.
     999903    2    3    3    0    0  0.11388371443E+00 -0.15209023055E-01 -0.56737901092E-01  0.12984822607E+00  0.20989463962E-01 0.  0.
         14    1    1    2    0    0 -0.10777188509E-02  0.51978535917E-02 -0.22665269692E-01  0.23278608423E-01  0.00000000000E+00 0. -1.
     999901    1    3    3    0    0 -0.11280599558E+00  0.10011169464E-01  0.79403170784E-01  0.89080316551E+00  0.88000000000E+00 0.  1.
        -11    1    4    4    0    0  0.90999437001E-01 -0.87598368157E-02 -0.35860585680E-01  0.98203233153E-01  0.51100000000E-03 0.  1.
         11    1    4    4    0    0  0.22884277431E-01 -0.64491862397E-02 -0.20877315412E-01  0.31644992914E-01  0.51100000000E-03 0. -1.
</event>
<event>
 8    1  0.1161093E+005  0.1043930E+01  0.7957747E-01            NaN
         13   -1    0    0    0    0  0.00000000000E+00  0.00000000000E+00  0.74505805969E-08  0.10566000000E+00  0.10566000000E+00 0.  1.
     999900   -1    0    0    0    0 -0.00000000000E+00 -0.00000000000E+00 -0.74505805969E-08  0.93827000000E+00  0.93827000000E+00 0.  1.
     999902    2    1    2    0    0 -0.24713704211E-03 -0.22965245550E-01  0.21057417609E-02  0.10208670919E+01  0.10206065460E+01 0.  0.
     999903    2    3    3    0    0 -0.11033700205E+00  0.41030720264E-01 -0.51470826351E-01  0.13008894298E+00  0.20398850262E-01 0.  0.
         14    1    1    2    0    0  0.24713704211E-03  0.22965245550E-01 -0.21057417609E-02  0.23062908062E-01  0.00000000000E+00 0. -1.
     999901    1    3    3    0    0  0.11008986501E+00 -0.63995965815E-01  0.53576568112E-01  0.89077814896E+00  0.88000000000E+00 0. -1.
        -11    1    4    4    0    0 -0.30361374775E-01  0.72455532412E-02 -0.22797413927E-01  0.38656103305E-01  0.51100000000E-03 0.  1.
         11    1    4    4    0    0 -0.79975627278E-01  0.33785167023E-01 -0.28673412424E-01  0.91432839671E-01  0.51100000000E-03 0. -1.
</event>
<event>
 8    1  0.1161093E+005  0.1043930E+01  0.7957747E-01            NaN
         13   -1    0    0    0    0  0.00000000000E+00  0.00000000000E+00  0.74505805969E-08  0.10566000000E+00  0.10566000000E+00 0.  1.
     999900   -1    0    0    0    0 -0.00000000000E+00 -0.00000000000E+00 -0.74505805969E-08  0.93827000000E+00  0.93827000000E+00 0.  1.
     999902    2    1    2    0    0  0.54547109088E-02  0.97905585143E-02 -0.21463567322E-01  0.10197164990E+01  0.10194289798E+01 0.  0.
     999903    2    3    3    0    0  0.87834617937E-01  0.98975324297E-02  0.91431702719E-01  0.12868799077E+00  0.19696737057E-01 0.  0.
         14    1    1    2    0    0 -0.54547109088E-02 -0.97905585143E-02  0.21463567322E-01  0.24213500972E-01  0.00000000000E+00 0.  1.
     999901    1    3    3    0    0 -0.82379907029E-01 -0.10697391542E-03 -0.11289527004E+00  0.89102850826E+00  0.88000000000E+00 0.  1.
        -11    1    4    4    0    0  0.62400525494E-01  0.15692380008E-01  0.68029808206E-01  0.93639694028E-01  0.51100000000E-03 0. -1.
         11    1    4    4    0    0  0.25434092444E-01 -0.57948475785E-02  0.23401894514E-01  0.35048296745E-01  0.51100000000E-03 0.  1.
</event>
<event>
 8    1  0.1161093E+005  0.1043930E+01  0.7957747E-01            NaN
         13   -1    0    0    0    0  0.00000000000E+00  0.00000000000E+00  0.74505805969E-08  0.10566000000E+00  0.10566000000E+00 0.  1.
     999900   -1    0    0    0    0 -0.00000000000E+00 -0.00000000000E+00 -0.74505805969E-08  0.93827000000E+00  0.93827000000E+00 0.  1.
     999902    2    1    2    0    0 -0.16647469234E-01  0.90603728219E-02  0.12809287658E-01  0.10210541079E+01  0.10207978178E+01 0.  0.
     999903    2    3    3    0    0 -0.31300752972E-01  0.98577870863E-01 -0.78855289926E-01  0.13165515585E+00  0.20435008010E-01 0.  0.
         14    1    1    2    0    0  0.16647469234E-01 -0.90603728219E-02 -0.12809287658E-01  0.22875892068E-01  0.00000000000E+00 0.  1.
     999901    1    3    3    0    0  0.14653283738E-01 -0.89517498041E-01  0.91664577584E-01  0.88939895208E+00  0.88000000000E+00 0. -1.
        -11    1    4    4    0    0 -0.20285951010E-01  0.56899719115E-01 -0.33490383793E-01  0.69072170745E-01  0.51100000000E-03 0. -1.
         11    1    4    4    0    0 -0.11014801962E-01  0.41678151747E-01 -0.45364906133E-01  0.62582985106E-01  0.51100000000E-03 0.  1.
</event>
<event>
 8    1  0.1161093E+005  0.1043930E+01  0.7957747E-01            NaN
         13   -1    0    0    0    0  0.00000000000E+00  0.00000000000E+00  0.74505805969E-08  0.10566000000E+00  0.10566000000E+00 0. -1.
     999900   -1    0    0    0    0 -0.00000000000E+00 -0.00000000000E+00 -0.74505805969E-08  0.93827000000E+00  0.93827000000E+00 0. -1.
     999902    2    1    2    0    0 -0.74832588954E-02  0.19821857877E-01  0.99356861285E-02  0.10205286523E+01  0.10202603134E+01 0.  0.
     999903    2    3    3    0    0 -0.61135213629E-01 -0.11166188637E+00  0.48887088088E-02  0.12912976339E+00  0.21088032280E-01 0.  0.
         14    1    1    2    0    0  0.74832588954E-02 -0.19821857877E-01 -0.99356861285E-02  0.23401347659E-01  0.00000000000E+00 0.  1.
     999901    1    3    3    0    0  0.53651954734E-01  0.13148374425E+00  0.50469773197E-02  0.89139888895E+00  0.88000000000E+00 0.  1.
        -11    1    4    4    0    0 -0.16796998685E-01 -0.14989211225E-01  0.33178519811E-02  0.22761478000E-01  0.51100000000E-03 0. -1.
         11    1    4    4    0    0 -0.44338214945E-01 -0.96672675145E-01  0.15708568277E-02  0.10636828539E+00  0.51100000000E-03 0.  1.
</event>
<event>
 8    1  0.1161093E+005  0.1043930E+01  0.7957747E-01            NaN
         13   -1    0    0    0    0  0.00000000000E+00  0.00000000000E+00  0.74505805969E-08  0.10566000000E+00  0.10566000000E+00 0. -1.
     999900   -1    0    0    0    0 -0.00000000000E+00 -0.00000000000E+00 -0.74505805969E-08  0.93827000000E+00  0.93827000000E+00 0.  1.
     999902    2    1    2    0    0 -0.45727294994E-02  0.22701619287E-01 -0.42802671534E-02  0.10203801792E+01  0.10201083844E+01 0.  0.
     999903    2    3    3    0    0  0.72563397723E-01 -0.41627250628E-01 -0.97156898784E-01  0.12981055567E+00  0.20323451939E-01 0.  0.
         14    1    1    2    0    0  0.45727294994E-02 -0.22701619287E-01  0.42802671534E-02  0.23549820811E-01  0.00000000000E+00 0.  1.
     999901    1    3    3    0    0 -0.77136127222E-01  0.64328869915E-01  0.92876631630E-01  0.89056962352E+00  0.88000000000E+00 0. -1.
        -11    1    4    4    0    0  0.35435961297E-01 -0.22241288780E-01 -0.33455796393E-01  0.53571762272E-01  0.51100000000E-03 0. -1.
         11    1    4    4    0    0  0.37127436426E-01 -0.19385961848E-01 -0.63701102391E-01  0.76238793400E-01  0.51100000000E-03 0.  1.
</event>
<event>
 8    1  0.1161093E+005  0.1043930E+01  0.7957747E-01            NaN
         13   -1    0    0    0    0  0.00000000000E+00  0.00000000000E+00  0.74505805969E-08  0.10566000000E+00  0.10566000000E+00 0. -1.
     999900   -1    0    0    0    0 -0.00000000000E+00 -0.00000000000E+00 -0.74505805969E-08  0.93827000000E+00  0.93827000000E+00 0.  1.
     999902    2    1    2    0    0 -0.61433347395E-03  0.72470370530E-03 -0.24050605317E-01  0.10198606374E+01  0.10195765716E+01 0.  0.
     999903    2    3    3    0    0  0.70755981411E-01  0.70061684267E-01 -0.84629347190E-01  0.13218326204E+00  0.19880640057E-01 0.  0.
         14    1    1    2    0    0  0.61433347395E-03 -0.72470370530E-03  0.24050605317E-01  0.24069362625E-01  0.00000000000E+00 0. -1.
     999901    1    3    3    0    0 -0.71370314885E-01 -0.69336980562E-01  0.60578741873E-01  0.88767737534E+00  0.88000000000E+00 0. -1.
        -11    1    4    4    0    0  0.13011908570E-01  0.12470727760E-01 -0.62859003958E-02  0.19094566774E-01  0.51100000000E-03 0.  1.
         11    1    4    4    0    0  0.57744072842E-01  0.57590956508E-01 -0.78343446794E-01  0.11308869526E+00  0.51100000000E-03 0. -1.
</event>
<event>
 8    1  0.1161093E+005  0.1043930E+01  0.7957747E-01            NaN
         13   -1    0    0    0    0  0.00000000000E+00  0.00000000000E+00  0.74505805969E-08  0.10566000000E+00  0.10566000000E+00 0.  1.
     999900   -1    0    0    0    0 -0.00000000000E+00 -0.00000000000E+00 -0.74505805969E-08  0.93827000000E+00  0.93827000000E+00 0.  1.
     999902    2    1    2    0    0 -0.19932376043E-01  0.13505653875E-01  0.13439087467E-01  0.10163562557E+01  0.10159821490E+01 0.  0.
     999903    2    3    3    0    0 -0.63205754397E-01  0.10304818097E+00  0.44081718363E-01  0.13022453851E+00  0.20033410713E-01 0.  0.
         14    1    1    2    0    0  0.19932376043E-01 -0.13505653875E-01 -0.13439087467E-01  0.27573744273E-01  0.00000000000E+00 0. -1.
     999901    1    3    3    0    0  0.43273378353E-01 -0.89542527099E-01 -0.30642630897E-01  0.88613171722E+00  0.88000000000E+00 0.  1.
        -11    1    4    4    0    0 -0.58703516655E-01  0.94966007490E-01  0.46018722818E-01  0.12075855836E+00  0.51100000000E-03 0. -1.
         11    1    4    4    0    0 -0.45022377417E-02  0.80821734842E-02 -0.19370044548E-02  0.94659801483E-02  0.51100000000E-03 0.  1.
</event>
<event>
 8    1  0.1161093E+005  0.1043930E+01  0.7957747E-01            NaN
         13   -1    0    0    0    0  0.00000000000E+00  0.00000000000E+00  0.74505805969E-08  0.10566000000E+00  0.10566000000E+00 0.  1.
     999900   -1    0    0    0    0 -0.00000000000E+00 -0.00000000000E+00 -0.74505805969E-08  0.93827000000E+00  0.93827000000E+00 0. -1.
     999902    2    1    2    0    0  0.31178827017E-02  0.18115720124E-01 -0.15735814125E-01  0.10197325548E+01  0.10194454213E+01 0.  0.
     999903    2    3    3    0    0  0.43999110522E-01 -0.27387927344E-01 -0.11927610827E+00  0.13155326590E+00  0.19835611269E-01 0.  0.
         14    1    1    2    0    0 -0.31178827017E-02 -0.18115720124E-01  0.15735814125E-01  0.24197445203E-01  0.00000000000E+00 0.  1.
     999901    1    3    3    0    0 -0.40881227820E-01  0.45503647468E-01  0.10354029414E+00  0.88817928890E+00  0.88000000000E+00 0.  1.
        -11    1    4    4    0    0  0.32299991544E-01 -0.10585178178E-01 -0.61729777792E-01  0.70471001399E-01  0.51100000000E-03 0. -1.
         11    1    4    4    0    0  0.11699118977E-01 -0.16802749166E-01 -0.57546330473E-01  0.61082264498E-01  0.51100000000E-03 0.  1.
</event>
<event>
 8    1  0.1161093E+005  0.1043930E+01  0.7957747E-01            NaN
         13   -1    0    0    0    0  0.00000000000E+00  0.00000000000E+00  0.74505805969E-08  0.10566000000E+00  0.10566000000E+00 0. -1.
     999900   -1    0    0    0    0 -0.00000000000E+00 -0.00000000000E+00 -0.74505805969E-08  0.93827000000E+00  0.93827000000E+00 0. -1.
     999902    2    1    2    0    0  0.16556735439E-01  0.10616318453E-01 -0.10407027103E-01  0.10216783053E+01  0.10214359606E+01 0.  0.
     999903    2    3    3    0    0  0.53997506470E-01  0.66351400966E-01  0.98442135871E-01  0.13243348461E+00  0.23011619169E-01 0.  0.
         14    1    1    2    0    0 -0.16556735439E-01 -0.10616318453E-01  0.10407027103E-01  0.22251694745E-01  0.00000000000E+00 0. -1.
     999901    1    3    3    0    0 -0.37440771031E-01 -0.55735082513E-01 -0.10884916297E+00  0.88924482064E+00  0.88000000000E+00 0. -1.
        -11    1    4    4    0    0  0.29077190646E-01  0.19147610498E-01  0.45006040249E-01  0.56902713324E-01  0.51100000000E-03 0. -1.
         11    1    4    4    0    0  0.24920315823E-01  0.47203790468E-01  0.53436095622E-01  0.75530771289E-01  0.51100000000E-03 0.  1.
</event>
<event>
 8    1  0.1161093E+005  0.1043930E+01  0.7957747E-01            NaN
         13   -1    0    0    0    0  0.00000000000E+00  0.00000000000E+00  0.74505805969E-08  0.10566000000E+00  0.10566000000E+00 0.  1.
     999900   -1    0    0    0    0 -0.00000000000E+00 -0.00000000000E+00 -0.74505805969E-08  0.93827000000E+00  0.93827000000E+00 0. -1.
     999902    2    1    2    0    0 -0.13414434480E-01  0.76512164405E-02  0.17574488430E-01  0.10205344703E+01  0.10202662664E+01 0.  0.
     999903    2    3    3    0    0 -0.19597546121E-01  0.69369410947E-01 -0.10607585949E+00  0.12972765908E+00  0.19519184801E-01 0.  0.
         14    1    1    2    0    0  0.13414434480E-01 -0.76512164405E-02 -0.17574488430E-01  0.23395529680E-01  0.00000000000E+00 0. -1.
     999901    1    3    3    0    0  0.61831116410E-02 -0.61718194506E-01  0.12365034792E+00  0.89080681124E+00  0.88000000000E+00 0.  1.
        -11    1    4    4    0    0 -0.92088246927E-02  0.25319283762E-01 -0.56507453090E-01  0.62603689654E-01  0.51100000000E-03 0. -1.
         11    1    4    4    0    0 -0.10388721428E-01  0.44050127184E-01 -0.49568406402E-01  0.67123969430E-01  0.51100000000E-03 0.  1.
</event>
<event>
 8    1  0.1161093E+005  0.1043930E+01  0.7957747E-01            NaN
         13   -1    0    0    0    0  0.00000000000E+00  0.00000000000E+00  0.74505805969E-08  0.10566000000E+00  0.10566000000E+00 0.  1.
     999900   -1    0    0    0    0 -0.00000000000E+00 -0.00000000000E+00 -0.74505805969E-08  0.93827000000E+00  0.93827000000E+00 0. -1.
     999902    2    1    2    0    0 -0.16113131745E-01  0.18299003752E-01 -0.12778752288E-01  0.10164021402E+01  0.10160292947E+01 0.  0.
     999903    2    3    3    0    0 -0.26027173441E-01 -0.61578697175E-01  0.10351757953E+00  0.12510893813E+00  0.21610354602E-01 0.  0.
         14    1    1    2    0    0  0.16113131745E-01 -0.18299003752E-01  0.12778752288E-01  0.27527859760E-01  0.00000000000E+00 0.  1.
     999901    1    3    3    0    0  0.99140416968E-02  0.79877700927E-01 -0.11629633182E+00  0.89129320211E+00  0.88000000000E+00 0. -1.
        -11    1    4    4    0    0 -0.65551592265E-04 -0.26112324277E-01  0.34254816317E-01  0.43075646693E-01  0.51100000000E-03 0. -1.
         11    1    4    4    0    0 -0.25961621849E-01 -0.35466372898E-01  0.69262763212E-01  0.82033291439E-01  0.51100000000E-03 0.  1.
</event>
<event>
 8    1  0.1161093E+005  0.1043930E+01  0.7957747E-01            NaN
         13   -1    0    0    0    0  0.00000000000E+00  0.00000000000E+00  0.74505805969E-08  0.10566000000E+00  0.10566000000E+00 0.  1.
     999900   -1    0    0    0    0 -0.00000000000E+00 -0.00000000000E+00 -0.74505805969E-08  0.93827000000E+00  0.93827000000E+00 0. -1.
     999902    2    1    2    0    0 -0.13158465447E-01 -0.10958241290E-01  0.15372018536E-01  0.10209185416E+01  0.10206591700E+01 0.  0.
     999903    2    3    3    0    0  0.91560613818E-02  0.50178342736E-01 -0.11650042716E+00  0.12871567117E+00  0.19841243337E-01 0.  0.
         14    1    1    2    0    0  0.13158465447E-01  0.10958241290E-01 -0.15372018536E-01  0.23011458427E-01  0.00000000000E+00 0.  1.
     999901    1    3    3    0    0 -0.22314526829E-01 -0.61136584026E-01  0.13187244570E+00  0.89220287040E+00  0.88000000000E+00 0.  1.
        -11    1    4    4    0    0  0.44240087841E-02  0.28373158134E-01 -0.87678754933E-01  0.92262848123E-01  0.51100000000E-03 0.  1.
         11    1    4    4    0    0  0.47320525977E-02  0.21805184602E-01 -0.28821672229E-01  0.36452823051E-01  0.51100000000E-03 0. -1.
</event>
<event>
 8    1  0.1161093E+005  0.1043930E+01  0.7957747E-01            NaN
         13   -1    0    0    0    0  0.00000000000E+00  0.00000000000E+00  0.74505805969E-08  0.10566000000E+00  0.10566000000E+00 0.  1.
     999900   -1    0    0    0    0 -0.00000000000E+00 -0.00000000000E+00 -0.74505805969E-08  0.93827000000E+00  0.93827000000E+00 0. -1.
     999902    2    1    2    0    0  0.16334519502E-01 -0.16779529486E-01 -0.24646424801E-02  0.10203833739E+01  0.10201116538E+01 0.  0.
     999903    2    3    3    0    0  0.84118324924E-01 -0.97627484764E-01 -0.29375131095E-01  0.13367304323E+00  0.19964112583E-01 0.  0.
         14    1    1    2    0    0 -0.16334519502E-01  0.16779529486E-01  0.24646424801E-02  0.23546626079E-01  0.00000000000E+00 0.  1.
     999901    1    3    3    0    0 -0.67783805422E-01  0.80847955277E-01  0.26910488615E-01  0.88671033069E+00  0.88000000000E+00 0.  1.
        -11    1    4    4    0    0  0.35601549874E-01 -0.43223955466E-01 -0.27547091016E-02  0.56068085600E-01  0.51100000000E-03 0. -1.
         11    1    4    4    0    0  0.48516775050E-01 -0.54403529298E-01 -0.26620421994E-01  0.77604957634E-01  0.51100000000E-03 0.  1.
</event>
<event>
 8    1  0.1161093E+005  0.1043930E+01  0.7957747E-01            NaN
         13   -1    0    0    0    0  0.00000000000E+00  0.00000000000E+00  0.74505805969E-08  0.10566000000E+00  0.10566000000E+00 0. -1.
     999900   -1    0    0    0    0 -0.00000000000E+00 -0.00000000000E+00 -0.74505805969E-08  0.93827000000E+00  0.93827000000E+00 0.  1.
     999902    2    1    2    0    0 -0.21630071859E-02  0.15697325732E-01 -0.17475900761E-01  0.10203399228E+01  0.10200671872E+01 0.  0.
     999903    2    3    3    0    0  0.16453171248E-01  0.86983696721E-01 -0.98016926739E-01  0.13359578514E+00  0.20090931828E-01 0.  0.
         14    1    1    2    0    0  0.21630071859E-02 -0.15697325732E-01  0.17475900761E-01  0.23590077207E-01  0.00000000000E+00 0. -1.
     999901    1    3    3    0    0 -0.18616178434E-01 -0.71286370989E-01  0.80541025978E-01  0.88674413765E+00  0.88000000000E+00 0. -1.
        -11    1    4    4    0    0  0.16541658163E-01  0.50656043697E-01 -0.68482765530E-01  0.86774486535E-01  0.51100000000E-03 0.  1.
         11    1    4    4    0    0 -0.88486914868E-04  0.36327653024E-01 -0.29534161209E-01  0.46821298610E-01  0.51100000000E-03 0. -1.
</event>
<event>
 8    1  0.1161093E+005  0.1043930E+01  0.7957747E-01            NaN
         13   -1    0    0    0    0  0.00000000000E+00  0.00000000000E+00  0.74505805969E-08  0.10566000000E+00  0.10566000000E+00 0. -1.
     999900   -1    0    0    0    0 -0.00000000000E+00 -0.00000000000E+00 -0.74505805969E-08  0.93827000000E+00  0.93827000000E+00 0.  1.
     999902    2    1    2    0    0 -0.20758024580E-01 -0.53133754375E-02 -0.98808397840E-02  0.10203342687E+01  0.10200614007E+01 0.  0.
     999903    2    3    3    0    0  0.13385378975E-01 -0.88591638440E-01  0.91896127922E-01  0.12990763369E+00  0.20086019811E-01 0.  0.
         14    1    1    2    0    0  0.20758024580E-01  0.53133754375E-02  0.98808397840E-02  0.23595731348E-01  0.00000000000E+00 0. -1.
     999901    1    3    3    0    0 -0.34143403555E-01  0.83278263003E-01 -0.10177696771E+00  0.89042663496E+00  0.88000000000E+00 0.  1.
        -11    1    4    4    0    0  0.10200556818E-01 -0.78090105829E-01  0.69816522326E-01  0.10524601607E+00  0.51100000000E-03 0.  1.
         11    1    4    4    0    0  0.31848221571E-02 -0.10501532611E-01  0.22079605596E-01  0.24661617620E-01  0.51100000000E-03 0. -1.
</event>
<event>
 8    1  0.1161093E+005  0.1043930E+01  0.7957747E-01            NaN
         13   -1    0    0    0    0  0.00000000000E+00  0.00000000000E+00  0.74505805969E-08  0.10566000000E+00  0.10566000000E+00 0. -1.
     999900   -1    0    0    0    0 -0.00000000000E+00 -0.00000000000E+00 -0.74505805969E-08  0.93827000000E+00  0.93827000000E+00 0. -1.
     999902    2    1    2    0    0 -0.74129828556E-02 -0.13078260981E-01 -0.18242477084E-01  0.10202914468E+01  0.10200175760E+01 0.  0.
     999903    2    3    3    0    0 -0.44941837926E-02 -0.10692744471E+00 -0.78531398460E-01  0.13324525712E+00  0.11551704643E-01 0.  0.
         14    1    1    2    0    0  0.74129828556E-02  0.13078260981E-01  0.18242477084E-01  0.23638553155E-01  0.00000000000E+00 0. -1.
     999901    1    3    3    0    0 -0.29187990630E-02  0.93849183726E-01  0.60288921376E-01  0.88704618973E+00  0.88000000000E+00 0.  1.
        -11    1    4    4    0    0 -0.79567792397E-02 -0.87238405512E-01 -0.62438075599E-01  0.10757613182E+00  0.51100000000E-03 0.  1.
         11    1    4    4    0    0  0.34625954471E-02 -0.19689039195E-01 -0.16093322861E-01  0.25669125294E-01  0.51100000000E-03 0. -1.
</event>
<event>
 8    1  0.1161093E+005  0.1043930E+01  0.7957747E-01            NaN
         13   -1    0    0    0    0  0.00000000000E+00  0.00000000000E+00  0.74505805969E-08  0.10566000000E+00  0.10566000000E+00 0.  1.
     999900   -1    0    0    0    0 -0.00000000000E+00 -0.00000000000E+00 -0.74505805969E-08  0.93827000000E+00  0.93827000000E+00 0. -1.
     999902    2    1    2    0    0 -0.84335152477E-02 -0.42198390744E-02 -0.20319119090E-01  0.10215291558E+01  0.10212835151E+01 0.  0.
     999903    2    3    3    0    0  0.81864039877E-01  0.41336933282E-01 -0.93668288526E-01  0.13270455631E+00  0.20646740929E-01 0.  0.
         14    1    1    2    0    0  0.84335152477E-02  0.42198390744E-02  0.20319119090E-01  0.22400844221E-01  0.00000000000E+00 0.  1.
     999901    1    3    3    0    0 -0.90297555125E-01 -0.45556772356E-01  0.73349169436E-01  0.88882459947E+00  0.88000000000E+00 0.  1.
        -11    1    4    4    0    0  0.48455463053E-01  0.35321274782E-01 -0.62563417989E-01  0.86660064294E-01  0.51100000000E-03 0.  1.
         11    1    4    4    0    0  0.33408576824E-01  0.60156584995E-02 -0.31104870537E-01  0.46044492013E-01  0.51100000000E-03 0. -1.
</event>
<event>
 8    1  0.1161093E+005  0.1043930E+01  0.7957747E-01            NaN
         13   -1    0    0    0    0  0.00000000000E+00  0.00000000000E+00  0.74505805969E-08  0.10566000000E+00  0.10566000000E+00 0.  1.
     999900   -1    0    0    0    0 -0.00000000000E+00 -0.00000000000E+00 -0.74505805969E-08  0.93827000000E+00  0.93827000000E+00 0.  1.
     999902    2    1    2    0    0  0.22060981705E-01  0.16761048759E-02 -0.47969640784E-02  0.10212913802E+01  0.10210404381E+01 0.  0.
     999903    2    3    3    0    0 -0.43352013675E-02 -0.76821109803E-01 -0.10530093463E+00  0.13170742168E+00  0.18392422569E-01 0.  0.
         14    1    1    2    0    0 -0.22060981705E-01 -0.16761048759E-02  0.47969640784E-02  0.22638619784E-01  0.00000000000E+00 0.  1.
     999901    1    3    3    0    0  0.26396183073E-01  0.78497214678E-01  0.10050397055E+00  0.88958395854E+00  0.88000000000E+00 0. -1.
        -11    1    4    4    0    0 -0.93582501980E-03 -0.41293488338E-01 -0.41216209941E-01  0.58352935063E-01  0.51100000000E-03 0.  1.
         11    1    4    4    0    0 -0.33993763477E-02 -0.35527621464E-01 -0.64084724692E-01  0.73354486613E-01  0.51100000000E-03 0. -1.
</event>
<event>
 8    1  0.1161093E+005  0.1043930E+01  0.7957747E-01            NaN
         13   -1    0    0    0    0  0.00000000000E+00  0.00000000000E+00  0.74505805969E-08  0.10566000000E+00  0.10566000000E+00 0.  1.
     999900   -1    0    0    0    0 -0.00000000000E+00 -0.00000000000E+00 -0.74505805969E-08  0.93827000000E+00  0.93827000000E+00 0. -1.
     999902    2    1    2    0    0  0.14828248560E-01 -0.15519701222E-01 -0.94694246803E-02  0.10204692224E+01  0.10201995029E+01 0.  0.
     999903    2    3    3    0    0  0.95523896279E-01 -0.67477160432E-01  0.59014028853E-01  0.13260586100E+00  0.20583411509E-01 0.  0.
         14    1    1    2    0    0 -0.14828248560E-01  0.15519701222E-01  0.94694246803E-02  0.23460777591E-01  0.00000000000E+00 0.  1.
     999901    1    3    3    0    0 -0.80695647718E-01  0.51957459210E-01 -0.68483453533E-01  0.88786336141E+00  0.88000000000E+00 0. -1.
        -11    1    4    4    0    0  0.71705971552E-01 -0.39308071506E-01  0.38355813905E-01  0.90323310519E-01  0.51100000000E-03 0.  1.
         11    1    4    4    0    0  0.23817924727E-01 -0.28169088926E-01  0.20658214948E-01  0.42282550480E-01  0.51100000000E-03 0. -1.
</event>
<event>
 8    1  0.1161093E+005  0.1043930E+01  0.7957747E-01            NaN
         13   -1    0    0    0    0  0.00000000000E+00  0.00000000000E+00  0.74505805969E-08  0.10566000000E+00  0.10566000000E+00 0. -1.
     999900   -1    0    0    0    0 -0.00000000000E+00 -0.00000000000E+00 -0.74505805969E-08  0.93827000000E+00  0.93827000000E+00 0.  1.
     999902    2    1    2    0    0  0.10912341682E-01 -0.20867549719E-01  0.73906376837E-03  0.10203698632E+01  0.10200978275E+01 0.  0.
     999903    2    3    3    0    0  0.33073829927E-01 -0.10870744992E+00 -0.66514948964E-01  0.13316634545E+00  0.19946158301E-01 0.  0.
         14    1    1    2    0    0 -0.10912341682E-01  0.20867549719E-01 -0.73906376837E-03  0.23560136831E-01  0.00000000000E+00 0. -1.
     999901    1    3    3    0    0 -0.22161488245E-01  0.87839900197E-01  0.67254012732E-01  0.88720351772E+00  0.88000000000E+00 0.  1.
        -11    1    4    4    0    0  0.15412951637E-01 -0.80623140064E-01 -0.44829932838E-01  0.93528785896E-01  0.51100000000E-03 0.  1.
         11    1    4    4    0    0  0.17660878290E-01 -0.28084309853E-01 -0.21685016125E-01  0.39637559552E-01  0.51100000000E-03 0. -1.
</event>
<event>
 8    1  0.1161093E+005  0.1043930E+01  0.7957747E-01            NaN
         13   -1    0    0    0    0  0.00000000000E+00  0.00000000000E+00  0.74505805969E-08  0.10566000000E+00  0.10566000000E+00 0. -1.
     999900   -1    0    0    0    0 -0.00000000000E+00 -0.00000000000E+00 -0.74505805969E-08  0.93827000000E+00  0.93827000000E+00 0. -1.
     999902    2    1    2    0    0  0.15527829979E-01 -0.13759637115E-01 -0.49986170861E-02  0.10225892575E+01  0.10223665499E+01 0.  0.
     999903    2    3    3    0    0 -0.54885209665E-01 -0.10495675267E+00 -0.58095279709E-01  0.13349186935E+00  0.20413512374E-01 0.  0.
         14    1    1    2    0    0 -0.15527829979E-01  0.13759637115E-01  0.49986170861E-02  0.21340742494E-01  0.00000000000E+00 0. -1.
     999901    1    3    3    0    0  0.70413039645E-01  0.91197115557E-01  0.53096662623E-01  0.88909738815E+00  0.88000000000E+00 0.  1.
        -11    1    4    4    0    0 -0.34645910734E-01 -0.64534859131E-01 -0.24753449173E-01  0.77318054429E-01  0.51100000000E-03 0.  1.
         11    1    4    4    0    0 -0.20239298931E-01 -0.40421893541E-01 -0.33341830536E-01  0.56173814925E-01  0.51100000000E-03 0. -1.
</event>
<event>
 8    1  0.1161093E+005  0.1043930E+01  0.7957747E-01            NaN
         13   -1    0    0    0    0  0.00000000000E+00  0.00000000000E+00  0.74505805969E-08  0.10566000000E+00  0.10566000000E+00 0.  1.
     999900   -1    0    0    0    0 -0.00000000000E+00 -0.00000000000E+00 -0.74505805969E-08  0.93827000000E+00  0.93827000000E+00 0. -1.
     999902    2    1    2    0    0  0.11411943130E-01 -0.11679069344E-01  0.15059185585E-01  0.10217171169E+01  0.10214756261E+01 0.  0.
     999903    2    3    3    0    0  0.52719710569E-01  0.11498948526E+00  0.29938514648E-01  0.13156395655E+00  0.20268458317E-01 0.  0.
         14    1    1    2    0    0 -0.11411943130E-01  0.11679069344E-01 -0.15059185585E-01  0.22212883136E-01  0.00000000000E+00 0. -1.
     999901    1    3    3    0    0 -0.41307767439E-01 -0.12666855460E+00 -0.14879329063E-01  0.89015316031E+00  0.88000000000E+00 0.  1.
        -11    1    4    4    0    0  0.22002054867E-01  0.42648997366E-01  0.21265947398E-01  0.52493133212E-01  0.51100000000E-03 0.  1.
         11    1    4    4    0    0  0.30717655702E-01  0.72340487893E-01  0.86725672493E-02  0.79070823343E-01  0.51100000000E-03 0. -1.
</event>
<event>
 8    1  0.1161093E+005  0.1043930E+01  0.7957747E-01            NaN
         13   -1    0    0    0    0  0.00000000000E+00  0.00000000000E+00  0.74505805969E-08  0.10566000000E+00  0.10566000000E+00 0.  1.
     999900   -1    0    0    0    0 -0.00000000000E+00 -0.00000000000E+00 -0.74505805969E-08  0.93827000000E+00  0.93827000000E+00 0.  1.
     999902    2    1    2    0    0 -0.21338591626E-01 -0.87274463638E-02 -0.38210366510E-02  0.10205611290E+01  0.10202935430E+01 0.  0.
     999903    2    3    3    0    0 -0.74294021094E-01  0.19170450479E-01  0.10533767821E+00  0.13179895875E+00  0.19693433852E-01 0.  0.
         14    1    1    2    0    0  0.21338591626E-01  0.87274463638E-02  0.38210366510E-02  0.23368871040E-01  0.00000000000E+00 0.  1.
     999901    1    3    3    0    0  0.52955429467E-01 -0.27897896843E-01 -0.10915871486E+00  0.88876217021E+00  0.88000000000E+00 0.  1.
        -11    1    4    4    0    0 -0.15367552628E-01 -0.29467515301E-02  0.14891712692E-01  0.21607157292E-01  0.51100000000E-03 0.  1.
         11    1    4    4    0    0 -0.58926468466E-01  0.22117202009E-01  0.90445965515E-01  0.11019180146E+00  0.51100000000E-03 0. -1.
</event>
<event>
 8    1  0.1161093E+005  0.1043930E+01  0.7957747E-01            NaN
         13   -1    0    0    0    0  0.00000000000E+00  0.00000000000E+00  0.74505805969E-08  0.10566000000E+00  0.10566000000E+00 0.  1.
     999900   -1    0    0    0    0 -0.00000000000E+00 -0.00000000000E+00 -0.74505805969E-08  0.93827000000E+00  0.93827000000E+00 0.  1.
     999902    2    1    2    0    0 -0.97198187749E-02  0.12245214105E-01 -0.19189945431E-01  0.10191777445E+01  0.10188771274E+01 0.  0.
     999903    2    3    3    0    0  0.10371308078E+00 -0.78989400135E-02  0.70363044855E-01  0.12716174259E+00  0.20008856001E-01 0.  0.
         14    1    1    2    0    0  0.97198187749E-02 -0.12245214105E-01  0.19189945431E-01  0.24752255476E-01  0.00000000000E+00 0.  1.
     999901    1    3    3    0    0 -0.11343289955E+00  0.20144154119E-01 -0.89552990285E-01  0.89201600194E+00  0.88000000000E+00 0.  1.
        -11    1    4    4    0    0  0.32824342962E-01 -0.11471897483E-01  0.26507339201E-01  0.43725759859E-01  0.51100000000E-03 0.  1.
         11    1    4    4    0    0  0.70888737815E-01  0.35729574692E-02  0.43855705654E-01  0.83435982726E-01  0.51100000000E-03 0. -1.
</event>
<event>
 8    1  0.1161093E+005  0.1043930E+01  0.7957747E-01            NaN
         13   -1    0    0    0    0  0.00000000000E+00  0.00000000000E+00  0.74505805969E-08  0.10566000000E+00  0.10566000000E+00 0.  1.
     999900   -1    0    0    0    0 -0.00000000000E+00 -0.00000000000E+00 -0.74505805969E-08  0.93827000000E+00  0.93827000000E+00 0.  1.
     999902    2    1    2    0    0  0.22893696367E-01  0.24762916205E-02  0.92999238126E-02  0.10190957105E+01  0.10187930728E+01 0.  0.
     999903    2    3    3    0    0 -0.12356938734E+00 -0.11564389765E-01 -0.13725711009E-01  0.12658310245E+00  0.20778789305E-01 0.  0.
         14    1    1    2    0    0 -0.22893696367E-01 -0.24762916205E-02 -0.92999238126E-02  0.24834289530E-01  0.00000000000E+00 0. -1.
     999901    1    3    3    0    0  0.14646308370E+00  0.14040681386E-01  0.23025634822E-01  0.89251260802E+00  0.88000000000E+00 0. -1.
        -11    1    4    4    0    0 -0.53785353159E-01  0.12346607397E-02  0.22799622326E-02  0.53850236308E-01  0.51100000000E-03 0.  1.
         11    1    4    4    0    0 -0.69784034177E-01 -0.12799050505E-01 -0.16005673242E-01  0.72732866139E-01  0.51100000000E-03 0. -1.
</event>
<event>
 8    1  0.1161093E+005  0.1043930E+01  0.7957747E-01            NaN
         13   -1    0    0    0    0  0.00000000000E+00  0.00000000000E+00  0.74505805969E-08  0.10566000000E+00  0.10566000000E+00 0. -1.
     999900   -1    0    0    0    0 -0.00000000000E+00 -0.00000000000E+00 -0.74505805969E-08  0.93827000000E+00  0.93827000000E+00 0. -1.
     999902    2    1    2    0    0 -0.40619773631E-02  0.14221444747E-01 -0.18200555670E-01  0.10204777213E+01  0.10202081995E+01 0.  0.
     999903    2    3    3    0    0  0.70602824285E-01 -0.10235714863E+00 -0.30746997653E-01  0.12956649436E+00  0.19502664483E-01 0.  0.
         14    1    1    2    0    0  0.40619773631E-02 -0.14221444747E-01  0.18200555670E-01  0.23452278727E-01  0.00000000000E+00 0. -1.
     999901    1    3    3    0    0 -0.74664801648E-01  0.11657859338E+00  0.12546441984E-01  0.89091122692E+00  0.88000000000E+00 0. -1.
        -11    1    4    4    0    0  0.43918962228E-01 -0.47693129175E-01 -0.19488996591E-01  0.67702229821E-01  0.51100000000E-03 0.  1.
         11    1    4    4    0    0  0.26683862057E-01 -0.54664019458E-01 -0.11258001062E-01  0.61864264536E-01  0.51100000000E-03 0. -1.
</event>
<event>
 8    1  0.1161093E+005  0.1043930E+01  0.7957747E-01            NaN
         13   -1    0    0    0    0  0.00000000000E+00  0.00000000000E+00  0.74505805969E-08  0.10566000000E+00  0.10566000000E+00 0. -1.
     999900   -1    0    0    0    0 -0.00000000000E+00 -0.00000000000E+00 -0.74505805969E-08  0.93827000000E+00  0.93827000000E+00 0.  1.
     999902    2    1    2    0    0  0.29418681137E-01  0.53857524416E-02  0.17169367094E-01  0.10094444625E+01  0.10088552278E+01 0.  0.
     999903    2    3    3    0    0  0.10899624896E+00 -0.53114964570E-01  0.15412400163E-01  0.12391749504E+00  0.20411314248E-01 0.  0.
         14    1    1    2    0    0 -0.29418681137E-01 -0.53857524416E-02 -0.17169367094E-01  0.34485537485E-01  0.00000000000E+00 0. -1.
     999901    1    3    3    0    0 -0.79577567824E-01  0.58500717012E-01  0.17569669316E-02  0.88552696747E+00  0.88000000000E+00 0.  1.
        -11    1    4    4    0    0  0.56678216007E-01 -0.36322152794E-01  0.14979425853E-01  0.68966392346E-01  0.51100000000E-03 0. -1.
         11    1    4    4    0    0  0.52318032955E-01 -0.16792811776E-01  0.43297430989E-03  0.54951102694E-01  0.51100000000E-03 0.  1.
</event>
<event>
 8    1  0.1161093E+005  0.1043930E+01  0.7957747E-01            NaN
         13   -1    0    0    0    0  0.00000000000E+00  0.00000000000E+00  0.74505805969E-08  0.10566000000E+00  0.10566000000E+00 0.  1.
     999900   -1    0    0    0    0 -0.00000000000E+00 -0.00000000000E+00 -0.74505805969E-08  0.93827000000E+00  0.93827000000E+00 0.  1.
     999902    2    1    2    0    0 -0.12083905862E-01  0.18239931503E-01  0.11846009697E-01  0.10190494086E+01  0.10187456274E+01 0.  0.
     999903    2    3    3    0    0 -0.10574377861E+00  0.25534157239E-01  0.71891831134E-01  0.13201452871E+00  0.20631541499E-01 0.  0.
         14    1    1    2    0    0  0.12083905862E-01 -0.18239931503E-01 -0.11846009697E-01  0.24880591389E-01  0.00000000000E+00 0. -1.
     999901    1    3    3    0    0  0.93659872752E-01 -0.72942257354E-02 -0.60045821437E-01  0.88703487990E+00  0.88000000000E+00 0.  1.
        -11    1    4    4    0    0 -0.25728486918E-01  0.12429840475E-01  0.27089717608E-01  0.39377276371E-01  0.51100000000E-03 0.  1.
         11    1    4    4    0    0 -0.80015291696E-01  0.13104316763E-01  0.44802113526E-01  0.92637252336E-01  0.51100000000E-03 0. -1.
</event>
<event>
 8    1  0.1161093E+005  0.1043930E+01  0.7957747E-01            NaN
         13   -1    0    0    0    0  0.00000000000E+00  0.00000000000E+00  0.74505805969E-08  0.10566000000E+00  0.10566000000E+00 0. -1.
     999900   -1    0    0    0    0 -0.00000000000E+00 -0.00000000000E+00 -0.74505805969E-08  0.93827000000E+00  0.93827000000E+00 0. -1.
     999902    2    1    2    0    0 -0.23204208764E-02 -0.83709998081E-02 -0.20036764490E-01  0.10220912747E+01  0.10218579373E+01 0.  0.
     999903    2    3    3    0    0  0.10531591087E-01  0.52094592382E-01 -0.12177185294E+00  0.13407590870E+00  0.17977879744E-01 0.  0.
         14    1    1    2    0    0  0.23204208764E-02  0.83709998081E-02  0.20036764490E-01  0.21838725285E-01  0.00000000000E+00 0. -1.
     999901    1    3    3    0    0 -0.12852011963E-01 -0.60465592190E-01  0.10173508845E+00  0.88801536601E+00  0.88000000000E+00 0. -1.
        -11    1    4    4    0    0  0.13527918751E-01  0.41702355777E-01 -0.83621476057E-01  0.94418766366E-01  0.51100000000E-03 0. -1.
         11    1    4    4    0    0 -0.29963276642E-02  0.10392236605E-01 -0.38150376883E-01  0.39657142338E-01  0.51100000000E-03 0.  1.
</event>
<event>
 8    1  0.1161093E+005  0.1043930E+01  0.7957747E-01            NaN
         13   -1    0    0    0    0  0.00000000000E+00  0.00000000000E+00  0.74505805969E-08  0.10566000000E+00  0.10566000000E+00 0. -1.
     999900   -1    0    0    0    0 -0.00000000000E+00 -0.00000000000E+00 -0.74505805969E-08  0.93827000000E+00  0.93827000000E+00 0.  1.
     999902    2    1    2    0    0 -0.57320215979E-02 -0.20443211789E-01  0.64157366885E-02  0.10217502196E+01  0.10215094560E+01 0.  0.
     999903    2    3    3    0    0  0.11410570427E-01 -0.57115998286E-01 -0.11716063083E+00  0.13219421783E+00  0.18874836008E-01 0.  0.
         14    1    1    2    0    0  0.57320215979E-02  0.20443211789E-01 -0.64157366885E-02  0.22179780367E-01  0.00000000000E+00 0.  1.
     999901    1    3    3    0    0 -0.17142592025E-01  0.36672786497E-01  0.12357636752E+00  0.88955600180E+00  0.88000000000E+00 0. -1.
        -11    1    4    4    0    0  0.53743721304E-02 -0.40730249762E-01 -0.62377199872E-01  0.74692792867E-01  0.51100000000E-03 0. -1.
         11    1    4    4    0    0  0.60361982966E-02 -0.16385748525E-01 -0.54783430957E-01  0.57501424965E-01  0.51100000000E-03 0.  1.
</event>
<event>
 8    1  0.1161093E+005  0.1043930E+01  0.7957747E-01            NaN
         13   -1    0    0    0    0  0.00000000000E+00  0.00000000000E+00  0.74505805969E-08  0.10566000000E+00  0.10566000000E+00 0. -1.
     999900   -1    0    0    0    0 -0.00000000000E+00 -0.00000000000E+00 -0.74505805969E-08  0.93827000000E+00  0.93827000000E+00 0.  1.
     999902    2    1    2    0    0  0.18030607095E-01 -0.15481568334E-01 -0.39776068539E-02  0.10198342928E+01  0.10195495974E+01 0.  0.
     999903    2    3    3    0    0  0.19493076693E-01  0.11761314406E+00  0.43978426783E-01  0.12853405018E+00  0.19340846418E-01 0.  0.
         14    1    1    2    0    0 -0.18030607095E-01  0.15481568334E-01  0.39776068539E-02  0.24095707223E-01  0.00000000000E+00 0. -1.
     999901    1    3    3    0    0 -0.14624695983E-02 -0.13309471239E+00 -0.47956033637E-01  0.89130024259E+00  0.88000000000E+00 0.  1.
        -11    1    4    4    0    0  0.86680018256E-02  0.26801752169E-01  0.18104111155E-01  0.33488626975E-01  0.51100000000E-03 0.  1.
         11    1    4    4    0    0  0.10825074868E-01  0.90811391889E-01  0.25874315629E-01  0.95045423209E-01  0.51100000000E-03 0. -1.
</event>
<event>
 8    1  0.1161093E+005  0.1043930E+01  0.7957747E-01            NaN
         13   -1    0    0    0    0  0.00000000000E+00  0.00000000000E+00  0.74505805969E-08  0.10566000000E+00  0.10566000000E+00 0.  1.
     999900   -1    0    0    0    0 -0.00000000000E+00 -0.00000000000E+00 -0.74505805969E-08  0.93827000000E+00  0.93827000000E+00 0. -1.
     999902    2    1    2    0    0  0.13917000737E-01 -0.14545973693E-01 -0.10362280800E-01  0.10212883321E+01  0.10210373217E+01 0.  0.
     999903    2    3    3    0    0 -0.97076367705E-01  0.40784261414E-01  0.71486269522E-01  0.12883096736E+00  0.19998856848E-01 0.  0.
         14    1    1    2    0    0 -0.13917000737E-01  0.14545973693E-01  0.10362280800E-01  0.22641667862E-01  0.00000000000E+00 0. -1.
     999901    1    3    3    0    0  0.11099336844E+00 -0.55330235107E-01 -0.81848550322E-01  0.89245736478E+00  0.88000000000E+00 0. -1.
        -11    1    4    4    0    0 -0.90028593238E-01  0.40873274090E-01  0.71042846834E-01  0.12175023344E+00  0.51100000000E-03 0.  1.
         11    1    4    4    0    0 -0.70477744670E-02 -0.89012676239E-04  0.44342268793E-03  0.70807339220E-02  0.51100000000E-03 0. -1.
</event>
<event>
 8    1  0.1161093E+005  0.1043930E+01  0.7957747E-01            NaN
         13   -1    0    0    0    0  0.00000000000E+00  0.00000000000E+00  0.74505805969E-08  0.10566000000E+00  0.10566000000E+00 0. -1.
     999900   -1    0    0    0    0 -0.00000000000E+00 -0.00000000000E+00 -0.74505805969E-08  0.93827000000E+00  0.93827000000E+00 0. -1.
     999902    2    1    2    0    0  0.20590203451E-01  0.12993551572E-01  0.10393283632E-02  0.10195605711E+01  0.10192692918E+01 0.  0.
     999903    2    3    3    0    0 -0.16357972905E-01  0.94929438702E-01  0.86414044312E-01  0.13087193078E+00  0.19516495656E-01 0.  0.
         14    1    1    2    0    0 -0.20590203451E-01 -0.12993551572E-01 -0.10393283632E-02  0.24369428883E-01  0.00000000000E+00 0. -1.
     999901    1    3    3    0    0  0.36948176356E-01 -0.81935887130E-01 -0.85374715949E-01  0.88868864033E+00  0.88000000000E+00 0. -1.
        -11    1    4    4    0    0 -0.12927012045E-01  0.73985662183E-01  0.55580159742E-01  0.93436615558E-01  0.51100000000E-03 0.  1.
         11    1    4    4    0    0 -0.34309608594E-02  0.20943776519E-01  0.30833884570E-01  0.37435315225E-01  0.51100000000E-03 0. -1.
</event>
<event>
 8    1  0.1161093E+005  0.1043930E+01  0.7957747E-01            NaN
         13   -1    0    0    0    0  0.00000000000E+00  0.00000000000E+00  0.74505805969E-08  0.10566000000E+00  0.10566000000E+00 0. -1.
     999900   -1    0    0    0    0 -0.00000000000E+00 -0.00000000000E+00 -0.74505805969E-08  0.93827000000E+00  0.93827000000E+00 0.  1.
     999902    2    1    2    0    0  0.21955602748E-01  0.54228541901E-02  0.11125010340E-01  0.10187263952E+01  0.10184145750E+01 0.  0.
     999903    2    3    3    0    0 -0.10939486976E-01 -0.11820112743E+00  0.45362370522E-01  0.12881787598E+00  0.21097905364E-01 0.  0.
         14    1    1    2    0    0 -0.21955602748E-01 -0.54228541901E-02 -0.11125010340E-01  0.25203604795E-01  0.00000000000E+00 0.  1.
     999901    1    3    3    0    0  0.32895089724E-01  0.12362398162E+00 -0.34237360182E-01  0.88990851923E+00  0.88000000000E+00 0. -1.
        -11    1    4    4    0    0 -0.15387835614E-01 -0.59689282474E-01  0.27303435558E-01  0.67419097008E-01  0.51100000000E-03 0. -1.
         11    1    4    4    0    0  0.44483486378E-02 -0.58511844958E-01  0.18058934964E-01  0.61398778970E-01  0.51100000000E-03 0.  1.
</event>
<event>
 8    1  0.1161093E+005  0.1043930E+01  0.7957747E-01            NaN
         13   -1    0    0    0    0  0.00000000000E+00  0.00000000000E+00  0.74505805969E-08  0.10566000000E+00  0.10566000000E+00 0.  1.
     999900   -1    0    0    0    0 -0.00000000000E+00 -0.00000000000E+00 -0.74505805969E-08  0.93827000000E+00  0.93827000000E+00 0. -1.
     999902    2    1    2    0    0 -0.72945132978E-02  0.34926002086E-02 -0.23536789565E-01  0.10190424802E+01  0.10187385277E+01 0.  0.
     999903    2    3    3    0    0  0.11161846905E+00 -0.45781882117E-01  0.36732808243E-01  0.12763870162E+00  0.19689479085E-01 0.  0.
         14    1    1    2    0    0  0.72945132978E-02 -0.34926002086E-02  0.23536789565E-01  0.24887519834E-01  0.00000000000E+00 0.  1.
     999901    1    3    3    0    0 -0.11891298235E+00  0.49274482326E-01 -0.60269597808E-01  0.89140377854E+00  0.88000000000E+00 0. -1.
        -11    1    4    4    0    0  0.23526890593E-01 -0.67184490469E-02  0.15478971696E-01  0.28957068643E-01  0.51100000000E-03 0. -1.
         11    1    4    4    0    0  0.88091578460E-01 -0.39063433070E-01  0.21253836547E-01  0.98681632981E-01  0.51100000000E-03 0.  1.
</event>
<event>
 8    1  0.1161093E+005  0.1043930E+01  0.7957747E-01            NaN
         13   -1    0    0    0    0  0.00000000000E+00  0.00000000000E+00  0.74505805969E-08  0.10566000000E+00  0.10566000000E+00 0. -1.
     999900   -1    0    0    0    0 -0.00000000000E+00 -0.00000000000E+00 -0.74505805969E-08  0.93827000000E+00  0.93827000000E+00 0. -1.
     999902    2    1    2    0    0  0.17281807319E-01  0.21353105772E-02 -0.15486890580E-01  0.10206262622E+01  0.10203601829E+01 0.  0.
     999903    2    3    3    0    0  0.74672294137E-01  0.10738270578E+00 -0.91718010160E-03  0.13237913519E+00  0.20405812950E-01 0.  0.
         14    1    1    2    0    0 -0.17281807319E-01 -0.21353105772E-02  0.15486890580E-01  0.23303737797E-01  0.00000000000E+00 0. -1.
     999901    1    3    3    0    0 -0.57390486818E-01 -0.10524739521E+00 -0.14569710478E-01  0.88824712701E+00  0.88000000000E+00 0. -1.
        -11    1    4    4    0    0  0.43246673979E-01  0.47279904004E-01  0.51475375186E-02  0.64283920201E-01  0.51100000000E-03 0.  1.
         11    1    4    4    0    0  0.31425620158E-01  0.60102801781E-01 -0.60647176202E-02  0.68095214994E-01  0.51100000000E-03 0. -1.
</event>
<event>
 8    1  0.1161093E+005  0.1043930E+01  0.7957747E-01            NaN
         13   -1    0    0    0    0  0.00000000000E+00  0.00000000000E+00  0.74505805969E-08  0.10566000000E+00  0.10566000000E+00 0. -1.
     999900   -1    0    0    0    0 -0.00000000000E+00 -0.00000000000E+00 -0.74505805969E-08  0.93827000000E+00  0.93827000000E+00 0. -1.
     999902    2    1    2    0    0 -0.21273317604E-01  0.60967612758E-02  0.89494590966E-02  0.10200591525E+01  0.10197798083E+01 0.  0.
     999903    2    3    3    0    0  0.10802143193E+00  0.57907696437E-01  0.34388609888E-01  0.12874065972E+00  0.19226281859E-01 0.  0.
         14    1    1    2    0    0  0.21273317604E-01 -0.60967612758E-02 -0.89494590966E-02  0.23870847452E-01  0.00000000000E+00 0. -1.
     999901    1    3    3    0    0 -0.12929474953E+00 -0.51810935162E-01 -0.25439150791E-01  0.89131849282E+00  0.88000000000E+00 0.  1.
        -11    1    4    4    0    0  0.16487627588E-01  0.12495067768E-01  0.12709444058E-01  0.24284968010E-01  0.51100000000E-03 0. -1.
         11    1    4    4    0    0  0.91533804338E-01  0.45412628670E-01  0.21679165830E-01  0.10445569171E+00  0.51100000000E-03 0.  1.
</event>
<event>
 8    1  0.1161093E+005  0.1043930E+01  0.7957747E-01            NaN
         13   -1    0    0    0    0  0.00000000000E+00  0.00000000000E+00  0.74505805969E-08  0.10566000000E+00  0.10566000000E+00 0.  1.
     999900   -1    0    0    0    0 -0.00000000000E+00 -0.00000000000E+00 -0.74505805969E-08  0.93827000000E+00  0.93827000000E+00 0. -1.
     999902    2    1    2    0    0  0.19213461919E-01 -0.99121645520E-02  0.56457412719E-02  0.10215853693E+01  0.10213409736E+01 0.  0.
     999903    2    3    3    0    0 -0.80771530358E-01 -0.51418595271E-01  0.87403428984E-01  0.13118989430E+00  0.20087730367E-01 0.  0.
         14    1    1    2    0    0 -0.19213461919E-01  0.99121645520E-02 -0.56457412719E-02  0.22344630664E-01  0.00000000000E+00 0.  1.
     999901    1    3    3    0    0  0.99984992277E-01  0.41506430719E-01 -0.81757687712E-01  0.89039547504E+00  0.88000000000E+00 0.  1.
        -11    1    4    4    0    0 -0.67968878410E-01 -0.33474905446E-01  0.68751450676E-01  0.10231012080E+00  0.51100000000E-03 0. -1.
         11    1    4    4    0    0 -0.12802651948E-01 -0.17943689824E-01  0.18651978308E-01  0.28879773497E-01  0.51100000000E-03 0.  1.
</event>
<event>
 8    1  0.1161093E+005  0.1043930E+01  0.7957747E-01            NaN
         13   -1    0    0    0    0  0.00000000000E+00  0.00000000000E+00  0.74505805969E-08  0.10566000000E+00  0.10566000000E+00 0.  1.
     999900   -1    0    0    0    0 -0.00000000000E+00 -0.00000000000E+00 -0.74505805969E-08  0.93827000000E+00  0.93827000000E+00 0.  1.
     999902    2    1    2    0    0 -0.18084538197E-01 -0.10793285590E-01 -0.76494079244E-02  0.10215233274E+01  0.10212775575E+01 0.  0.
     999903    2    3    3    0    0 -0.64786962446E-01  0.10770485794E+00 -0.34805828316E-01  0.13193893139E+00  0.19968700617E-01 0.  0.
         14    1    1    2    0    0  0.18084538197E-01  0.10793285590E-01  0.76494079244E-02  0.22406672605E-01  0.00000000000E+00 0.  1.
     999901    1    3    3    0    0  0.46702424249E-01 -0.11849814353E+00  0.27156420392E-01  0.88958439601E+00  0.88000000000E+00 0.  1.
        -11    1    4    4    0    0 -0.16822762330E-01  0.30487255206E-01 -0.19004882846E-01  0.39672720545E-01  0.51100000000E-03 0.  1.
         11    1    4    4    0    0 -0.47964200116E-01  0.77217602734E-01 -0.15800945470E-01  0.92266210844E-01  0.51100000000E-03 0. -1.
</event>
<event>
 8    1  0.1161093E+005  0.1043930E+01  0.7957747E-01            NaN
         13   -1    0    0    0    0  0.00000000000E+00  0.00000000000E+00  0.74505805969E-08  0.10566000000E+00  0.10566000000E+00 0.  1.
     999900   -1    0    0    0    0 -0.00000000000E+00 -0.00000000000E+00 -0.74505805969E-08  0.93827000000E+00  0.93827000000E+00 0.  1.
     999902    2    1    2    0    0 -0.24549026762E-01 -0.13249843162E-01 -0.38648254529E-02  0.10157670823E+01  0.10153765880E+01 0.  0.
     999903    2    3    3    0    0 -0.47853401230E-01 -0.71556772080E-01 -0.94047520511E-01  0.12893242446E+00  0.19191516926E-01 0.  0.
         14    1    1    2    0    0  0.24549026762E-01  0.13249843162E-01  0.38648254529E-02  0.28162917721E-01  0.00000000000E+00 0. -1.
     999901    1    3    3    0    0  0.23304374469E-01  0.58306928918E-01  0.90182695058E-01  0.88683465782E+00  0.88000000000E+00 0. -1.
        -11    1    4    4    0    0 -0.26820772894E-01 -0.23266858191E-01 -0.36806608242E-01  0.51143798060E-01  0.51100000000E-03 0. -1.
         11    1    4    4    0    0 -0.21032628336E-01 -0.48289913889E-01 -0.57240912269E-01  0.77788626396E-01  0.51100000000E-03 0.  1.
</event>
<event>
 8    1  0.1161093E+005  0.1043930E+01  0.7957747E-01            NaN
         13   -1    0    0    0    0  0.00000000000E+00  0.00000000000E+00  0.74505805969E-08  0.10566000000E+00  0.10566000000E+00 0.  1.
     999900   -1    0    0    0    0 -0.00000000000E+00 -0.00000000000E+00 -0.74505805969E-08  0.93827000000E+00  0.93827000000E+00 0.  1.
     999902    2    1    2    0    0 -0.18740000361E-02  0.25953966413E-01 -0.56270371918E-03  0.10179023823E+01  0.10175695666E+01 0.  0.
     999903    2    3    3    0    0  0.93313297001E-01 -0.82378037015E-01  0.32243715923E-02  0.12615646195E+00  0.20286545790E-01 0.  0.
         14    1    1    2    0    0  0.18740000361E-02 -0.25953966413E-01  0.56270371918E-03  0.26027617720E-01  0.00000000000E+00 0.  1.
     999901    1    3    3    0    0 -0.95187297037E-01  0.10833200343E+00 -0.37870753115E-02  0.89174592033E+00  0.88000000000E+00 0.  1.
        -11    1    4    4    0    0  0.79275572153E-01 -0.59733037050E-01  0.54813806120E-02  0.99413071122E-01  0.51100000000E-03 0.  1.
         11    1    4    4    0    0  0.14037724848E-01 -0.22644999965E-01 -0.22570090197E-02  0.26743390829E-01  0.51100000000E-03 0. -1.
</event>
<event>
 8    1  0.1161093E+005  0.1043930E+01  0.7957747E-01            NaN
         13   -1    0    0    0    0  0.00000000000E+00  0.00000000000E+00  0.74505805969E-08  0.10566000000E+00  0.10566000000E+00 0.  1.
     999900   -1    0    0    0    0 -0.00000000000E+00 -0.00000000000E+00 -0.74505805969E-08  0.93827000000E+00  0.93827000000E+00 0. -1.
     999902    2    1    2    0    0  0.11267749687E-01 -0.11642568277E-01  0.17384768694E-01  0.10201657041E+01  0.10198888773E+01 0.  0.
     999903    2    3    3    0    0 -0.12128884412E+00  0.10739136236E-01  0.39500435701E-01  0.12968196250E+00  0.20756064657E-01 0.  0.
         14    1    1    2    0    0 -0.11267749687E-01  0.11642568277E-01 -0.17384768694E-01  0.23764295942E-01  0.00000000000E+00 0. -1.
     999901    1    3    3    0    0  0.13255659381E+00 -0.22381704513E-01 -0.22115667008E-01  0.89048374156E+00  0.88000000000E+00 0. -1.
        -11    1    4    4    0    0 -0.67215154090E-01  0.98676987654E-02  0.11930816998E-01  0.68977198649E-01  0.51100000000E-03 0. -1.
         11    1    4    4    0    0 -0.54073690034E-01  0.87143747015E-03  0.27569618704E-01  0.60704763846E-01  0.51100000000E-03 0.  1.
</event>
<event>
 8    1  0.1161093E+005  0.1043930E+01  0.7957747E-01            NaN
         13   -1    0    0    0    0  0.00000000000E+00  0.00000000000E+00  0.74505805969E-08  0.10566000000E+00  0.10566000000E+00 0.  1.
     999900   -1    0    0    0    0 -0.00000000000E+00 -0.00000000000E+00 -0.74505805969E-08  0.93827000000E+00  0.93827000000E+00 0. -1.
     999902    2    1    2    0    0 -0.20382380340E-01 -0.44561285884E-02 -0.46022093723E-02  0.10225646345E+01  0.10223414072E+01 0.  0.
     999903    2    3    3    0    0  0.10081029324E+00  0.79633713921E-01  0.10170166778E-01  0.13016506661E+00  0.18310342894E-01 0.  0.
         14    1    1    2    0    0  0.20382380340E-01  0.44561285884E-02  0.46022093723E-02  0.21365365464E-01  0.00000000000E+00 0. -1.
     999901    1    3    3    0    0 -0.12119267358E+00 -0.84089842509E-01 -0.14772376150E-01  0.89239956793E+00  0.88000000000E+00 0. -1.
        -11    1    4    4    0    0  0.16148599130E-01  0.17662081777E-01  0.79435458980E-02  0.25220773759E-01  0.51100000000E-03 0. -1.
         11    1    4    4    0    0  0.84661694108E-01  0.61971632144E-01  0.22266208798E-02  0.10494429285E+00  0.51100000000E-03 0.  1.
</event>
<event>
 8    1  0.1161093E+005  0.1043930E+01  0.7957747E-01            NaN
         13   -1    0    0    0    0  0.00000000000E+00  0.00000000000E+00  0.74505805969E-08  0.10566000000E+00  0.10566000000E+00 0. -1.
     999900   -1    0    0    0    0 -0.00000000000E+00 -0.00000000000E+00 -0.74505805969E-08  0.93827000000E+00  0.93827000000E+00 0. -1.
     999902    2    1    2    0    0 -0.18704258764E-01  0.84249998825E-02  0.13710920792E-01  0.10192557367E+01  0.10189570342E+01 0.  0.
     999903    2    3    3    0    0 -0.58235190749E-01  0.39617125569E-01  0.11051611415E+00  0.13251626611E+00  0.19644215869E-01 0.  0.
         14    1    1    2    0    0  0.18704258764E-01 -0.84249998825E-02 -0.13710920792E-01  0.24674263269E-01  0.00000000000E+00 0.  1.
     999901    1    3    3    0    0  0.39530931985E-01 -0.31192125687E-01 -0.96805193362E-01  0.88673947062E+00  0.88000000000E+00 0. -1.
        -11    1    4    4    0    0 -0.64202206776E-02  0.13700535138E-01  0.21042731067E-01  0.25922606897E-01  0.51100000000E-03 0.  1.
         11    1    4    4    0    0 -0.51814970071E-01  0.25916590432E-01  0.89473383087E-01  0.10659365922E+00  0.51100000000E-03 0. -1.
</event>
<event>
 8    1  0.1161093E+005  0.1043930E+01  0.7957747E-01            NaN
         13   -1    0    0    0    0  0.00000000000E+00  0.00000000000E+00  0.74505805969E-08  0.10566000000E+00  0.10566000000E+00 0.  1.
     999900   -1    0    0    0    0 -0.00000000000E+00 -0.00000000000E+00 -0.74505805969E-08  0.93827000000E+00  0.93827000000E+00 0. -1.
     999902    2    1    2    0    0  0.19289350431E-01  0.13268932591E-01 -0.54725663009E-02  0.10198864438E+01  0.10196029942E+01 0.  0.
     999903    2    3    3    0    0 -0.24825892639E-01  0.99468282442E-01  0.77781884588E-01  0.13066893039E+00  0.22673412668E-01 0.  0.
         14    1    1    2    0    0 -0.19289350431E-01 -0.13268932591E-01  0.54725663009E-02  0.24043556186E-01  0.00000000000E+00 0. -1.
     999901    1    3    3    0    0  0.44115243070E-01 -0.86199349851E-01 -0.83254450889E-01  0.88921751342E+00  0.88000000000E+00 0. -1.
        -11    1    4    4    0    0 -0.39549037651E-02  0.33544733307E-01  0.38189796638E-01  0.50986391171E-01  0.51100000000E-03 0.  1.
         11    1    4    4    0    0 -0.20870988874E-01  0.65923549135E-01  0.39592087950E-01  0.79682539219E-01  0.51100000000E-03 0. -1.
</event>
<event>
 8    1  0.1161093E+005  0.1043930E+01  0.7957747E-01            NaN
         13   -1    0    0    0    0  0.00000000000E+00  0.00000000000E+00  0.74505805969E-08  0.10566000000E+00  0.10566000000E+00 0.  1.
     999900   -1    0    0    0    0 -0.00000000000E+00 -0.00000000000E+00 -0.74505805969E-08  0.93827000000E+00  0.93827000000E+00 0.  1.
     999902    2    1    2    0    0 -0.33600068958E-02  0.19293182977E-01 -0.15886683054E-02  0.10242820886E+01  0.10240936269E+01 0.  0.
     999903    2    3    3    0    0  0.76674529172E-01  0.11048761198E+00  0.24856726467E-02  0.13594738191E+00  0.19723494967E-01 0.  0.
         14    1    1    2    0    0  0.33600068958E-02 -0.19293182977E-01  0.15886683054E-02  0.19647911408E-01  0.00000000000E+00 0.  1.
     999901    1    3    3    0    0 -0.80034536067E-01 -0.91194429005E-01 -0.40743409520E-02  0.88833470668E+00  0.88000000000E+00 0. -1.
        -11    1    4    4    0    0  0.53790826434E-01  0.87334930536E-01 -0.44129485648E-02  0.10266731874E+00  0.51100000000E-03 0. -1.
         11    1    4    4    0    0  0.22883702738E-01  0.23152681446E-01  0.68986212114E-02  0.33280063173E-01  0.51100000000E-03 0.  1.
</event>
<event>
 8    1  0.1161093E+005  0.1043930E+01  0.7957747E-01            NaN
         13   -1    0    0    0    0  0.00000000000E+00  0.00000000000E+00  0.74505805969E-08  0.10566000000E+00  0.10566000000E+00 0.  1.
     999900   -1    0    0    0    0 -0.00000000000E+00 -0.00000000000E+00 -0.74505805969E-08  0.93827000000E+00  0.93827000000E+00 0. -1.
     999902    2    1    2    0    0 -0.20234688770E-02 -0.19891899177E-01  0.83548948943E-02  0.10222600589E+01  0.10220303526E+01 0.  0.
     999903    2    3    3    0    0  0.75695102591E-01 -0.97369605654E-01  0.49792164183E-01  0.13447629094E+00  0.19850051592E-01 0.  0.
         14    1    1    2    0    0  0.20234688770E-02  0.19891899177E-01 -0.83548948943E-02  0.21669941113E-01  0.00000000000E+00 0. -1.
     999901    1    3    3    0    0 -0.77718571468E-01  0.77477706477E-01 -0.41437269289E-01  0.88778376795E+00  0.88000000000E+00 0.  1.
        -11    1    4    4    0    0  0.13822137609E-01 -0.30827235811E-01  0.96468877481E-02  0.35138205988E-01  0.51100000000E-03 0. -1.
         11    1    4    4    0    0  0.61872964981E-01 -0.66542369843E-01  0.40145276435E-01  0.99338084947E-01  0.51100000000E-03 0.  1.
</event>
<event>
 8    1  0.1161093E+005  0.1043930E+01  0.7957747E-01            NaN
         13   -1    0    0    0    0  0.00000000000E+00  0.00000000000E+00  0.74505805969E-08  0.10566000000E+00  0.10566000000E+00 0. -1.
     999900   -1    0    0    0    0 -0.00000000000E+00 -0.00000000000E+00 -0.74505805969E-08  0.93827000000E+00  0.93827000000E+00 0. -1.
     999902    2    1    2    0    0  0.11435867071E-02 -0.28399346023E-01 -0.25203960517E-01  0.10059422352E+01  0.10052247064E+01 0.  0.
     999903    2    3    3    0    0  0.26896442307E-01  0.86244391904E-01  0.64549476176E-01  0.11360705404E+00  0.24050241378E-01 0.  0.
         14    1    1    2    0    0 -0.11435867071E-02  0.28399346023E-01  0.25203960517E-01  0.37987764752E-01  0.00000000000E+00 0. -1.
     999901    1    3    3    0    0 -0.25752855599E-01 -0.11464373793E+00 -0.89753436692E-01  0.89233518120E+00  0.88000000000E+00 0. -1.
        -11    1    4    4    0    0  0.25591986819E-01  0.53472501672E-01  0.31879379675E-01  0.67311322925E-01  0.51100000000E-03 0.  1.
         11    1    4    4    0    0  0.13044554874E-02  0.32771890232E-01  0.32670096500E-01  0.46295731119E-01  0.51100000000E-03 0. -1.
</event>
<event>
 8    1  0.1161093E+005  0.1043930E+01  0.7957747E-01            NaN
         13   -1    0    0    0    0  0.00000000000E+00  0.00000000000E+00  0.74505805969E-08  0.10566000000E+00  0.10566000000E+00 0.  1.
     999900   -1    0    0    0    0 -0.00000000000E+00 -0.00000000000E+00 -0.74505805969E-08  0.93827000000E+00  0.93827000000E+00 0.  1.
     999902    2    1    2    0    0 -0.22518084084E-01  0.41795711013E-02  0.97246618519E-02  0.10190482401E+01  0.10187444301E+01 0.  0.
     999903    2    3    3    0    0  0.99681272434E-01  0.20097861123E-01 -0.72879534463E-01  0.12663044116E+00  0.19584738686E-01 0.  0.
         14    1    1    2    0    0  0.22518084084E-01 -0.41795711013E-02 -0.97246618519E-02  0.24881759856E-01  0.00000000000E+00 0.  1.
     999901    1    3    3    0    0 -0.12219935652E+00 -0.15918290021E-01  0.82604196315E-01  0.89241779898E+00  0.88000000000E+00 0. -1.
        -11    1    4    4    0    0  0.37087340962E-01  0.16038998019E-01 -0.34170232470E-01  0.52920565238E-01  0.51100000000E-03 0. -1.
         11    1    4    4    0    0  0.62593931473E-01  0.40588631038E-02 -0.38709301993E-01  0.73709875924E-01  0.51100000000E-03 0.  1.
</event>
<event>
 8    1  0.1161093E+005  0.1043930E+01  0.7957747E-01            NaN
         13   -1    0    0    0    0  0.00000000000E+00  0.00000000000E+00  0.74505805969E-08  0.10566000000E+00  0.10566000000E+00 0.  1.
     999900   -1    0    0    0    0 -0.00000000000E+00 -0.00000000000E+00 -0.74505805969E-08  0.93827000000E+00  0.93827000000E+00 0. -1.
     999902    2    1    2    0    0  0.16440319616E-01 -0.96004627765E-02  0.23579367013E-02  0.10247463387E+01  0.10245667601E+01 0.  0.
     999903    2    3    3    0    0  0.60106092243E-01  0.10941168790E+00 -0.45469675243E-01  0.13437671201E+00  0.20148190696E-01 0.  0.
         14    1    1    2    0    0 -0.16440319616E-01  0.96004627765E-02 -0.23579367013E-02  0.19183661280E-01  0.00000000000E+00 0. -1.
     999901    1    3    3    0    0 -0.43665772627E-01 -0.11901215068E+00  0.47827611944E-01  0.89036962671E+00  0.88000000000E+00 0. -1.
        -11    1    4    4    0    0  0.17515207032E-01  0.16881128318E-01 -0.54524471868E-02  0.24934820472E-01  0.51100000000E-03 0. -1.
         11    1    4    4    0    0  0.42590885211E-01  0.92530559587E-01 -0.40017228056E-01  0.10944189154E+00  0.51100000000E-03 0.  1.
</event>
<event>
 8    1  0.1161093E+005  0.1043930E+01  0.7957747E-01            NaN
         13   -1    0    0    0    0  0.00000000000E+00  0.00000000000E+00  0.74505805969E-08  0.10566000000E+00  0.10566000000E+00 0. -1.
     999900   -1    0    0    0    0 -0.00000000000E+00 -0.00000000000E+00 -0.74505805969E-08  0.93827000000E+00  0.93827000000E+00 0. -1.
     999902    2    1    2    0    0  0.97452783991E-02 -0.21465158124E-01  0.14579534348E-01  0.10162120223E+01  0.10158339372E+01 0.  0.
     999903    2    3    3    0    0 -0.38934651976E-01  0.50892948568E-01  0.10759446362E+00  0.12702294891E+00  0.21266443250E-01 0.  0.
         14    1    1    2    0    0 -0.97452783991E-02  0.21465158124E-01 -0.14579534348E-01  0.27717977671E-01  0.00000000000E+00 0.  1.
     999901    1    3    3    0    0  0.48679930375E-01 -0.72358106691E-01 -0.93014929274E-01  0.88918907342E+00  0.88000000000E+00 0. -1.
        -11    1    4    4    0    0 -0.35450808112E-01  0.37746059103E-01  0.96281749917E-01  0.10932502578E+00  0.51100000000E-03 0.  1.
         11    1    4    4    0    0 -0.34838438639E-02  0.13146889464E-01  0.11312713706E-01  0.17697923128E-01  0.51100000000E-03 0. -1.
</event>
<event>
 8    1  0.1161093E+005  0.1043930E+01  0.7957747E-01            NaN
         13   -1    0    0    0    0  0.00000000000E+00  0.00000000000E+00  0.74505805969E-08  0.10566000000E+00  0.10566000000E+00 0. -1.
     999900   -1    0    0    0    0 -0.00000000000E+00 -0.00000000000E+00 -0.74505805969E-08  0.93827000000E+00  0.93827000000E+00 0.  1.
     999902    2    1    2    0    0 -0.14398687028E-02  0.53676887991E-02 -0.23643303340E-01  0.10196423262E+01  0.10193530214E+01 0.  0.
     999903    2    3    3    0    0 -0.26559745456E-01 -0.91299195043E-01  0.82644925023E-01  0.12763745957E+00  0.20498155000E-01 0.  0.
         14    1    1    2    0    0  0.14398687028E-02 -0.53676887991E-02  0.23643303340E-01  0.24287673782E-01  0.00000000000E+00 0. -1.
     999901    1    3    3    0    0  0.25119876753E-01  0.96666883842E-01 -0.10628822836E+00  0.89200486665E+00  0.88000000000E+00 0.  1.
        -11    1    4    4    0    0 -0.21444087229E-01 -0.79353530557E-01  0.60910260298E-01  0.10230910331E+00  0.51100000000E-03 0.  1.
         11    1    4    4    0    0 -0.51156582267E-02 -0.11945664486E-01  0.21734664725E-01  0.25328356260E-01  0.51100000000E-03 0. -1.
</event>
<event>
 8    1  0.1161093E+005  0.1043930E+01  0.7957747E-01            NaN
         13   -1    0    0    0    0  0.00000000000E+00  0.00000000000E+00  0.74505805969E-08  0.10566000000E+00  0.10566000000E+00 0. -1.
     999900   -1    0    0    0    0 -0.00000000000E+00 -0.00000000000E+00 -0.74505805969E-08  0.93827000000E+00  0.93827000000E+00 0.  1.
     999902    2    1    2    0    0  0.10032969654E-01 -0.19156258535E-01 -0.94934772491E-02  0.10203132934E+01  0.10200399344E+01 0.  0.
     999903    2    3    3    0    0 -0.11608985277E+00 -0.45944952686E-01  0.30231997607E-01  0.13003091468E+00  0.20156202546E-01 0.  0.
         14    1    1    2    0    0 -0.10032969654E-01  0.19156258535E-01  0.94934772491E-02  0.23616706617E-01  0.00000000000E+00 0. -1.
     999901    1    3    3    0    0  0.12612282242E+00  0.26788694151E-01 -0.39725474857E-01  0.89028237870E+00  0.88000000000E+00 0.  1.
        -11    1    4    4    0    0 -0.21009042038E-01 -0.16362803632E-02  0.94150038411E-02  0.23085941157E-01  0.51100000000E-03 0.  1.
         11    1    4    4    0    0 -0.95080810731E-01 -0.44308672323E-01  0.20816993766E-01  0.10694497353E+00  0.51100000000E-03 0. -1.
</event>
<event>
 8    1  0.1161093E+005  0.1043930E+01  0.7957747E-01            NaN
         13   -1    0    0    0    0  0.00000000000E+00  0.00000000000E+00  0.74505805969E-08  0.10566000000E+00  0.10566000000E+00 0.  1.
     999900   -1    0    0    0    0 -0.00000000000E+00 -0.00000000000E+00 -0.74505805969E-08  0.93827000000E+00  0.93827000000E+00 0. -1.
     999902    2    1    2    0    0  0.66670406725E-02 -0.40661468798E-05  0.24434356286E-01  0.10186024021E+01  0.10182874675E+01 0.  0.
     999903    2    3    3    0    0  0.75083884267E-01 -0.33315861512E-01 -0.94978830227E-01  0.12728312749E+00  0.20796154617E-01 0.  0.
         14    1    1    2    0    0 -0.66670406725E-02  0.40661468798E-05 -0.24434356286E-01  0.25327597891E-01  0.00000000000E+00 0. -1.
     999901    1    3    3    0    0 -0.68416843595E-01  0.33311795366E-01  0.11941318651E+00  0.89131927462E+00  0.88000000000E+00 0.  1.
        -11    1    4    4    0    0  0.47917165135E-01 -0.26749023944E-01 -0.74951981558E-01  0.92895778467E-01  0.51100000000E-03 0.  1.
         11    1    4    4    0    0  0.27166719132E-01 -0.65668375681E-02 -0.20026848668E-01  0.34387349020E-01  0.51100000000E-03 0. -1.
</event>
<event>
 8    1  0.1161093E+005  0.1043930E+01  0.7957747E-01            NaN
         13   -1    0    0    0    0  0.00000000000E+00  0.00000000000E+00  0.74505805969E-08  0.10566000000E+00  0.10566000000E+00 0. -1.
     999900   -1    0    0    0    0 -0.00000000000E+00 -0.00000000000E+00 -0.74505805969E-08  0.93827000000E+00  0.93827000000E+00 0.  1.
     999902    2    1    2    0    0 -0.18512945547E-01 -0.10623953008E-01  0.97211836263E-02  0.10204758119E+01  0.10202062456E+01 0.  0.
     999903    2    3    3    0    0 -0.48682860633E-01  0.57460734584E-01 -0.10439488571E+00  0.12998817817E+00  0.18079750090E-01 0.  0.
         14    1    1    2    0    0  0.18512945547E-01  0.10623953008E-01 -0.97211836263E-02  0.23454188142E-01  0.00000000000E+00 0. -1.
     999901    1    3    3    0    0  0.30169915086E-01 -0.68084687592E-01  0.11411606934E+00  0.89048763368E+00  0.88000000000E+00 0.  1.
        -11    1    4    4    0    0  0.61380190601E-03 -0.57224050668E-03 -0.31804445365E-02  0.33287475763E-02  0.51100000000E-03 0. -1.
         11    1    4    4    0    0 -0.49296662539E-01  0.58032975091E-01 -0.10121444118E+00  0.12665943060E+00  0.51100000000E-03 0.  1.
</event>
<event>
 8    1  0.1161093E+005  0.1043930E+01  0.7957747E-01            NaN
         13   -1    0    0    0    0  0.00000000000E+00  0.00000000000E+00  0.74505805969E-08  0.10566000000E+00  0.10566000000E+00 0. -1.
     999900   -1    0    0    0    0 -0.00000000000E+00 -0.00000000000E+00 -0.74505805969E-08  0.93827000000E+00  0.93827000000E+00 0.  1.
     999902    2    1    2    0    0 -0.22358337718E-01  0.30708481354E-02  0.94415303597E-02  0.10194663970E+01  0.10191728346E+01 0.  0.
     999903    2    3    3    0    0  0.12077343962E+00 -0.27619817950E-01 -0.19658235081E-01  0.12689963819E+00  0.19183167271E-01 0.  0.
         14    1    1    2    0    0  0.22358337718E-01 -0.30708481354E-02 -0.94415303597E-02  0.24463602950E-01  0.00000000000E+00 0.  1.
     999901    1    3    3    0    0 -0.14313177733E+00  0.30690666085E-01  0.29099765441E-01  0.89256675886E+00  0.88000000000E+00 0. -1.
        -11    1    4    4    0    0  0.67652119283E-01 -0.24526721731E-01 -0.14761239453E-01  0.73461041604E-01  0.51100000000E-03 0. -1.
         11    1    4    4    0    0  0.53121320334E-01 -0.30930962184E-02 -0.48969956287E-02  0.53438596589E-01  0.51100000000E-03 0.  1.
</event>
<event>
 8    1  0.1161093E+005  0.1043930E+01  0.7957747E-01            NaN
         13   -1    0    0    0    0  0.00000000000E+00  0.00000000000E+00  0.74505805969E-08  0.10566000000E+00  0.10566000000E+00 0. -1.
     999900   -1    0    0    0    0 -0.00000000000E+00 -0.00000000000E+00 -0.74505805969E-08  0.93827000000E+00  0.93827000000E+00 0.  1.
     999902    2    1    2    0    0  0.18706516955E-01  0.63321413048E-02 -0.91749139121E-02  0.10221536634E+01  0.10219216715E+01 0.  0.
     999903    2    3    3    0    0  0.89857198213E-01 -0.42645436510E-01 -0.88231932677E-01  0.13439737096E+00  0.19617085662E-01 0.  0.
         14    1    1    2    0    0 -0.18706516955E-01 -0.63321413048E-02  0.91749139121E-02  0.21776336592E-01  0.00000000000E+00 0. -1.
     999901    1    3    3    0    0 -0.71150681258E-01  0.48977577815E-01  0.79057018765E-01  0.88775629245E+00  0.88000000000E+00 0.  1.
        -11    1    4    4    0    0  0.34071425464E-01 -0.11671240838E-01 -0.20947192368E-01  0.41666843953E-01  0.51100000000E-03 0.  1.
         11    1    4    4    0    0  0.55785772749E-01 -0.30974195672E-01 -0.67284740309E-01  0.92730527003E-01  0.51100000000E-03 0. -1.
</event>
<event>
 8    1  0.1161093E+005  0.1043930E+01  0.7957747E-01            NaN
         13   -1    0    0    0    0  0.00000000000E+00  0.00000000000E+00  0.74505805969E-08  0.10566000000E+00  0.10566000000E+00 0.  1.
     999900   -1    0    0    0    0 -0.00000000000E+00 -0.00000000000E+00 -0.74505805969E-08  0.93827000000E+00  0.93827000000E+00 0. -1.
     999902    2    1    2    0    0  0.14967335486E-03 -0.24470083549E-01  0.28254630680E-03  0.10194578276E+01  0.10191640569E+01 0.  0.
     999903    2    3    3    0    0  0.11314283519E-01  0.11393649168E+00  0.51118476122E-01  0.12712082825E+00  0.20906200664E-01 0.  0.
         14    1    1    2    0    0 -0.14967335486E-03  0.24470083549E-01 -0.28254630680E-03  0.24472172430E-01  0.00000000000E+00 0.  1.
     999901    1    3    3    0    0 -0.11164610164E-01 -0.13840657523E+00 -0.50835929815E-01  0.89233699932E+00  0.88000000000E+00 0. -1.
        -11    1    4    4    0    0 -0.59399472187E-02  0.41185456498E-01  0.18801480978E-01  0.45664883750E-01  0.51100000000E-03 0.  1.
         11    1    4    4    0    0  0.17254230737E-01  0.72751035186E-01  0.32316995145E-01  0.81455944504E-01  0.51100000000E-03 0. -1.
</event>
<event>
 8    1  0.1161093E+005  0.1043930E+01  0.7957747E-01            NaN
         13   -1    0    0    0    0  0.00000000000E+00  0.00000000000E+00  0.74505805969E-08  0.10566000000E+00  0.10566000000E+00 0. -1.
     999900   -1    0    0    0    0 -0.00000000000E+00 -0.00000000000E+00 -0.74505805969E-08  0.93827000000E+00  0.93827000000E+00 0. -1.
     999902    2    1    2    0    0  0.10171724840E-01 -0.20761371678E-01 -0.78814873129E-03  0.10207973452E+01  0.10205352028E+01 0.  0.
     999903    2    3    3    0    0  0.12260608275E-01  0.12471713542E+00  0.20724008337E-01  0.12859157724E+00  0.20040529749E-01 0.  0.
         14    1    1    2    0    0 -0.10171724840E-01  0.20761371678E-01  0.78814873129E-03  0.23132654811E-01  0.00000000000E+00 0. -1.
     999901    1    3    3    0    0 -0.20888834351E-02 -0.14547850710E+00 -0.21512157068E-01  0.89220576795E+00  0.88000000000E+00 0. -1.
        -11    1    4    4    0    0  0.15400912258E-01  0.95673760151E-01  0.98079057698E-02  0.97401810129E-01  0.51100000000E-03 0. -1.
         11    1    4    4    0    0 -0.31403039836E-02  0.29043375269E-01  0.10916102567E-01  0.31189767110E-01  0.51100000000E-03 0.  1.
</event>
<event>
 8    1  0.1161093E+005  0.1043930E+01  0.7957747E-01            NaN
         13   -1    0    0    0    0  0.00000000000E+00  0.00000000000E+00  0.74505805969E-08  0.10566000000E+00  0.10566000000E+00 0.  1.
     999900   -1    0    0    0    0 -0.00000000000E+00 -0.00000000000E+00 -0.74505805969E-08  0.93827000000E+00  0.93827000000E+00 0. -1.
     999902    2    1    2    0    0 -0.45265058001E-02  0.85636184071E-02  0.22096889797E-01  0.10198033062E+01  0.10195178694E+01 0.  0.
     999903    2    3    3    0    0 -0.33820459831E-02  0.10911662798E+00  0.72472816743E-01  0.13264494856E+00  0.20603312232E-01 0.  0.
         14    1    1    2    0    0  0.45265058001E-02 -0.85636184071E-02 -0.22096889797E-01  0.24126693799E-01  0.00000000000E+00 0. -1.
     999901    1    3    3    0    0 -0.11444598170E-02 -0.10055300957E+00 -0.50375926946E-01  0.88715835764E+00  0.88000000000E+00 0. -1.
        -11    1    4    4    0    0  0.51198511717E-02  0.78191110752E-01  0.57800798690E-01  0.97371741932E-01  0.51100000000E-03 0. -1.
         11    1    4    4    0    0 -0.85018971548E-02  0.30925517225E-01  0.14672018053E-01  0.35273206625E-01  0.51100000000E-03 0.  1.
</event>
<event>
 8    1  0.1161093E+005  0.1043930E+01  0.7957747E-01            NaN
         13   -1    0    0    0    0  0.00000000000E+00  0.00000000000E+00  0.74505805969E-08  0.10566000000E+00  0.10566000000E+00 0. -1.
     999900   -1    0    0    0    0 -0.00000000000E+00 -0.00000000000E+00 -0.74505805969E-08  0.93827000000E+00  0.93827000000E+00 0.  1.
     999902    2    1    2    0    0  0.29100491957E-01  0.12106794469E-01 -0.25873114662E-02  0.10123055271E+01  0.10118114315E+01 0.  0.
     999903    2    3    3    0    0  0.54151140158E-02  0.11089634978E+00  0.53312703528E-01  0.12469909122E+00  0.19501157387E-01 0.  0.
         14    1    1    2    0    0 -0.29100491957E-01 -0.12106794469E-01  0.25873114662E-02  0.31624472882E-01  0.00000000000E+00 0. -1.
     999901    1    3    3    0    0  0.23685377941E-01 -0.98789555312E-01 -0.55900014994E-01  0.88760643590E+00  0.88000000000E+00 0.  1.
        -11    1    4    4    0    0  0.35310950303E-02  0.15957275054E-01  0.12369095358E-02  0.16397997606E-01  0.51100000000E-03 0. -1.
         11    1    4    4    0    0  0.18840189856E-02  0.94939074727E-01  0.52075793992E-01  0.10830109362E+00  0.51100000000E-03 0.  1.
</event>
<event>
 8    1  0.1161093E+005  0.1043930E+01  0.7957747E-01            NaN
         13   -1    0    0    0    0  0.00000000000E+00  0.00000000000E+00  0.74505805969E-08  0.10566000000E+00  0.10566000000E+00 0. -1.
     999900   -1    0    0    0    0 -0.00000000000E+00 -0.00000000000E+00 -0.74505805969E-08  0.93827000000E+00  0.93827000000E+00 0.  1.
     999902    2    1    2    0    0 -0.19325404395E-01 -0.12372319825E-01  0.39890319596E-02  0.10206392738E+01  0.10203734950E+01 0.  0.
     999903    2    3    3    0    0 -0.40863031322E-01 -0.12310919089E+00 -0.21536801621E-01  0.13307063294E+00  0.20452366975E-01 0.  0.
         14    1    1    2    0    0  0.19325404395E-01  0.12372319825E-01 -0.39890319596E-02  0.23290726242E-01  0.00000000000E+00 0.  1.
     999901    1    3    3    0    0  0.21537626927E-01  0.11073687107E+00  0.25525833581E-01  0.88756864082E+00  0.88000000000E+00 0.  1.
        -11    1    4    4    0    0 -0.10289543213E-01 -0.16071951310E-01  0.22983799348E-02  0.19228260186E-01  0.51100000000E-03 0. -1.
         11    1    4    4    0    0 -0.30573488109E-01 -0.10703723958E+00 -0.23835181556E-01  0.11384237275E+00  0.51100000000E-03 0.  1.
</event>
<event>
 8    1  0.1161093E+005  0.1043930E+01  0.7957747E-01            NaN
         13   -1    0    0    0    0  0.00000000000E+00  0.00000000000E+00  0.74505805969E-08  0.10566000000E+00  0.10566000000E+00 0. -1.
     999900   -1    0    0    0    0 -0.00000000000E+00 -0.00000000000E+00 -0.74505805969E-08  0.93827000000E+00  0.93827000000E+00 0. -1.
     999902    2    1    2    0    0  0.18998768539E-01  0.13534640584E-01  0.82650315071E-02  0.10191822638E+01  0.10188817578E+01 0.  0.
     999903    2    3    3    0    0 -0.10510754423E+00  0.24431655260E-01  0.66706460851E-01  0.12848785915E+00  0.20368514799E-01 0.  0.
         14    1    1    2    0    0 -0.18998768539E-01 -0.13534640584E-01 -0.82650315071E-02  0.24747736211E-01  0.00000000000E+00 0.  1.
     999901    1    3    3    0    0  0.12410631277E+00 -0.10897014676E-01 -0.58441429344E-01  0.89069440464E+00  0.88000000000E+00 0. -1.
        -11    1    4    4    0    0 -0.88636802949E-01  0.27379191007E-01  0.52931485215E-01  0.10680873646E+00  0.51100000000E-03 0. -1.
         11    1    4    4    0    0 -0.16470741285E-01 -0.29475357468E-02  0.13774975636E-01  0.21679122681E-01  0.51100000000E-03 0.  1.
</event>
<event>
 8    1  0.1161093E+005  0.1043930E+01  0.7957747E-01            NaN
         13   -1    0    0    0    0  0.00000000000E+00  0.00000000000E+00  0.74505805969E-08  0.10566000000E+00  0.10566000000E+00 0.  1.
     999900   -1    0    0    0    0 -0.00000000000E+00 -0.00000000000E+00 -0.74505805969E-08  0.93827000000E+00  0.93827000000E+00 0.  1.
     999902    2    1    2    0    0  0.14591814857E-01 -0.11287363296E-02  0.18826882421E-01  0.10200836877E+01  0.10198049242E+01 0.  0.
     999903    2    3    3    0    0 -0.12682649286E+00  0.72524373518E-02  0.88692441969E-02  0.12869794835E+00  0.18626359754E-01 0.  0.
         14    1    1    2    0    0 -0.14591814857E-01  0.11287363296E-02 -0.18826882421E-01  0.23846312256E-01  0.00000000000E+00 0. -1.
     999901    1    3    3    0    0  0.14141830772E+00 -0.83811736815E-02  0.99576382242E-02  0.89138573939E+00  0.88000000000E+00 0. -1.
        -11    1    4    4    0    0 -0.88049996662E-01 -0.20005596200E-02  0.11078914658E-01  0.88768280495E-01  0.51100000000E-03 0.  1.
         11    1    4    4    0    0 -0.38776496202E-01  0.92529969718E-02 -0.22096704608E-02  0.39929667858E-01  0.51100000000E-03 0. -1.
</event>
<event>
 8    1  0.1161093E+005  0.1043930E+01  0.7957747E-01            NaN
         13   -1    0    0    0    0  0.00000000000E+00  0.00000000000E+00  0.74505805969E-08  0.10566000000E+00  0.10566000000E+00 0. -1.
     999900   -1    0    0    0    0 -0.00000000000E+00 -0.00000000000E+00 -0.74505805969E-08  0.93827000000E+00  0.93827000000E+00 0. -1.
     999902    2    1    2    0    0 -0.18612043187E-02 -0.23320680361E-01  0.63624276322E-02  0.10196854398E+01  0.10193971735E+01 0.  0.
     999903    2    3    3    0    0 -0.70255603780E-01 -0.10861036268E+00  0.21953026985E-01  0.13278342121E+00  0.20431368324E-01 0.  0.
         14    1    1    2    0    0  0.18612043187E-02  0.23320680361E-01 -0.63624276322E-02  0.24244560202E-01  0.00000000000E+00 0.  1.
     999901    1    3    3    0    0  0.68394399461E-01  0.85289682315E-01 -0.15590599353E-01  0.88690201859E+00  0.88000000000E+00 0.  1.
        -11    1    4    4    0    0 -0.37395495169E-01 -0.71869354220E-01  0.20001569818E-01  0.83450290899E-01  0.51100000000E-03 0.  1.
         11    1    4    4    0    0 -0.32860108611E-01 -0.36741008455E-01  0.19514571666E-02  0.49333130311E-01  0.51100000000E-03 0. -1.
</event>
<event>
 8    1  0.1161093E+005  0.1043930E+01  0.7957747E-01            NaN
         13   -1    0    0    0    0  0.00000000000E+00  0.00000000000E+00  0.74505805969E-08  0.10566000000E+00  0.10566000000E+00 0.  1.
     999900   -1    0    0    0    0 -0.00000000000E+00 -0.00000000000E+00 -0.74505805969E-08  0.93827000000E+00  0.93827000000E+00 0. -1.
     999902    2    1    2    0    0 -0.24174318880E-01 -0.95842351015E-02  0.25038715299E-03  0.10179238863E+01  0.10175916275E+01 0.  0.
     999903    2    3    3    0    0 -0.79716667055E-01  0.94257852011E-01  0.33890441703E-01  0.12944215618E+00  0.19168205064E-01 0.  0.
         14    1    1    2    0    0  0.24174318880E-01  0.95842351015E-02 -0.25038715299E-03  0.26006113695E-01  0.00000000000E+00 0.  1.
     999901    1    3    3    0    0  0.55542348175E-01 -0.10384208711E+00 -0.33640054550E-01  0.88848173013E+00  0.88000000000E+00 0.  1.
        -11    1    4    4    0    0 -0.63120769206E-01  0.65529140599E-01  0.18425195227E-01  0.92833446090E-01  0.51100000000E-03 0. -1.
         11    1    4    4    0    0 -0.16595897849E-01  0.28728711413E-01  0.15465246476E-01  0.36608710089E-01  0.51100000000E-03 0.  1.
</event>
<event>
 8    1  0.1161093E+005  0.1043930E+01  0.7957747E-01            NaN
         13   -1    0    0    0    0  0.00000000000E+00  0.00000000000E+00  0.74505805969E-08  0.10566000000E+00  0.10566000000E+00 0. -1.
     999900   -1    0    0    0    0 -0.00000000000E+00 -0.00000000000E+00 -0.74505805969E-08  0.93827000000E+00  0.93827000000E+00 0.  1.
     999902    2    1    2    0    0  0.56220534100E-02  0.88735568874E-02  0.21740329039E-01  0.10197848265E+01  0.10194989470E+01 0.  0.
     999903    2    3    3    0    0 -0.93081510086E-01 -0.63888973610E-01  0.61895329321E-01  0.13037535762E+00  0.20511792086E-01 0.  0.
         14    1    1    2    0    0 -0.56220534100E-02 -0.88735568874E-02 -0.21740329039E-01  0.24145173495E-01  0.00000000000E+00 0.  1.
     999901    1    3    3    0    0  0.98703563496E-01  0.72762530497E-01 -0.40155000282E-01  0.88940946888E+00  0.88000000000E+00 0.  1.
        -11    1    4    4    0    0 -0.41938670578E-01 -0.39740862683E-01  0.25787595073E-01  0.63272817523E-01  0.51100000000E-03 0. -1.
         11    1    4    4    0    0 -0.51142839508E-01 -0.24148110927E-01  0.36107734248E-01  0.67102540099E-01  0.51100000000E-03 0.  1.
</event>
<event>
 8    1  0.1161093E+005  0.1043930E+01  0.7957747E-01            NaN
         13   -1    0    0    0    0  0.00000000000E+00  0.00000000000E+00  0.74505805969E-08  0.10566000000E+00  0.10566000000E+00 0. -1.
     999900   -1    0    0    0    0 -0.00000000000E+00 -0.00000000000E+00 -0.74505805969E-08  0.93827000000E+00  0.93827000000E+00 0. -1.
     999902    2    1    2    0    0  0.15575680199E-01  0.21875757566E-01 -0.16571040747E-01  0.10123744938E+01  0.10118825849E+01 0.  0.
     999903    2    3    3    0    0 -0.71586557926E-01 -0.86148697649E-01 -0.41821424682E-01  0.12113708399E+00  0.19466077495E-01 0.  0.
         14    1    1    2    0    0 -0.15575680199E-01 -0.21875757566E-01  0.16571040747E-01  0.31555506242E-01  0.00000000000E+00 0.  1.
     999901    1    3    3    0    0  0.87162238126E-01  0.10802445521E+00  0.25250383935E-01  0.89123740977E+00  0.88000000000E+00 0.  1.
        -11    1    4    4    0    0 -0.22234593609E-01 -0.38217450522E-01 -0.22837672612E-01  0.49767168783E-01  0.51100000000E-03 0. -1.
         11    1    4    4    0    0 -0.49351964317E-01 -0.47931247127E-01 -0.18983752070E-01  0.71369915208E-01  0.51100000000E-03 0.  1.
</event>
<event>
 8    1  0.1161093E+005  0.1043930E+01  0.7957747E-01            NaN
         13   -1    0    0    0    0  0.00000000000E+00  0.00000000000E+00  0.74505805969E-08  0.10566000000E+00  0.10566000000E+00 0. -1.
     999900   -1    0    0    0    0 -0.00000000000E+00 -0.00000000000E+00 -0.74505805969E-08  0.93827000000E+00  0.93827000000E+00 0. -1.
     999902    2    1    2    0    0 -0.15474197352E-01 -0.23719469619E-02  0.26967224084E-01  0.10127481448E+01  0.10122679965E+01 0.  0.
     999903    2    3    3    0    0  0.10519783169E+00 -0.55108302889E-01 -0.18057367232E-01  0.12181039413E+00  0.20203830492E-01 0.  0.
         14    1    1    2    0    0  0.15474197352E-01  0.23719469619E-02 -0.26967224084E-01  0.31181855155E-01  0.00000000000E+00 0.  1.
     999901    1    3    3    0    0 -0.12067202904E+00  0.52736355927E-01  0.45024591316E-01  0.89093775072E+00  0.88000000000E+00 0.  1.
        -11    1    4    4    0    0  0.34788454199E-01 -0.20805102004E-01  0.31701527531E-02  0.40662019188E-01  0.51100000000E-03 0. -1.
         11    1    4    4    0    0  0.70409377492E-01 -0.34303200884E-01 -0.21227519985E-01  0.81148374940E-01  0.51100000000E-03 0.  1.
</event>
<event>
 8    1  0.1161093E+005  0.1043930E+01  0.7957747E-01            NaN
         13   -1    0    0    0    0  0.00000000000E+00  0.00000000000E+00  0.74505805969E-08  0.10566000000E+00  0.10566000000E+00 0.  1.
     999900   -1    0    0    0    0 -0.00000000000E+00 -0.00000000000E+00 -0.74505805969E-08  0.93827000000E+00  0.93827000000E+00 0. -1.
     999902    2    1    2    0    0  0.16862812946E-01 -0.11040663236E-01  0.12312971655E-01  0.10203109404E+01  0.10200375263E+01 0.  0.
     999903    2    3    3    0    0  0.11489267194E+00 -0.11324480673E-01  0.63349242821E-01  0.13339796002E+00  0.21291294983E-01 0.  0.
         14    1    1    2    0    0 -0.16862812946E-01  0.11040663236E-01 -0.12312971655E-01  0.23619059595E-01  0.00000000000E+00 0.  1.
     999901    1    3    3    0    0 -0.98029858996E-01  0.28381743685E-03 -0.51036271165E-01  0.88691298039E+00  0.88000000000E+00 0. -1.
        -11    1    4    4    0    0  0.65550035420E-01 -0.20745494369E-02  0.46669909353E-01  0.80495046177E-01  0.51100000000E-03 0.  1.
         11    1    4    4    0    0  0.49342636522E-01 -0.92499312361E-02  0.16679333468E-01  0.52902913840E-01  0.51100000000E-03 0. -1.
</event>
<event>
 8    1  0.1161093E+005  0.1043930E+01  0.7957747E-01            NaN
         13   -1    0    0    0    0  0.00000000000E+00  0.00000000000E+00  0.74505805969E-08  0.10566000000E+00  0.10566000000E+00 0.  1.
     999900   -1    0    0    0    0 -0.00000000000E+00 -0.00000000000E+00 -0.74505805969E-08  0.93827000000E+00  0.93827000000E+00 0. -1.
     999902    2    1    2    0    0 -0.21434825293E-01 -0.16683898613E-02 -0.11560641004E-01  0.10195192712E+01  0.10192269917E+01 0.  0.
     999903    2    3    3    0    0  0.67862531495E-01  0.97561692972E-01 -0.45643122762E-01  0.12879920135E+00  0.19553324452E-01 0.  0.
         14    1    1    2    0    0  0.21434825293E-01  0.16683898613E-02  0.11560641004E-01  0.24410728799E-01  0.00000000000E+00 0.  1.
     999901    1    3    3    0    0 -0.89297356787E-01 -0.99230082833E-01  0.34082481758E-01  0.89072006985E+00  0.88000000000E+00 0.  1.
        -11    1    4    4    0    0  0.49104550639E-01  0.54725785553E-01 -0.30981463555E-01  0.79788976073E-01  0.51100000000E-03 0.  1.
         11    1    4    4    0    0  0.18757980856E-01  0.42835907419E-01 -0.14661659207E-01  0.49010225280E-01  0.51100000000E-03 0. -1.
</event>
<event>
 8    1  0.1161093E+005  0.1043930E+01  0.7957747E-01            NaN
         13   -1    0    0    0    0  0.00000000000E+00  0.00000000000E+00  0.74505805969E-08  0.10566000000E+00  0.10566000000E+00 0.  1.
     999900   -1    0    0    0    0 -0.00000000000E+00 -0.00000000000E+00 -0.74505805969E-08  0.93827000000E+00  0.93827000000E+00 0. -1.
     999902    2    1    2    0    0  0.46088324554E-02 -0.60597582645E-02  0.32815161287E-01  0.10102432546E+01  0.10096814530E+01 0.  0.
     999903    2    3    3    0    0  0.11916289564E+00 -0.17569198307E-01  0.46920503808E-02  0.12229843086E+00  0.20649901355E-01 0.  0.
         14    1    1    2    0    0 -0.46088324554E-02  0.60597582645E-02 -0.32815161287E-01  0.33686745422E-01  0.00000000000E+00 0. -1.
     999901    1    3    3    0    0 -0.11455406319E+00  0.11509440043E-01  0.28123110907E-01  0.88794482372E+00  0.88000000000E+00 0.  1.
        -11    1    4    4    0    0  0.25471179575E-01 -0.80310526852E-03 -0.69191940540E-02  0.26411405384E-01  0.51100000000E-03 0. -1.
         11    1    4    4    0    0  0.93691716070E-01 -0.16766093039E-01  0.11611244435E-01  0.95887025474E-01  0.51100000000E-03 0.  1.
</event>
<event>
 8    1  0.1161093E+005  0.1043930E+01  0.7957747E-01            NaN
         13   -1    0    0    0    0  0.00000000000E+00  0.00000000000E+00  0.74505805969E-08  0.10566000000E+00  0.10566000000E+00 0.  1.
     999900   -1    0    0    0    0 -0.00000000000E+00 -0.00000000000E+00 -0.74505805969E-08  0.93827000000E+00  0.93827000000E+00 0. -1.
     999902    2    1    2    0    0  0.11806261617E-01 -0.21791604685E-01 -0.19063474691E-02  0.10190724859E+01  0.10187692749E+01 0.  0.
     999903    2    3    3    0    0  0.12665212267E+00  0.59224174833E-02 -0.26025992979E-01  0.13084988082E+00  0.19196452664E-01 0.  0.
         14    1    1    2    0    0 -0.11806261617E-01  0.21791604685E-01  0.19063474691E-02  0.24857514132E-01  0.00000000000E+00 0. -1.
     999901    1    3    3    0    0 -0.11484586105E+00 -0.27714022169E-01  0.24119645510E-01  0.88822260505E+00  0.88000000000E+00 0. -1.
        -11    1    4    4    0    0  0.71001157316E-01 -0.35736890692E-02 -0.77812288737E-02  0.71517440093E-01  0.51100000000E-03 0.  1.
         11    1    4    4    0    0  0.55650965350E-01  0.94961065524E-02 -0.18244764105E-01  0.59332440724E-01  0.51100000000E-03 0. -1.
</event>
<event>
 8    1  0.1161093E+005  0.1043930E+01  0.7957747E-01            NaN
         13   -1    0    0    0    0  0.00000000000E+00  0.00000000000E+00  0.74505805969E-08  0.10566000000E+00  0.10566000000E+00 0.  1.
     999900   -1    0    0    0    0 -0.00000000000E+00 -0.00000000000E+00 -0.74505805969E-08  0.93827000000E+00  0.93827000000E+00 0.  1.
     999902    2    1    2    0    0 -0.46390255959E-02 -0.24771281881E-01  0.11397557779E-01  0.10162706203E+01  0.10158941541E+01 0.  0.
     999903    2    3    3    0    0 -0.10736196432E+00  0.18231388609E-01  0.65488181100E-01  0.12760475091E+00  0.11631667034E-01 0.  0.
         14    1    1    2    0    0  0.46390255959E-02  0.24771281881E-01 -0.11397557779E-01  0.27659379744E-01  0.00000000000E+00 0. -1.
     999901    1    3    3    0    0  0.10272293872E+00 -0.43002670489E-01 -0.54090623321E-01  0.88866586935E+00  0.88000000000E+00 0. -1.
        -11    1    4    4    0    0 -0.70315061406E-01  0.65302686185E-02  0.43980692514E-01  0.83195040139E-01  0.51100000000E-03 0. -1.
         11    1    4    4    0    0 -0.37046902913E-01  0.11701119990E-01  0.21507488586E-01  0.44409710771E-01  0.51100000000E-03 0.  1.
</event>
<event>
 8    1  0.1161093E+005  0.1043930E+01  0.7957747E-01            NaN
         13   -1    0    0    0    0  0.00000000000E+00  0.00000000000E+00  0.74505805969E-08  0.10566000000E+00  0.10566000000E+00 0.  1.
     999900   -1    0    0    0    0 -0.00000000000E+00 -0.00000000000E+00 -0.74505805969E-08  0.93827000000E+00  0.93827000000E+00 0. -1.
     999902    2    1    2    0    0 -0.18766235682E-01  0.14285768361E-01  0.39561476094E-02  0.10200154462E+01  0.10197350659E+01 0.  0.
     999903    2    3    3    0    0 -0.76809603518E-02 -0.99643055674E-01  0.80012685637E-01  0.12934869750E+00  0.18474847372E-01 0.  0.
         14    1    1    2    0    0  0.18766235682E-01 -0.14285768361E-01 -0.39561476094E-02  0.23914553796E-01  0.00000000000E+00 0.  1.
     999901    1    3    3    0    0 -0.11085275331E-01  0.11392882404E+00 -0.76056538028E-01  0.89066674871E+00  0.88000000000E+00 0. -1.
        -11    1    4    4    0    0  0.56215611399E-02 -0.37327752384E-01  0.26309774434E-01  0.46015523462E-01  0.51100000000E-03 0. -1.
         11    1    4    4    0    0 -0.13302521492E-01 -0.62315303290E-01  0.53702911203E-01  0.83333174035E-01  0.51100000000E-03 0.  1.
</event>
<event>
 8    1  0.1161093E+005  0.1043930E+01  0.7957747E-01            NaN
         13   -1    0    0    0    0  0.00000000000E+00  0.00000000000E+00  0.74505805969E-08  0.10566000000E+00  0.10566000000E+00 0.  1.
     999900   -1    0    0    0    0 -0.00000000000E+00 -0.00000000000E+00 -0.74505805969E-08  0.93827000000E+00  0.93827000000E+00 0. -1.
     999902    2    1    2    0    0 -0.10803751143E-01  0.12754977445E-01  0.13191661578E-01  0.10226360942E+01  0.10224143733E+01 0.  0.
     999903    2    3    3    0    0  0.12440219613E+00 -0.28023672701E-01 -0.20582978803E-01  0.13073684384E+00  0.20179957575E-01 0.  0.
         14    1    1    2    0    0  0.10803751143E-01 -0.12754977445E-01 -0.13191661578E-01  0.21293905785E-01  0.00000000000E+00 0. -1.
     999901    1    3    3    0    0 -0.13520594727E+00  0.40778650146E-01  0.33774640381E-01  0.89189925037E+00  0.88000000000E+00 0.  1.
        -11    1    4    4    0    0  0.94917713186E-01 -0.29468171731E-01 -0.12840023747E-01  0.10021413449E+00  0.51100000000E-03 0. -1.
         11    1    4    4    0    0  0.29484482942E-01  0.14444990300E-02 -0.77429550555E-02  0.30522709346E-01  0.51100000000E-03 0.  1.
</event>
<event>
 8    1  0.1161093E+005  0.1043930E+01  0.7957747E-01            NaN
         13   -1    0    0    0    0  0.00000000000E+00  0.00000000000E+00  0.74505805969E-08  0.10566000000E+00  0.10566000000E+00 0.  1.
     999900   -1    0    0    0    0 -0.00000000000E+00 -0.00000000000E+00 -0.74505805969E-08  0.93827000000E+00  0.93827000000E+00 0.  1.
     999902    2    1    2    0    0  0.10977210257E-01 -0.15404378979E-01 -0.14515344702E-01  0.10200869870E+01  0.10198083015E+01 0.  0.
     999903    2    3    3    0    0 -0.11797055904E+00  0.19277410928E-01  0.41146731039E-01  0.12827499985E+00  0.21742831902E-01 0.  0.
         14    1    1    2    0    0 -0.10977210257E-01  0.15404378979E-01  0.14515344702E-01  0.23843012993E-01  0.00000000000E+00 0.  1.
     999901    1    3    3    0    0  0.12894776930E+00 -0.34681789907E-01 -0.55662075742E-01  0.89181198716E+00  0.88000000000E+00 0.  1.
        -11    1    4    4    0    0 -0.39944681651E-01  0.15162329651E-01  0.83592056264E-02  0.43538618172E-01  0.51100000000E-03 0. -1.
         11    1    4    4    0    0 -0.78025877390E-01  0.41150812774E-02  0.32787525413E-01  0.84736381679E-01  0.51100000000E-03 0.  1.
</event>
<event>
 8    1  0.1161093E+005  0.1043930E+01  0.7957747E-01            NaN
         13   -1    0    0    0    0  0.00000000000E+00  0.00000000000E+00  0.74505805969E-08  0.10566000000E+00  0.10566000000E+00 0.  1.
     999900   -1    0    0    0    0 -0.00000000000E+00 -0.00000000000E+00 -0.74505805969E-08  0.93827000000E+00  0.93827000000E+00 0.  1.
     999902    2    1    2    0    0  0.57277528130E-02  0.22579943925E-01  0.33691203147E-03  0.10206324780E+01  0.10203665423E+01 0.  0.
     999903    2    3    3    0    0 -0.49866726978E-01  0.93495679610E-01 -0.77436826222E-01  0.13261865939E+00  0.19055555539E-01 0.  0.
         14    1    1    2    0    0 -0.57277528130E-02 -0.22579943925E-01 -0.33691203147E-03  0.23297521964E-01  0.00000000000E+00 0.  1.
     999901    1    3    3    0    0  0.55594479791E-01 -0.70915735685E-01  0.77773738253E-01  0.88801381865E+00  0.88000000000E+00 0. -1.
        -11    1    4    4    0    0 -0.17206416571E-01  0.44171469813E-01 -0.25153664876E-01  0.53667005640E-01  0.51100000000E-03 0. -1.
         11    1    4    4    0    0 -0.32660310407E-01  0.49324209797E-01 -0.52283161346E-01  0.78951653746E-01  0.51100000000E-03 0.  1.
</event>
<event>
 7    1  0.1161093E+005  0.1043930E+01  0.7957747E-01            NaN
         13   -1    0    0    0    0  0.00000000000E+00  0.00000000000E+00  0.74505805969E-08  0.10566000000E+00  0.10566000000E+00 0. -1.
     999900   -1    0    0    0    0 -0.00000000000E+00 -0.00000000000E+00 -0.74505805969E-08  0.93827000000E+00  0.93827000000E+00 0. -1.
     999903    2    1    2    0    0 -0.66161956925E-01 -0.73189780130E-01 -0.57141697262E-01  0.11574341327E+00  0.19930270707E-01 0.  0.
         14    1    1    2    0    0  0.40216119913E-01  0.10212514915E-01 -0.11006597699E-01  0.42927578020E-01  0.00000000000E+00 0. -1.
     999901    1    1    2    0    0  0.25945837012E-01  0.62977265214E-01  0.68148294961E-01  0.88525900871E+00  0.88000000000E+00 0.  1.
        -11    1    3    3    0    0 -0.28876659824E-01 -0.39760322575E-01 -0.38036055533E-01  0.62142959177E-01  0.51100000000E-03 0. -1.
         11    1    3    3    0    0 -0.37285297101E-01 -0.33429457555E-01 -0.19105641729E-01  0.53600454095E-01  0.51100000000E-03 0.  1.
</event>
<event>
 8    1  0.1161093E+005  0.1043930E+01  0.7957747E-01            NaN
         13   -1    0    0    0    0  0.00000000000E+00  0.00000000000E+00  0.74505805969E-08  0.10566000000E+00  0.10566000000E+00 0.  1.
     999900   -1    0    0    0    0 -0.00000000000E+00 -0.00000000000E+00 -0.74505805969E-08  0.93827000000E+00  0.93827000000E+00 0.  1.
     999902    2    1    2    0    0  0.38675498491E-02  0.19099965424E-01  0.36225560035E-02  0.10241085588E+01  0.10239167205E+01 0.  0.
     999903    2    3    3    0    0 -0.52014589131E-02 -0.99149321946E-01  0.85610404693E-01  0.13237589242E+00  0.18346451544E-01 0.  0.
         14    1    1    2    0    0 -0.38675498491E-02 -0.19099965424E-01 -0.36225560035E-02  0.19821441245E-01  0.00000000000E+00 0.  1.
     999901    1    3    3    0    0  0.90690087622E-02  0.11824928737E+00 -0.81987848689E-01  0.89173266634E+00  0.88000000000E+00 0.  1.
        -11    1    4    4    0    0 -0.73450938255E-02 -0.97970660278E-01  0.81922056032E-01  0.12792062017E+00  0.51100000000E-03 0.  1.
         11    1    4    4    0    0  0.21436349124E-02 -0.11786616675E-02  0.36883486607E-02  0.44552722484E-02  0.51100000000E-03 0. -1.
</event>
<event>
 8    1  0.1161093E+005  0.1043930E+01  0.7957747E-01            NaN
         13   -1    0    0    0    0  0.00000000000E+00  0.00000000000E+00  0.74505805969E-08  0.10566000000E+00  0.10566000000E+00 0.  1.
     999900   -1    0    0    0    0 -0.00000000000E+00 -0.00000000000E+00 -0.74505805969E-08  0.93827000000E+00  0.93827000000E+00 0. -1.
     999902    2    1    2    0    0 -0.62001166231E-02 -0.21481713886E-01 -0.26789780644E-02  0.10214115098E+01  0.10211632533E+01 0.  0.
     999903    2    3    3    0    0  0.48205436265E-02 -0.10471309620E+00  0.80450587020E-01  0.13351543336E+00  0.19131226761E-01 0.  0.
         14    1    1    2    0    0  0.62001166231E-02  0.21481713886E-01  0.26789780644E-02  0.22518490204E-01  0.00000000000E+00 0. -1.
     999901    1    3    3    0    0 -0.11020660250E-01  0.83231382315E-01 -0.83129565084E-01  0.88789607643E+00  0.88000000000E+00 0. -1.
        -11    1    4    4    0    0  0.31828614414E-02 -0.39550482650E-01  0.19256356435E-01  0.44107138526E-01  0.51100000000E-03 0. -1.
         11    1    4    4    0    0  0.16376821851E-02 -0.65162613550E-01  0.61194230585E-01  0.89408294836E-01  0.51100000000E-03 0.  1.
</event>
<event>
 8    1  0.1161093E+005  0.1043930E+01  0.7957747E-01            NaN
         13   -1    0    0    0    0  0.00000000000E+00  0.00000000000E+00  0.74505805969E-08  0.10566000000E+00  0.10566000000E+00 0.  1.
     999900   -1    0    0    0    0 -0.00000000000E+00 -0.00000000000E+00 -0.74505805969E-08  0.93827000000E+00  0.93827000000E+00 0.  1.
     999902    2    1    2    0    0  0.10074380080E-01 -0.20649479544E-01 -0.82555457233E-02  0.10195159021E+01  0.10192235410E+01 0.  0.
     999903    2    3    3    0    0  0.27996042633E-01  0.11639506860E+00  0.39106801653E-01  0.12747017118E+00  0.19690408992E-01 0.  0.
         14    1    1    2    0    0 -0.10074380080E-01  0.20649479544E-01  0.82555457233E-02  0.24414097866E-01  0.00000000000E+00 0.  1.
     999901    1    3    3    0    0 -0.17921662552E-01 -0.13704454815E+00 -0.47362347376E-01  0.89204573095E+00  0.88000000000E+00 0.  1.
        -11    1    4    4    0    0  0.28978674988E-01  0.83455204073E-01  0.29505407870E-01  0.93141638946E-01  0.51100000000E-03 0.  1.
         11    1    4    4    0    0 -0.98263235513E-03  0.32939864531E-01  0.96013937825E-02  0.34328532232E-01  0.51100000000E-03 0. -1.
</event>
<event>
 8    1  0.1161093E+005  0.1043930E+01  0.7957747E-01            NaN
         13   -1    0    0    0    0  0.00000000000E+00  0.00000000000E+00  0.74505805969E-08  0.10566000000E+00  0.10566000000E+00 0.  1.
     999900   -1    0    0    0    0 -0.00000000000E+00 -0.00000000000E+00 -0.74505805969E-08  0.93827000000E+00  0.93827000000E+00 0.  1.
     999902    2    1    2    0    0 -0.25070025745E-01 -0.40428304754E-02  0.20822170723E-04  0.10185360814E+01  0.10182194744E+01 0.  0.
     999903    2    3    3    0    0  0.63800547932E-01 -0.84936317702E-01 -0.68285759625E-01  0.12774568839E+00  0.19269871629E-01 0.  0.
         14    1    1    2    0    0  0.25070025745E-01  0.40428304754E-02 -0.20822170723E-04  0.25393918616E-01  0.00000000000E+00 0. -1.
     999901    1    3    3    0    0 -0.88870573677E-01  0.80893487226E-01  0.68306581796E-01  0.89079039300E+00  0.88000000000E+00 0.  1.
        -11    1    4    4    0    0  0.25583417306E-01 -0.39783822299E-01 -0.41004376908E-01  0.62600988845E-01  0.51100000000E-03 0.  1.
         11    1    4    4    0    0  0.38217130626E-01 -0.45152495402E-01 -0.27281382717E-01  0.65144699541E-01  0.51100000000E-03 0. -1.
</event>
<event>
 8    1  0.1161093E+005  0.1043930E+01  0.7957747E-01            NaN
         13   -1    0    0    0    0  0.00000000000E+00  0.00000000000E+00  0.74505805969E-08  0.10566000000E+00  0.10566000000E+00 0.  1.
     999900   -1    0    0    0    0 -0.00000000000E+00 -0.00000000000E+00 -0.74505805969E-08  0.93827000000E+00  0.93827000000E+00 0.  1.
     999902    2    1    2    0    0 -0.17065460299E-01  0.48848663061E-02  0.15211990536E-01  0.10205527352E+01  0.10202849547E+01 0.  0.
     999903    2    3    3    0    0 -0.20208697616E-01 -0.10373682256E+00 -0.72394172362E-01  0.12955139343E+00  0.19311331731E-01 0.  0.
         14    1    1    2    0    0  0.17065460299E-01 -0.48848663061E-02 -0.15211990536E-01  0.23377264813E-01  0.00000000000E+00 0.  1.
     999901    1    3    3    0    0  0.31432373167E-02  0.10862168887E+00  0.87606162898E-01  0.89100134176E+00  0.88000000000E+00 0. -1.
        -11    1    4    4    0    0 -0.18499816485E-01 -0.86150193311E-01 -0.68090152119E-01  0.11135811131E+00  0.51100000000E-03 0.  1.
         11    1    4    4    0    0 -0.17088811313E-02 -0.17586629251E-01 -0.43040202429E-02  0.18193282123E-01  0.51100000000E-03 0. -1.
</event>
<event>
 8    1  0.1161093E+005  0.1043930E+01  0.7957747E-01            NaN
         13   -1    0    0    0    0  0.00000000000E+00  0.00000000000E+00  0.74505805969E-08  0.10566000000E+00  0.10566000000E+00 0. -1.
     999900   -1    0    0    0    0 -0.00000000000E+00 -0.00000000000E+00 -0.74505805969E-08  0.93827000000E+00  0.93827000000E+00 0. -1.
     999902    2    1    2    0    0 -0.84427901423E-02 -0.16385430808E-01  0.16085323749E-01  0.10194657263E+01  0.10191721476E+01 0.  0.
     999903    2    3    3    0    0 -0.63918997873E-01  0.72191873534E-02  0.11337651651E+00  0.13205355384E+00  0.21122301748E-01 0.  0.
         14    1    1    2    0    0  0.84427901423E-02  0.16385430808E-01 -0.16085323749E-01  0.24464273712E-01  0.00000000000E+00 0. -1.
     999901    1    3    3    0    0  0.55476207731E-01 -0.23604618162E-01 -0.97291192757E-01  0.88741217245E+00  0.88000000000E+00 0. -1.
        -11    1    4    4    0    0 -0.29918845243E-01 -0.69035085276E-02  0.46857470808E-01  0.56023918305E-01  0.51100000000E-03 0. -1.
         11    1    4    4    0    0 -0.34000152630E-01  0.14122695881E-01  0.66519045698E-01  0.76029635534E-01  0.51100000000E-03 0.  1.
</event>
<event>
 8    1  0.1161093E+005  0.1043930E+01  0.7957747E-01            NaN
         13   -1    0    0    0    0  0.00000000000E+00  0.00000000000E+00  0.74505805969E-08  0.10566000000E+00  0.10566000000E+00 0. -1.
     999900   -1    0    0    0    0 -0.00000000000E+00 -0.00000000000E+00 -0.74505805969E-08  0.93827000000E+00  0.93827000000E+00 0.  1.
     999902    2    1    2    0    0  0.24144061984E-01 -0.23415416763E-02 -0.68916548986E-02  0.10187126755E+01  0.10184005115E+01 0.  0.
     999903    2    3    3    0    0  0.90000147006E-01 -0.85007323578E-02  0.92204779781E-01  0.13068392434E+00  0.20106659458E-01 0.  0.
         14    1    1    2    0    0 -0.24144061984E-01  0.23415416763E-02  0.68916548986E-02  0.25217324476E-01  0.00000000000E+00 0. -1.
     999901    1    3    3    0    0 -0.65856085022E-01  0.61591906815E-02 -0.99096434680E-01  0.88802875118E+00  0.88000000000E+00 0.  1.
        -11    1    4    4    0    0  0.49375127702E-01  0.42986473891E-02  0.43149260870E-01  0.65715305977E-01  0.51100000000E-03 0. -1.
         11    1    4    4    0    0  0.40625019304E-01 -0.12799379747E-01  0.49055518911E-01  0.64968618362E-01  0.51100000000E-03 0.  1.
</event>
<event>
 8    1  0.1161093E+005  0.1043930E+01  0.7957747E-01            NaN
         13   -1    0    0    0    0  0.00000000000E+00  0.00000000000E+00  0.74505805969E-08  0.10566000000E+00  0.10566000000E+00 0. -1.
     999900   -1    0    0    0    0 -0.00000000000E+00 -0.00000000000E+00 -0.74505805969E-08  0.93827000000E+00  0.93827000000E+00 0. -1.
     999902    2    1    2    0    0  0.14363034926E-01  0.18981310626E-01 -0.12608041219E-02  0.10200935457E+01  0.10198150153E+01 0.  0.
     999903    2    3    3    0    0 -0.74635982647E-01  0.32355814342E-01 -0.99510386543E-01  0.13006394907E+00  0.19921977561E-01 0.  0.
         14    1    1    2    0    0 -0.14363034926E-01 -0.18981310626E-01  0.12608041219E-02  0.23836454275E-01  0.00000000000E+00 0.  1.
     999901    1    3    3    0    0  0.88999017573E-01 -0.13374503716E-01  0.98249582421E-01  0.89002959666E+00  0.88000000000E+00 0.  1.
        -11    1    4    4    0    0 -0.61575209676E-01  0.30959049024E-01 -0.91905124759E-01  0.11487724858E+00  0.51100000000E-03 0.  1.
         11    1    4    4    0    0 -0.13060772971E-01  0.13967653172E-02 -0.76052617841E-02  0.15186700489E-01  0.51100000000E-03 0. -1.
</event>
<event>
 8    1  0.1161093E+005  0.1043930E+01  0.7957747E-01            NaN
         13   -1    0    0    0    0  0.00000000000E+00  0.00000000000E+00  0.74505805969E-08  0.10566000000E+00  0.10566000000E+00 0.  1.
     999900   -1    0    0    0    0 -0.00000000000E+00 -0.00000000000E+00 -0.74505805969E-08  0.93827000000E+00  0.93827000000E+00 0. -1.
     999902    2    1    2    0    0 -0.11807300804E-01 -0.42248294979E-02 -0.18016624083E-01  0.10219786839E+01  0.10217429080E+01 0.  0.
     999903    2    3    3    0    0 -0.66255477497E-01 -0.94086381156E-01 -0.66557232550E-01  0.13440001520E+00  0.19785435613E-01 0.  0.
         14    1    1    2    0    0  0.11807300804E-01  0.42248294979E-02  0.18016624083E-01  0.21951316132E-01  0.00000000000E+00 0.  1.
     999901    1    3    3    0    0  0.54448176693E-01  0.89861551658E-01  0.48540608468E-01  0.88757866867E+00  0.88000000000E+00 0.  1.
        -11    1    4    4    0    0 -0.29252427227E-01 -0.42018450251E-01 -0.18417201905E-01  0.54412398469E-01  0.51100000000E-03 0. -1.
         11    1    4    4    0    0 -0.37003050271E-01 -0.52067930906E-01 -0.48140030646E-01  0.79987616727E-01  0.51100000000E-03 0.  1.
</event>
<event>
 8    1  0.1161093E+005  0.1043930E+01  0.7957747E-01            NaN
         13   -1    0    0    0    0  0.00000000000E+00  0.00000000000E+00  0.74505805969E-08  0.10566000000E+00  0.10566000000E+00 0.  1.
     999900   -1    0    0    0    0 -0.00000000000E+00 -0.00000000000E+00 -0.74505805969E-08  0.93827000000E+00  0.93827000000E+00 0.  1.
     999902    2    1    2    0    0  0.17839798294E-01 -0.13804045247E-01  0.65400310549E-02  0.10204442155E+01  0.10201739140E+01 0.  0.
     999903    2    3    3    0    0  0.10490703217E+00  0.40533650826E-01  0.68471548268E-01  0.13231764722E+00  0.13082224430E-01 0.  0.
         14    1    1    2    0    0 -0.17839798294E-01  0.13804045247E-01 -0.65400310549E-02  0.23485784520E-01  0.00000000000E+00 0. -1.
     999901    1    3    3    0    0 -0.87067233871E-01 -0.54337696073E-01 -0.61931517213E-01  0.88812656826E+00  0.88000000000E+00 0.  1.
        -11    1    4    4    0    0  0.30962252964E-01  0.18174805188E-01  0.19658279448E-01  0.40935238171E-01  0.51100000000E-03 0.  1.
         11    1    4    4    0    0  0.73944779201E-01  0.22358845638E-01  0.48813268820E-01  0.91382409047E-01  0.51100000000E-03 0. -1.
</event>
<event>
 8    1  0.1161093E+005  0.1043930E+01  0.7957747E-01            NaN
         13   -1    0    0    0    0  0.00000000000E+00  0.00000000000E+00  0.74505805969E-08  0.10566000000E+00  0.10566000000E+00 0.  1.
     999900   -1    0    0    0    0 -0.00000000000E+00 -0.00000000000E+00 -0.74505805969E-08  0.93827000000E+00  0.93827000000E+00 0.  1.
     999902    2    1    2    0    0  0.10870292932E-01 -0.14932827629E-01  0.15827129717E-01  0.10196061301E+01  0.10193159520E+01 0.  0.
     999903    2    3    3    0    0 -0.45573509052E-01 -0.28862986307E-01  0.11771476538E+00  0.13182178561E+00  0.24702236098E-01 0.  0.
         14    1    1    2    0    0 -0.10870292932E-01  0.14932827629E-01 -0.15827129717E-01  0.24323869850E-01  0.00000000000E+00 0. -1.
     999901    1    3    3    0    0  0.56443801984E-01  0.13930158678E-01 -0.10188763566E+00  0.88778434454E+00  0.88000000000E+00 0.  1.
        -11    1    4    4    0    0 -0.19935849540E-01 -0.10177122209E-01  0.77086916213E-01  0.80272446615E-01  0.51100000000E-03 0.  1.
         11    1    4    4    0    0 -0.25637659512E-01 -0.18685864097E-01  0.40627849166E-01  0.51549338999E-01  0.51100000000E-03 0. -1.
</event>
<event>
 8    1  0.1161093E+005  0.1043930E+01  0.7957747E-01            NaN
         13   -1    0    0    0    0  0.00000000000E+00  0.00000000000E+00  0.74505805969E-08  0.10566000000E+00  0.10566000000E+00 0.  1.
     999900   -1    0    0    0    0 -0.00000000000E+00 -0.00000000000E+00 -0.74505805969E-08  0.93827000000E+00  0.93827000000E+00 0. -1.
     999902    2    1    2    0    0 -0.18370477395E-01 -0.95484941995E-02  0.61228840988E-02  0.10223397733E+01  0.10221117718E+01 0.  0.
     999903    2    3    3    0    0  0.12035620812E+00  0.70993855609E-02  0.44245073117E-01  0.13050147711E+00  0.23173064636E-01 0.  0.
         14    1    1    2    0    0  0.18370477395E-01  0.95484941995E-02 -0.61228840988E-02  0.21590226744E-01  0.00000000000E+00 0. -1.
     999901    1    3    3    0    0 -0.13872668551E+00 -0.16647879760E-01 -0.38122189018E-01  0.89183829614E+00  0.88000000000E+00 0.  1.
        -11    1    4    4    0    0  0.76908244389E-01 -0.54938741217E-02  0.33096677138E-01  0.83908949859E-01  0.51100000000E-03 0. -1.
         11    1    4    4    0    0  0.43447963732E-01  0.12593259683E-01  0.11148395979E-01  0.46592527252E-01  0.51100000000E-03 0.  1.
</event>
<event>
 8    1  0.1161093E+005  0.1043930E+01  0.7957747E-01            NaN
         13   -1    0    0    0    0  0.00000000000E+00  0.00000000000E+00  0.74505805969E-08  0.10566000000E+00  0.10566000000E+00 0.  1.
     999900   -1    0    0    0    0 -0.00000000000E+00 -0.00000000000E+00 -0.74505805969E-08  0.93827000000E+00  0.93827000000E+00 0. -1.
     999902    2    1    2    0    0  0.13327911057E-01  0.19032893660E-01  0.90616895526E-02  0.10189901028E+01  0.10186848537E+01 0.  0.
     999903    2    3    3    0    0 -0.70973945709E-01 -0.52258667678E-01  0.91045171958E-01  0.12831026069E+00  0.20150194658E-01 0.  0.
         14    1    1    2    0    0 -0.13327911057E-01 -0.19032893660E-01 -0.90616895526E-02  0.24939897189E-01  0.00000000000E+00 0. -1.
     999901    1    3    3    0    0  0.84301856766E-01  0.71291561338E-01 -0.81983482406E-01  0.89067984212E+00  0.88000000000E+00 0. -1.
        -11    1    4    4    0    0 -0.53801055282E-01 -0.27931347106E-01  0.61847206516E-01  0.86602839304E-01  0.51100000000E-03 0. -1.
         11    1    4    4    0    0 -0.17172890426E-01 -0.24327320572E-01  0.29197965442E-01  0.41707421387E-01  0.51100000000E-03 0.  1.
</event>
<event>
 8    1  0.1161093E+005  0.1043930E+01  0.7957747E-01            NaN
         13   -1    0    0    0    0  0.00000000000E+00  0.00000000000E+00  0.74505805969E-08  0.10566000000E+00  0.10566000000E+00 0. -1.
     999900   -1    0    0    0    0 -0.00000000000E+00 -0.00000000000E+00 -0.74505805969E-08  0.93827000000E+00  0.93827000000E+00 0.  1.
     999902    2    1    2    0    0 -0.11497709275E-01 -0.17810091724E-01 -0.10274893796E-01  0.10203721960E+01  0.10201002148E+01 0.  0.
     999903    2    3    3    0    0  0.25324337100E-01  0.12380114982E+00 -0.82949175781E-02  0.12828838430E+00  0.20519676955E-01 0.  0.
         14    1    1    2    0    0  0.11497709275E-01  0.17810091724E-01  0.10274893796E-01  0.23557803979E-01  0.00000000000E+00 0.  1.
     999901    1    3    3    0    0 -0.36822046375E-01 -0.14161124154E+00 -0.19799762180E-02  0.89208381172E+00  0.88000000000E+00 0.  1.
        -11    1    4    4    0    0  0.97513606684E-02  0.34462032213E-01  0.64942740232E-02  0.36402711647E-01  0.51100000000E-03 0. -1.
         11    1    4    4    0    0  0.15572976432E-01  0.89339117606E-01 -0.14789191601E-01  0.91885672652E-01  0.51100000000E-03 0.  1.
</event>
<event>
 8    1  0.1161093E+005  0.1043930E+01  0.7957747E-01            NaN
         13   -1    0    0    0    0  0.00000000000E+00  0.00000000000E+00  0.74505805969E-08  0.10566000000E+00  0.10566000000E+00 0. -1.
     999900   -1    0    0    0    0 -0.00000000000E+00 -0.00000000000E+00 -0.74505805969E-08  0.93827000000E+00  0.93827000000E+00 0. -1.
     999902    2    1    2    0    0  0.80497754670E-02 -0.85969748499E-02 -0.19764098851E-01  0.10209229040E+01  0.10206636319E+01 0.  0.
     999903    2    3    3    0    0  0.17644728743E-01  0.12665821557E+00  0.95326678735E-02  0.13005572526E+00  0.21679019616E-01 0.  0.
         14    1    1    2    0    0 -0.80497754670E-02  0.85969748499E-02  0.19764098851E-01  0.23007095972E-01  0.00000000000E+00 0. -1.
     999901    1    3    3    0    0 -0.95949532763E-02 -0.13525519042E+00 -0.29296766725E-01  0.89086717877E+00  0.88000000000E+00 0.  1.
        -11    1    4    4    0    0  0.18790223077E-01  0.69662353437E-01  0.11220572127E-01  0.73021081405E-01  0.51100000000E-03 0.  1.
         11    1    4    4    0    0 -0.11454943342E-02  0.56995862137E-01 -0.16879042533E-02  0.57034643856E-01  0.51100000000E-03 0. -1.
</event>
<event>
 8    1  0.1161093E+005  0.1043930E+01  0.7957747E-01            NaN
         13   -1    0    0    0    0  0.00000000000E+00  0.00000000000E+00  0.74505805969E-08  0.10566000000E+00  0.10566000000E+00 0.  1.
     999900   -1    0    0    0    0 -0.00000000000E+00 -0.00000000000E+00 -0.74505805969E-08  0.93827000000E+00  0.93827000000E+00 0.  1.
     999902    2    1    2    0    0 -0.20485223452E-01 -0.14886482746E-02 -0.12722638315E-01  0.10197695782E+01  0.10194833332E+01 0.  0.
     999903    2    3    3    0    0 -0.10164301082E+00  0.37870802344E-01  0.71255609535E-01  0.13118187919E+00  0.19126531822E-01 0.  0.
         14    1    1    2    0    0  0.20485223452E-01  0.14886482746E-02  0.12722638315E-01  0.24160421753E-01  0.00000000000E+00 0.  1.
     999901    1    3    3    0    0  0.81157787366E-01 -0.39359450619E-01 -0.83978247850E-01  0.88858769906E+00  0.88000000000E+00 0.  1.
        -11    1    4    4    0    0 -0.88493944164E-01  0.36982091737E-01  0.56192537840E-01  0.11116076508E+00  0.51100000000E-03 0. -1.
         11    1    4    4    0    0 -0.13149066654E-01  0.88871060728E-03  0.15063071695E-01  0.20021114112E-01  0.51100000000E-03 0.  1.
</event>
<event>
 8    1  0.1161093E+005  0.1043930E+01  0.7957747E-01            NaN
         13   -1    0    0    0    0  0.00000000000E+00  0.00000000000E+00  0.74505805969E-08  0.10566000000E+00  0.10566000000E+00 0. -1.
     999900   -1    0    0    0    0 -0.00000000000E+00 -0.00000000000E+00 -0.74505805969E-08  0.93827000000E+00  0.93827000000E+00 0. -1.
     999902    2    1    2    0    0  0.10640027413E-01  0.18577961294E-01 -0.10377780566E-01  0.10201382124E+01  0.10198607371E+01 0.  0.
     999903    2    3    3    0    0 -0.12440181403E+00 -0.21531888657E-01 -0.15415417839E-01  0.12891967756E+00  0.21052662323E-01 0.  0.
         14    1    1    2    0    0 -0.10640027413E-01 -0.18577961294E-01  0.10377780566E-01  0.23791787631E-01  0.00000000000E+00 0. -1.
     999901    1    3    3    0    0  0.13504184144E+00  0.40109849951E-01  0.50376372738E-02  0.89121853481E+00  0.88000000000E+00 0. -1.
        -11    1    4    4    0    0 -0.65754600566E-01 -0.97952572483E-03 -0.55832524515E-02  0.66000460568E-01  0.51100000000E-03 0.  1.
         11    1    4    4    0    0 -0.58647213465E-01 -0.20552362932E-01 -0.98321653878E-02  0.62919216989E-01  0.51100000000E-03 0. -1.
</event>
<event>
 8    1  0.1161093E+005  0.1043930E+01  0.7957747E-01            NaN
         13   -1    0    0    0    0  0.00000000000E+00  0.00000000000E+00  0.74505805969E-08  0.10566000000E+00  0.10566000000E+00 0.  1.
     999900   -1    0    0    0    0 -0.00000000000E+00 -0.00000000000E+00 -0.74505805969E-08  0.93827000000E+00  0.93827000000E+00 0. -1.
     999902    2    1    2    0    0  0.21305342988E-01  0.81027021482E-02  0.12996343058E-02  0.10210988706E+01  0.10208435938E+01 0.  0.
     999903    2    3    3    0    0 -0.70685711327E-01  0.63743856255E-01 -0.86596204549E-01  0.13020944387E+00  0.19895920073E-01 0.  0.
         14    1    1    2    0    0 -0.21305342988E-01 -0.81027021482E-02 -0.12996343058E-02  0.22831129435E-01  0.00000000000E+00 0. -1.
     999901    1    3    3    0    0  0.91991054314E-01 -0.55641154107E-01  0.87895838854E-01  0.89088942669E+00  0.88000000000E+00 0.  1.
        -11    1    4    4    0    0 -0.20232513974E-02  0.71673020550E-02 -0.11865163897E-01  0.14018095458E-01  0.51100000000E-03 0. -1.
         11    1    4    4    0    0 -0.68662459929E-01  0.56576554200E-01 -0.74731040651E-01  0.11619134841E+00  0.51100000000E-03 0.  1.
</event>
<event>
 8    1  0.1161093E+005  0.1043930E+01  0.7957747E-01            NaN
         13   -1    0    0    0    0  0.00000000000E+00  0.00000000000E+00  0.74505805969E-08  0.10566000000E+00  0.10566000000E+00 0. -1.
     999900   -1    0    0    0    0 -0.00000000000E+00 -0.00000000000E+00 -0.74505805969E-08  0.93827000000E+00  0.93827000000E+00 0.  1.
     999902    2    1    2    0    0  0.22134287923E-01 -0.52216930738E-02 -0.56376988745E-02  0.10204997540E+01  0.10202307442E+01 0.  0.
     999903    2    3    3    0    0  0.41142947909E-01  0.73610204202E-01 -0.99270614230E-01  0.13182494279E+00  0.20296708299E-01 0.  0.
         14    1    1    2    0    0 -0.22134287923E-01  0.52216930738E-02  0.56376988745E-02  0.23430246029E-01  0.00000000000E+00 0. -1.
     999901    1    3    3    0    0 -0.19008659986E-01 -0.78831897275E-01  0.93632915355E-01  0.88867481118E+00  0.88000000000E+00 0. -1.
        -11    1    4    4    0    0  0.14708712550E-01  0.21978091289E-01 -0.46027864392E-01  0.53086798200E-01  0.51100000000E-03 0. -1.
         11    1    4    4    0    0  0.26434235359E-01  0.51632112913E-01 -0.53242749837E-01  0.78738144594E-01  0.51100000000E-03 0.  1.
</event>
<event>
 8    1  0.1253019E+005  0.1043930E+01  0.7957747E-01            NaN
         13   -1    0    0    0    0  0.00000000000E+00  0.00000000000E+00  0.74505805969E-08  0.10566000000E+00  0.10566000000E+00 0.  1.
     999900   -1    0    0    0    0 -0.00000000000E+00 -0.00000000000E+00 -0.74505805969E-08  0.93827000000E+00  0.93827000000E+00 0.  1.
     999902    2    1    2    0    0  0.21815323338E-01 -0.88716703283E-02 -0.23596217626E-02  0.10202618213E+01  0.10199872555E+01 0.  0.
     999903    2    3    3    0    0  0.90953089868E-01 -0.88149444628E-02 -0.94161192986E-01  0.13278925135E+00  0.20408018232E-01 0.  0.
         14    1    1    2    0    0 -0.21815323338E-01  0.88716703283E-02  0.23596217626E-02  0.23668178672E-01  0.00000000000E+00 0. -1.
     999901    1    3    3    0    0 -0.69137766529E-01 -0.56725865525E-04  0.91801571223E-01  0.88747256997E+00  0.88000000000E+00 0.  1.
        -11    1    4    4    0    0  0.52390392978E-01  0.50737811013E-02 -0.52539345989E-01  0.74371637934E-01  0.51100000000E-03 0. -1.
         11    1    4    4    0    0  0.38562696889E-01 -0.13888725564E-01 -0.41621846997E-01  0.58417613419E-01  0.51100000000E-03 0.  1.
</event>
<event>
 8    1  0.1161093E+005  0.1043930E+01  0.7957747E-01            NaN
         13   -1    0    0    0    0  0.00000000000E+00  0.00000000000E+00  0.74505805969E-08  0.10566000000E+00  0.10566000000E+00 0. -1.
     999900   -1    0    0    0    0 -0.00000000000E+00 -0.00000000000E+00 -0.74505805969E-08  0.93827000000E+00  0.93827000000E+00 0.  1.
     999902    2    1    2    0    0 -0.20593371426E-01  0.10738282280E-01  0.62174562029E-02  0.10198872378E+01  0.10196038071E+01 0.  0.
     999903    2    3    3    0    0 -0.77732283868E-01 -0.10104979550E+00  0.86444747324E-02  0.13097367615E+00  0.28740350998E-01 0.  0.
         14    1    1    2    0    0  0.20593371426E-01 -0.10738282280E-01 -0.62174562029E-02  0.24042762210E-01  0.00000000000E+00 0.  1.
     999901    1    3    3    0    0  0.57138912442E-01  0.11178807778E+00 -0.24270185295E-02  0.88891356164E+00  0.88000000000E+00 0.  1.
        -11    1    4    4    0    0 -0.21682851483E-01 -0.40230809407E-01  0.14786457259E-01  0.48037115997E-01  0.51100000000E-03 0.  1.
         11    1    4    4    0    0 -0.56049432385E-01 -0.60818986091E-01 -0.61419825270E-02  0.82936560154E-01  0.51100000000E-03 0. -1.
</event>
<event>
 8    1  0.1161093E+005  0.1043930E+01  0.7957747E-01            NaN
         13   -1    0    0    0    0  0.00000000000E+00  0.00000000000E+00  0.74505805969E-08  0.10566000000E+00  0.10566000000E+00 0.  1.
     999900   -1    0    0    0    0 -0.00000000000E+00 -0.00000000000E+00 -0.74505805969E-08  0.93827000000E+00  0.93827000000E+00 0. -1.
     999902    2    1    2    0    0 -0.71644355112E-03 -0.51552511091E-02 -0.24206359190E-01  0.10191704012E+01  0.10188696036E+01 0.  0.
     999903    2    3    3    0    0 -0.10457858203E+00 -0.73489735617E-01  0.10982586657E-01  0.12973507055E+00  0.19317097620E-01 0.  0.
         14    1    1    2    0    0  0.71644355112E-03  0.51552511091E-02  0.24206359190E-01  0.24759598757E-01  0.00000000000E+00 0.  1.
     999901    1    3    3    0    0  0.10386213848E+00  0.68334484508E-01 -0.35188945846E-01  0.88943533070E+00  0.88000000000E+00 0. -1.
        -11    1    4    4    0    0 -0.74869123326E-01 -0.42596623807E-01  0.34099342946E-02  0.86207579483E-01  0.51100000000E-03 0.  1.
         11    1    4    4    0    0 -0.29709458701E-01 -0.30893111810E-01  0.75726523620E-02  0.43527491064E-01  0.51100000000E-03 0. -1.
</event>
<event>
 8    1  0.1161093E+005  0.1043930E+01  0.7957747E-01            NaN
         13   -1    0    0    0    0  0.00000000000E+00  0.00000000000E+00  0.74505805969E-08  0.10566000000E+00  0.10566000000E+00 0. -1.
     999900   -1    0    0    0    0 -0.00000000000E+00 -0.00000000000E+00 -0.74505805969E-08  0.93827000000E+00  0.93827000000E+00 0.  1.
     999902    2    1    2    0    0  0.12755755692E-01 -0.16291489082E-02  0.19168377620E-01  0.10208477529E+01  0.10205867648E+01 0.  0.
     999903    2    3    3    0    0  0.41128861314E-02  0.68099179129E-01  0.11237088861E+00  0.13314090549E+00  0.21091943446E-01 0.  0.
         14    1    1    2    0    0 -0.12755755692E-01  0.16291489082E-02 -0.19168377620E-01  0.23082247074E-01  0.00000000000E+00 0.  1.
     999901    1    3    3    0    0  0.86428695605E-02 -0.69728328037E-01 -0.93202510989E-01  0.88770684743E+00  0.88000000000E+00 0. -1.
        -11    1    4    4    0    0  0.23066162507E-02  0.10589220758E-01  0.35492770945E-01  0.37114013325E-01  0.51100000000E-03 0.  1.
         11    1    4    4    0    0  0.18062698807E-02  0.57509958371E-01  0.76878117664E-01  0.96026892167E-01  0.51100000000E-03 0. -1.
</event>
<event>
 8    1  0.1161093E+005  0.1043930E+01  0.7957747E-01            NaN
         13   -1    0    0    0    0  0.00000000000E+00  0.00000000000E+00  0.74505805969E-08  0.10566000000E+00  0.10566000000E+00 0.  1.
     999900   -1    0    0    0    0 -0.00000000000E+00 -0.00000000000E+00 -0.74505805969E-08  0.93827000000E+00  0.93827000000E+00 0.  1.
     999902    2    1    2    0    0  0.97479837991E-02 -0.86567935204E-02  0.19807835784E-01  0.10202168471E+01  0.10199412245E+01 0.  0.
     999903    2    3    3    0    0  0.97764103565E-01  0.81960530060E-01  0.21622538742E-01  0.13119399597E+00  0.21655991416E-01 0.  0.
         14    1    1    2    0    0 -0.97479837991E-02  0.86567935204E-02 -0.19807835784E-01  0.23713152904E-01  0.00000000000E+00 0. -1.
     999901    1    3    3    0    0 -0.88016119765E-01 -0.90617323581E-01 -0.18147029584E-02  0.88902285112E+00  0.88000000000E+00 0. -1.
        -11    1    4    4    0    0  0.45478315543E-01  0.29647916324E-01  0.57760765441E-03  0.54294298767E-01  0.51100000000E-03 0. -1.
         11    1    4    4    0    0  0.52285788022E-01  0.52312613736E-01  0.21044931088E-01  0.76899697206E-01  0.51100000000E-03 0.  1.
</event>
<event>
 8    1  0.1161093E+005  0.1043930E+01  0.7957747E-01            NaN
         13   -1    0    0    0    0  0.00000000000E+00  0.00000000000E+00  0.74505805969E-08  0.10566000000E+00  0.10566000000E+00 0.  1.
     999900   -1    0    0    0    0 -0.00000000000E+00 -0.00000000000E+00 -0.74505805969E-08  0.93827000000E+00  0.93827000000E+00 0. -1.
     999902    2    1    2    0    0 -0.82715763067E-02  0.27320987241E-02 -0.22138284368E-01  0.10201395193E+01  0.10198620749E+01 0.  0.
     999903    2    3    3    0    0 -0.37824677436E-01 -0.11774394557E+00 -0.38638069479E-01  0.13128626596E+00  0.21185850833E-01 0.  0.
         14    1    1    2    0    0  0.82715763067E-02 -0.27320987241E-02  0.22138284368E-01  0.23790480718E-01  0.00000000000E+00 0.  1.
     999901    1    3    3    0    0  0.29553101130E-01  0.12047604429E+00  0.16499785110E-01  0.88885325332E+00  0.88000000000E+00 0. -1.
        -11    1    4    4    0    0 -0.32944989818E-01 -0.86106474937E-01 -0.36637432807E-01  0.99208164905E-01  0.51100000000E-03 0. -1.
         11    1    4    4    0    0 -0.48796876184E-02 -0.31637470630E-01 -0.20006366719E-02  0.32078101054E-01  0.51100000000E-03 0.  1.
</event>
<event>
 8    1  0.1161093E+005  0.1043930E+01  0.7957747E-01            NaN
         13   -1    0    0    0    0  0.00000000000E+00  0.00000000000E+00  0.74505805969E-08  0.10566000000E+00  0.10566000000E+00 0. -1.
     999900   -1    0    0    0    0 -0.00000000000E+00 -0.00000000000E+00 -0.74505805969E-08  0.93827000000E+00  0.93827000000E+00 0.  1.
     999902    2    1    2    0    0 -0.17783653035E-01 -0.14870547370E-01  0.15327932840E-02  0.10206976745E+01  0.10204332422E+01 0.  0.
     999903    2    3    3    0    0  0.11788176070E+00  0.46405372208E-01 -0.27963468804E-02  0.12818516237E+00  0.19340326278E-01 0.  0.
         14    1    1    2    0    0  0.17783653035E-01  0.14870547370E-01 -0.15327932840E-02  0.23232325532E-01  0.00000000000E+00 0.  1.
     999901    1    3    3    0    0 -0.13566541373E+00 -0.61275919578E-01  0.43291401644E-02  0.89251251210E+00  0.88000000000E+00 0.  1.
        -11    1    4    4    0    0  0.24317011344E-01  0.17716979273E-01 -0.36838964928E-02  0.30315682569E-01  0.51100000000E-03 0. -1.
         11    1    4    4    0    0  0.93564749353E-01  0.28688392935E-01  0.88754961241E-03  0.97869479798E-01  0.51100000000E-03 0.  1.
</event>
<event>
 8    1  0.1161093E+005  0.1043930E+01  0.7957747E-01            NaN
         13   -1    0    0    0    0  0.00000000000E+00  0.00000000000E+00  0.74505805969E-08  0.10566000000E+00  0.10566000000E+00 0. -1.
     999900   -1    0    0    0    0 -0.00000000000E+00 -0.00000000000E+00 -0.74505805969E-08  0.93827000000E+00  0.93827000000E+00 0. -1.
     999902    2    1    2    0    0  0.72522782627E-03  0.20520996237E-01  0.34271642499E-02  0.10231121544E+01  0.10229003362E+01 0.  0.
     999903    2    3    3    0    0  0.83128902084E-01 -0.38182080519E-01  0.94140040290E-01  0.13268234656E+00  0.19338362615E-01 0.  0.
         14    1    1    2    0    0 -0.72522782627E-03 -0.20520996237E-01 -0.34271642499E-02  0.20817845632E-01  0.00000000000E+00 0.  1.
     999901    1    3    3    0    0 -0.82403674258E-01  0.58703076756E-01 -0.90712876040E-01  0.89042980781E+00  0.88000000000E+00 0. -1.
        -11    1    4    4    0    0  0.67067453390E-01 -0.30686550367E-01  0.85626586613E-01  0.11301274766E+00  0.51100000000E-03 0. -1.
         11    1    4    4    0    0  0.16061448694E-01 -0.74955301516E-02  0.85134536768E-02  0.19669598901E-01  0.51100000000E-03 0.  1.
</event>
<event>
 8    1  0.1161093E+005  0.1043930E+01  0.7957747E-01            NaN
         13   -1    0    0    0    0  0.00000000000E+00  0.00000000000E+00  0.74505805969E-08  0.10566000000E+00  0.10566000000E+00 0.  1.
     999900   -1    0    0    0    0 -0.00000000000E+00 -0.00000000000E+00 -0.74505805969E-08  0.93827000000E+00  0.93827000000E+00 0.  1.
     999902    2    1    2    0    0  0.17198350802E-01 -0.16705488570E-02  0.17956266204E-01  0.10190100983E+01  0.10187053445E+01 0.  0.
     999903    2    3    3    0    0  0.30338492024E-01 -0.29425374930E-01  0.12358554487E+00  0.13216144258E+00  0.20173825001E-01 0.  0.
         14    1    1    2    0    0 -0.17198350802E-01  0.16705488570E-02 -0.17956266204E-01  0.24919901681E-01  0.00000000000E+00 0.  1.
     999901    1    3    3    0    0 -0.13140141222E-01  0.27754826073E-01 -0.10562927866E+00  0.88684865574E+00  0.88000000000E+00 0.  1.
        -11    1    4    4    0    0  0.46718252262E-02  0.17369892933E-02  0.27258091833E-01  0.27714757335E-01  0.51100000000E-03 0.  1.
         11    1    4    4    0    0  0.25666666798E-01 -0.31162364223E-01  0.96327453036E-01  0.10444668524E+00  0.51100000000E-03 0. -1.
</event>
<event>
 8    1  0.1161093E+005  0.1043930E+01  0.7957747E-01            NaN
         13   -1    0    0    0    0  0.00000000000E+00  0.00000000000E+00  0.74505805969E-08  0.10566000000E+00  0.10566000000E+00 0. -1.
     999900   -1    0    0    0    0 -0.00000000000E+00 -0.00000000000E+00 -0.74505805969E-08  0.93827000000E+00  0.93827000000E+00 0.  1.
     999902    2    1    2    0    0  0.67147967267E-02  0.20802273688E-01 -0.90122248852E-02  0.10202859038E+01  0.10200119030E+01 0.  0.
     999903    2    3    3    0    0  0.41103326318E-01 -0.34990809689E-01  0.11544134361E+00  0.12911581355E+00  0.20744861924E-01 0.  0.
         14    1    1    2    0    0 -0.67147967267E-02 -0.20802273688E-01  0.90122248852E-02  0.23644096156E-01  0.00000000000E+00 0. -1.
     999901    1    3    3    0    0 -0.34388529591E-01  0.55793083376E-01 -0.12445356850E+00  0.89117009029E+00  0.88000000000E+00 0.  1.
        -11    1    4    4    0    0  0.21010081309E-01 -0.29693044259E-01  0.63705547660E-01  0.73360468357E-01  0.51100000000E-03 0. -1.
         11    1    4    4    0    0  0.20093245008E-01 -0.52977654291E-02  0.51735795955E-01  0.55755345193E-01  0.51100000000E-03 0.  1.
</event>
<event>
 8    1  0.1161093E+005  0.1043930E+01  0.7957747E-01            NaN
         13   -1    0    0    0    0  0.00000000000E+00  0.00000000000E+00  0.74505805969E-08  0.10566000000E+00  0.10566000000E+00 0. -1.
     999900   -1    0    0    0    0 -0.00000000000E+00 -0.00000000000E+00 -0.74505805969E-08  0.93827000000E+00  0.93827000000E+00 0.  1.
     999902    2    1    2    0    0  0.86538369137E-02  0.22001260623E-01 -0.59941760279E-02  0.10195399506E+01  0.10192481721E+01 0.  0.
     999903    2    3    3    0    0 -0.92243974223E-01 -0.63088295946E-01  0.57876742928E-01  0.12740762007E+00  0.19846924553E-01 0.  0.
         14    1    1    2    0    0 -0.86538369137E-02 -0.22001260623E-01  0.59941760279E-02  0.24390049377E-01  0.00000000000E+00 0. -1.
     999901    1    3    3    0    0  0.10089781114E+00  0.85089556569E-01 -0.63870918956E-01  0.89213233055E+00  0.88000000000E+00 0.  1.
        -11    1    4    4    0    0 -0.60903749838E-01 -0.48073727391E-01  0.31352047605E-01  0.83687287085E-01  0.51100000000E-03 0. -1.
         11    1    4    4    0    0 -0.31340224385E-01 -0.15014568555E-01  0.26524695323E-01  0.43720332986E-01  0.51100000000E-03 0.  1.
</event>
<event>
 8    1  0.1161093E+005  0.1043930E+01  0.7957747E-01            NaN
         13   -1    0    0    0    0  0.00000000000E+00  0.00000000000E+00  0.74505805969E-08  0.10566000000E+00  0.10566000000E+00 0. -1.
     999900   -1    0    0    0    0 -0.00000000000E+00 -0.00000000000E+00 -0.74505805969E-08  0.93827000000E+00  0.93827000000E+00 0. -1.
     999902    2    1    2    0    0 -0.13443332419E-01  0.13830731969E-01 -0.13016126440E-01  0.10206613111E+01  0.10203960409E+01 0.  0.
     999903    2    3    3    0    0  0.28944464565E-01  0.91191001244E-01 -0.90033633887E-01  0.13290400589E+00  0.20095741159E-01 0.  0.
         14    1    1    2    0    0  0.13443332419E-01 -0.13830731969E-01  0.13016126440E-01  0.23268688851E-01  0.00000000000E+00 0. -1.
     999901    1    3    3    0    0 -0.42387796984E-01 -0.77360269275E-01  0.77017507447E-01  0.88775730526E+00  0.88000000000E+00 0.  1.
        -11    1    4    4    0    0  0.17970749440E-01  0.79252643850E-01 -0.71184220786E-01  0.10803417886E+00  0.51100000000E-03 0.  1.
         11    1    4    4    0    0  0.10973715124E-01  0.11938357394E-01 -0.18849413101E-01  0.24869827023E-01  0.51100000000E-03 0. -1.
</event>
<event>
 8    1  0.1161093E+005  0.1043930E+01  0.7957747E-01            NaN
         13   -1    0    0    0    0  0.00000000000E+00  0.00000000000E+00  0.74505805969E-08  0.10566000000E+00  0.10566000000E+00 0.  1.
     999900   -1    0    0    0    0 -0.00000000000E+00 -0.00000000000E+00 -0.74505805969E-08  0.93827000000E+00  0.93827000000E+00 0.  1.
     999902    2    1    2    0    0 -0.16721840883E-01  0.95807991533E-02 -0.12779390098E-01  0.10208058895E+01  0.10205439430E+01 0.  0.
     999903    2    3    3    0    0  0.58643119141E-02  0.11303209337E+00  0.63192904125E-01  0.13120817477E+00  0.20287870995E-01 0.  0.
         14    1    1    2    0    0  0.16721840883E-01 -0.95807991533E-02  0.12779390098E-01  0.23124110495E-01  0.00000000000E+00 0.  1.
     999901    1    3    3    0    0 -0.22586152797E-01 -0.10345129421E+00 -0.75972294223E-01  0.88959771474E+00  0.88000000000E+00 0. -1.
        -11    1    4    4    0    0 -0.33842579655E-02  0.90469906953E-01  0.51549781718E-01  0.10418204443E+00  0.51100000000E-03 0. -1.
         11    1    4    4    0    0  0.92485698796E-02  0.22562186414E-01  0.11643122407E-01  0.27026130337E-01  0.51100000000E-03 0.  1.
</event>
<event>
 8    1  0.1161093E+005  0.1043930E+01  0.7957747E-01            NaN
         13   -1    0    0    0    0  0.00000000000E+00  0.00000000000E+00  0.74505805969E-08  0.10566000000E+00  0.10566000000E+00 0. -1.
     999900   -1    0    0    0    0 -0.00000000000E+00 -0.00000000000E+00 -0.74505805969E-08  0.93827000000E+00  0.93827000000E+00 0. -1.
     999902    2    1    2    0    0 -0.18410306984E-01 -0.46710080221E-02  0.13989301605E-01  0.10203406321E+01  0.10200679130E+01 0.  0.
     999903    2    3    3    0    0  0.75015703340E-01  0.10239009712E+00  0.98708357087E-02  0.12893305897E+00  0.20376765290E-01 0.  0.
         14    1    1    2    0    0  0.18410306984E-01  0.46710080221E-02 -0.13989301605E-01  0.23589367915E-01  0.00000000000E+00 0.  1.
     999901    1    3    3    0    0 -0.93426010324E-01 -0.10706110514E+00  0.41184658966E-02  0.89140757311E+00  0.88000000000E+00 0. -1.
        -11    1    4    4    0    0  0.58522093459E-01  0.64348819094E-01  0.42272581294E-02  0.87084652918E-01  0.51100000000E-03 0.  1.
         11    1    4    4    0    0  0.16493609881E-01  0.38041278023E-01  0.56435775793E-02  0.41848406056E-01  0.51100000000E-03 0. -1.
</event>
<event>
 8    1  0.1161093E+005  0.1043930E+01  0.7957747E-01            NaN
         13   -1    0    0    0    0  0.00000000000E+00  0.00000000000E+00  0.74505805969E-08  0.10566000000E+00  0.10566000000E+00 0.  1.
     999900   -1    0    0    0    0 -0.00000000000E+00 -0.00000000000E+00 -0.74505805969E-08  0.93827000000E+00  0.93827000000E+00 0.  1.
     999902    2    1    2    0    0 -0.94548808309E-02  0.13058247767E-01 -0.17006823583E-01  0.10204961643E+01  0.10202270712E+01 0.  0.
     999903    2    3    3    0    0 -0.81398176392E-01 -0.70570114959E-01 -0.73087773856E-01  0.13183727936E+00  0.20819253050E-01 0.  0.
         14    1    1    2    0    0  0.94548808309E-02 -0.13058247767E-01  0.17006823583E-01  0.23433835680E-01  0.00000000000E+00 0.  1.
     999901    1    3    3    0    0  0.71943295561E-01  0.83628362726E-01  0.56080950273E-01  0.88865888496E+00  0.88000000000E+00 0. -1.
        -11    1    4    4    0    0 -0.74197207159E-01 -0.65284198553E-01 -0.73036793240E-01  0.12288973276E+00  0.51100000000E-03 0.  1.
         11    1    4    4    0    0 -0.72009692331E-02 -0.52859164058E-02 -0.50980616321E-04  0.89475466005E-02  0.51100000000E-03 0. -1.
</event>
<event>
 8    1  0.1161093E+005  0.1043930E+01  0.7957747E-01            NaN
         13   -1    0    0    0    0  0.00000000000E+00  0.00000000000E+00  0.74505805969E-08  0.10566000000E+00  0.10566000000E+00 0.  1.
     999900   -1    0    0    0    0 -0.00000000000E+00 -0.00000000000E+00 -0.74505805969E-08  0.93827000000E+00  0.93827000000E+00 0. -1.
     999902    2    1    2    0    0  0.73057320557E-02 -0.93795646863E-02  0.11493040558E-01  0.10273939807E+01  0.10272608975E+01 0.  0.
     999903    2    3    3    0    0 -0.37518260037E-01  0.12366699995E+00  0.38532385238E-01  0.13585502761E+00  0.16452875181E-01 0.  0.
         14    1    1    2    0    0 -0.73057320557E-02  0.93795646863E-02 -0.11493040558E-01  0.16536019347E-01  0.00000000000E+00 0. -1.
     999901    1    3    3    0    0  0.44823992093E-01 -0.13304656464E+00 -0.27039344680E-01  0.89153895304E+00  0.88000000000E+00 0. -1.
        -11    1    4    4    0    0 -0.11623013751E-01  0.41599287640E-01  0.20999080252E-01  0.48029341795E-01  0.51100000000E-03 0.  1.
         11    1    4    4    0    0 -0.25895246286E-01  0.82067712312E-01  0.17533304986E-01  0.87825685816E-01  0.51100000000E-03 0. -1.
</event>
<event>
 7    1  0.1161093E+005  0.1043930E+01  0.7957747E-01            NaN
         13   -1    0    0    0    0  0.00000000000E+00  0.00000000000E+00  0.74505805969E-08  0.10566000000E+00  0.10566000000E+00 0.  1.
     999900   -1    0    0    0    0 -0.00000000000E+00 -0.00000000000E+00 -0.74505805969E-08  0.93827000000E+00  0.93827000000E+00 0.  1.
     999903    2    1    2    0    0  0.83212721696E-01  0.29203012868E-01 -0.64449238319E-01  0.11106735902E+00  0.20126621852E-01 0.  0.
         14    1    1    2    0    0 -0.37578276111E-01  0.58780289558E-02  0.33106481530E-01  0.50425362460E-01  0.00000000000E+00 0.  1.
     999901    1    1    2    0    0 -0.45634445584E-01 -0.35081041824E-01  0.31342756790E-01  0.88243727852E+00  0.88000000000E+00 0. -1.
        -11    1    3    3    0    0  0.70695599881E-01  0.17330984781E-01 -0.47771396018E-01  0.87066631234E-01  0.51100000000E-03 0. -1.
         11    1    3    3    0    0  0.12517121815E-01  0.11872028087E-01 -0.16677842301E-01  0.24000727786E-01  0.51100000000E-03 0.  1.
</event>
<event>
 8    1  0.1161093E+005  0.1043930E+01  0.7957747E-01            NaN
         13   -1    0    0    0    0  0.00000000000E+00  0.00000000000E+00  0.74505805969E-08  0.10566000000E+00  0.10566000000E+00 0.  1.
     999900   -1    0    0    0    0 -0.00000000000E+00 -0.00000000000E+00 -0.74505805969E-08  0.93827000000E+00  0.93827000000E+00 0.  1.
     999902    2    1    2    0    0 -0.25906866932E-02  0.54047083934E-02  0.22938788914E-01  0.10202211289E+01  0.10199456071E+01 0.  0.
     999903    2    3    3    0    0  0.74998669036E-01 -0.10113225550E+00  0.27428082959E-01  0.13039508607E+00  0.19951072043E-01 0.  0.
         14    1    1    2    0    0  0.25906866932E-02 -0.54047083934E-02 -0.22938788914E-01  0.23708871066E-01  0.00000000000E+00 0. -1.
     999901    1    3    3    0    0 -0.77589355729E-01  0.10653696390E+00 -0.44892940449E-02  0.88982604286E+00  0.88000000000E+00 0.  1.
        -11    1    4    4    0    0  0.14279125855E-01 -0.30513522824E-01  0.15368201135E-02  0.33728199587E-01  0.51100000000E-03 0. -1.
         11    1    4    4    0    0  0.60719543181E-01 -0.70618732681E-01  0.25891262846E-01  0.96666886483E-01  0.51100000000E-03 0.  1.
</event>
<event>
 8    1  0.1161093E+005  0.1043930E+01  0.7957747E-01            NaN
         13   -1    0    0    0    0  0.00000000000E+00  0.00000000000E+00  0.74505805969E-08  0.10566000000E+00  0.10566000000E+00 0. -1.
     999900   -1    0    0    0    0 -0.00000000000E+00 -0.00000000000E+00 -0.74505805969E-08  0.93827000000E+00  0.93827000000E+00 0.  1.
     999902    2    1    2    0    0 -0.73294832604E-02 -0.19552817969E-01 -0.12745834472E-01  0.10194659384E+01  0.10191723648E+01 0.  0.
     999903    2    3    3    0    0 -0.19536307305E-01  0.10709818491E+00 -0.67498873234E-01  0.12863072446E+00  0.11750611525E-01 0.  0.
         14    1    1    2    0    0  0.73294832604E-02  0.19552817969E-01  0.12745834472E-01  0.24464061637E-01  0.00000000000E+00 0.  1.
     999901    1    3    3    0    0  0.12206824044E-01 -0.12665100288E+00  0.54753038762E-01  0.89083521391E+00  0.88000000000E+00 0.  1.
        -11    1    4    4    0    0 -0.17844402843E-01  0.66430146164E-01 -0.41847720201E-01  0.80516332748E-01  0.51100000000E-03 0. -1.
         11    1    4    4    0    0 -0.16919044613E-02  0.40668038749E-01 -0.25651153033E-01  0.48114391707E-01  0.51100000000E-03 0.  1.
</event>
<event>
 8    1  0.1161093E+005  0.1043930E+01  0.7957747E-01            NaN
         13   -1    0    0    0    0  0.00000000000E+00  0.00000000000E+00  0.74505805969E-08  0.10566000000E+00  0.10566000000E+00 0. -1.
     999900   -1    0    0    0    0 -0.00000000000E+00 -0.00000000000E+00 -0.74505805969E-08  0.93827000000E+00  0.93827000000E+00 0. -1.
     999902    2    1    2    0    0 -0.36710437211E-02 -0.21063235861E-01 -0.14941241786E-01  0.10178459594E+01  0.10175116805E+01 0.  0.
     999903    2    3    3    0    0  0.11096520619E+00 -0.34607632117E-01  0.49168946456E-01  0.12799482766E+00  0.21310218804E-01 0.  0.
         14    1    1    2    0    0  0.36710437211E-02  0.21063235861E-01  0.14941241786E-01  0.26084040581E-01  0.00000000000E+00 0. -1.
     999901    1    3    3    0    0 -0.11463624991E+00  0.13544396256E-01 -0.64110188242E-01  0.88985113176E+00  0.88000000000E+00 0.  1.
        -11    1    4    4    0    0  0.86580095173E-01 -0.23851613047E-01  0.28362132545E-01  0.94178999828E-01  0.51100000000E-03 0.  1.
         11    1    4    4    0    0  0.24385111017E-01 -0.10756019070E-01  0.20806813911E-01  0.33815827828E-01  0.51100000000E-03 0. -1.
</event>
<event>
 8    1  0.1161093E+005  0.1043930E+01  0.7957747E-01            NaN
         13   -1    0    0    0    0  0.00000000000E+00  0.00000000000E+00  0.74505805969E-08  0.10566000000E+00  0.10566000000E+00 0. -1.
     999900   -1    0    0    0    0 -0.00000000000E+00 -0.00000000000E+00 -0.74505805969E-08  0.93827000000E+00  0.93827000000E+00 0.  1.
     999902    2    1    2    0    0  0.81715114752E-02 -0.53849424051E-02 -0.14915171414E-01  0.10260908985E+01  0.10259358159E+01 0.  0.
     999903    2    3    3    0    0 -0.58809305705E-01  0.87802320163E-01  0.79247911312E-01  0.13365771784E+00  0.20405200967E-01 0.  0.
         14    1    1    2    0    0 -0.81715114752E-02  0.53849424051E-02  0.14915171414E-01  0.17839101513E-01  0.00000000000E+00 0. -1.
     999901    1    3    3    0    0  0.66980817181E-01 -0.93187262568E-01 -0.94163082726E-01  0.89243318065E+00  0.88000000000E+00 0.  1.
        -11    1    4    4    0    0 -0.22081471542E-01  0.29818314973E-01  0.16319487274E-01  0.40537761151E-01  0.51100000000E-03 0. -1.
         11    1    4    4    0    0 -0.36727834164E-01  0.57984005190E-01  0.62928424039E-01  0.93119956686E-01  0.51100000000E-03 0.  1.
</event>
<event>
 8    1  0.1161093E+005  0.1043930E+01  0.7957747E-01            NaN
         13   -1    0    0    0    0  0.00000000000E+00  0.00000000000E+00  0.74505805969E-08  0.10566000000E+00  0.10566000000E+00 0.  1.
     999900   -1    0    0    0    0 -0.00000000000E+00 -0.00000000000E+00 -0.74505805969E-08  0.93827000000E+00  0.93827000000E+00 0.  1.
     999902    2    1    2    0    0 -0.19489916226E-02 -0.23228815980E-01 -0.18024445978E-02  0.10205499815E+01  0.10202821372E+01 0.  0.
     999903    2    3    3    0    0  0.41445404424E-01 -0.17944849109E-01  0.12179333347E+00  0.13083828082E+00  0.15662071787E-01 0.  0.
         14    1    1    2    0    0  0.19489916226E-02  0.23228815980E-01  0.18024445978E-02  0.23380018535E-01  0.00000000000E+00 0. -1.
     999901    1    3    3    0    0 -0.43394396046E-01 -0.52839668707E-02 -0.12359577807E+00  0.88971170065E+00  0.88000000000E+00 0.  1.
        -11    1    4    4    0    0  0.15991016744E-01 -0.15177332271E-01  0.51392941857E-01  0.55924588734E-01  0.51100000000E-03 0. -1.
         11    1    4    4    0    0  0.25454387680E-01 -0.27675168385E-02  0.70400391611E-01  0.74913692083E-01  0.51100000000E-03 0.  1.
</event>
<event>
 8    1  0.1161093E+005  0.1043930E+01  0.7957747E-01            NaN
         13   -1    0    0    0    0  0.00000000000E+00  0.00000000000E+00  0.74505805969E-08  0.10566000000E+00  0.10566000000E+00 0. -1.
     999900   -1    0    0    0    0 -0.00000000000E+00 -0.00000000000E+00 -0.74505805969E-08  0.93827000000E+00  0.93827000000E+00 0. -1.
     999902    2    1    2    0    0  0.54801048691E-02 -0.21866088358E-01  0.11430513340E-02  0.10213586922E+01  0.10211092567E+01 0.  0.
     999903    2    3    3    0    0 -0.10173419309E+00  0.66423484300E-01  0.40472220228E-01  0.12959822108E+00  0.19894044003E-01 0.  0.
         14    1    1    2    0    0 -0.54801048691E-02  0.21866088358E-01 -0.11430513340E-02  0.22571307800E-01  0.00000000000E+00 0. -1.
     999901    1    3    3    0    0  0.10721429796E+00 -0.88289572659E-01 -0.39329168894E-01  0.89176047112E+00  0.88000000000E+00 0. -1.
        -11    1    4    4    0    0 -0.49869671912E-01  0.37576402030E-01  0.30211902637E-01  0.69368511214E-01  0.51100000000E-03 0.  1.
         11    1    4    4    0    0 -0.51864521176E-01  0.28847082271E-01  0.10260317591E-01  0.60229709865E-01  0.51100000000E-03 0. -1.
</event>
<event>
 8    1  0.1161093E+005  0.1043930E+01  0.7957747E-01            NaN
         13   -1    0    0    0    0  0.00000000000E+00  0.00000000000E+00  0.74505805969E-08  0.10566000000E+00  0.10566000000E+00 0. -1.
     999900   -1    0    0    0    0 -0.00000000000E+00 -0.00000000000E+00 -0.74505805969E-08  0.93827000000E+00  0.93827000000E+00 0. -1.
     999902    2    1    2    0    0  0.15672012902E-01 -0.13353068962E-01  0.90820875844E-02  0.10214266502E+01  0.10211787311E+01 0.  0.
     999903    2    3    3    0    0  0.39790450670E-01 -0.82692658824E-02 -0.12310458907E+00  0.13121270870E+00  0.20257698577E-01 0.  0.
         14    1    1    2    0    0 -0.15672012902E-01  0.13353068962E-01 -0.90820875844E-02  0.22503349839E-01  0.00000000000E+00 0.  1.
     999901    1    3    3    0    0 -0.24118437767E-01 -0.50838030794E-02  0.13218667665E+00  0.89021394146E+00  0.88000000000E+00 0.  1.
        -11    1    4    4    0    0  0.18560547139E-01  0.26142626397E-02 -0.32527081255E-01  0.37544645626E-01  0.51100000000E-03 0.  1.
         11    1    4    4    0    0  0.21229903530E-01 -0.10883528522E-01 -0.90577507811E-01  0.93668063070E-01  0.51100000000E-03 0. -1.
</event>
<event>
 8    1  0.1161093E+005  0.1043930E+01  0.7957747E-01            NaN
         13   -1    0    0    0    0  0.00000000000E+00  0.00000000000E+00  0.74505805969E-08  0.10566000000E+00  0.10566000000E+00 0. -1.
     999900   -1    0    0    0    0 -0.00000000000E+00 -0.00000000000E+00 -0.74505805969E-08  0.93827000000E+00  0.93827000000E+00 0. -1.
     999902    2    1    2    0    0  0.60577497543E-02  0.21652784260E-02  0.22756382067E-01  0.10202817931E+01  0.10200076959E+01 0.  0.
     999903    2    3    3    0    0  0.20849465791E-01 -0.12705527832E+00 -0.27063812177E-02  0.13035758319E+00  0.20199777809E-01 0.  0.
         14    1    1    2    0    0 -0.60577497543E-02 -0.21652784260E-02 -0.22756382067E-01  0.23648206856E-01  0.00000000000E+00 0.  1.
     999901    1    3    3    0    0 -0.14791716037E-01  0.12922055674E+00  0.25462763285E-01  0.88992420995E+00  0.88000000000E+00 0.  1.
        -11    1    4    4    0    0 -0.39307074695E-02 -0.22353889200E-01  0.62077274770E-03  0.22711083272E-01  0.51100000000E-03 0. -1.
         11    1    4    4    0    0  0.24780173260E-01 -0.10470138912E+00 -0.33271539655E-02  0.10764649992E+00  0.51100000000E-03 0.  1.
</event>
<event>
 8    1  0.1161093E+005  0.1043930E+01  0.7957747E-01            NaN
         13   -1    0    0    0    0  0.00000000000E+00  0.00000000000E+00  0.74505805969E-08  0.10566000000E+00  0.10566000000E+00 0. -1.
     999900   -1    0    0    0    0 -0.00000000000E+00 -0.00000000000E+00 -0.74505805969E-08  0.93827000000E+00  0.93827000000E+00 0. -1.
     999902    2    1    2    0    0 -0.15919310137E-01  0.19032379891E-01 -0.16362966445E-02  0.10190636897E+01  0.10187602615E+01 0.  0.
     999903    2    3    3    0    0 -0.32297489320E-01  0.12526127091E+00 -0.18527239772E-01  0.13236299277E+00  0.21052064831E-01 0.  0.
         14    1    1    2    0    0  0.15919310137E-01 -0.19032379891E-01  0.16362966445E-02  0.24866310267E-01  0.00000000000E+00 0. -1.
     999901    1    3    3    0    0  0.16378179183E-01 -0.10622889102E+00  0.16890943128E-01  0.88670069697E+00  0.88000000000E+00 0.  1.
        -11    1    4    4    0    0 -0.99518603708E-02  0.79359354287E-01 -0.10105140937E-01  0.80618370313E-01  0.51100000000E-03 0. -1.
         11    1    4    4    0    0 -0.22345628949E-01  0.45901916626E-01 -0.84220988348E-02  0.51744622453E-01  0.51100000000E-03 0.  1.
</event>
<event>
 8    1  0.1161093E+005  0.1043930E+01  0.7957747E-01            NaN
         13   -1    0    0    0    0  0.00000000000E+00  0.00000000000E+00  0.74505805969E-08  0.10566000000E+00  0.10566000000E+00 0.  1.
     999900   -1    0    0    0    0 -0.00000000000E+00 -0.00000000000E+00 -0.74505805969E-08  0.93827000000E+00  0.93827000000E+00 0. -1.
     999902    2    1    2    0    0 -0.33344818567E-02  0.10911499530E-01 -0.19532989390E-01  0.10213088315E+01  0.10210582804E+01 0.  0.
     999903    2    3    3    0    0 -0.71128744654E-01 -0.58418691046E-01  0.89007345093E-01  0.12935382049E+00  0.18386451970E-01 0.  0.
         14    1    1    2    0    0  0.33344818567E-02 -0.10911499530E-01  0.19532989390E-01  0.22621168532E-01  0.00000000000E+00 0.  1.
     999901    1    3    3    0    0  0.67794262797E-01  0.69330190576E-01 -0.10854033448E+00  0.89195501097E+00  0.88000000000E+00 0. -1.
        -11    1    4    4    0    0 -0.47030185661E-01 -0.40904472029E-01  0.48034748882E-01  0.78693153555E-01  0.51100000000E-03 0.  1.
         11    1    4    4    0    0 -0.24098558992E-01 -0.17514219017E-01  0.40972596212E-01  0.50660666938E-01  0.51100000000E-03 0. -1.
</event>
<event>
 8    1  0.1161093E+005  0.1043930E+01  0.7957747E-01            NaN
         13   -1    0    0    0    0  0.00000000000E+00  0.00000000000E+00  0.74505805969E-08  0.10566000000E+00  0.10566000000E+00 0.  1.
     999900   -1    0    0    0    0 -0.00000000000E+00 -0.00000000000E+00 -0.74505805969E-08  0.93827000000E+00  0.93827000000E+00 0. -1.
     999902    2    1    2    0    0 -0.15579314766E-01  0.14276706974E-01 -0.10366510774E-01  0.10203927114E+01  0.10201212092E+01 0.  0.
     999903    2    3    3    0    0  0.10608360827E+00 -0.69114428005E-01 -0.80957533146E-02  0.12811410881E+00  0.17808637038E-01 0.  0.
         14    1    1    2    0    0  0.15579314766E-01 -0.14276706974E-01  0.10366510774E-01  0.23537288634E-01  0.00000000000E+00 0. -1.
     999901    1    3    3    0    0 -0.12166292304E+00  0.83391134979E-01 -0.22707574591E-02  0.89227860255E+00  0.88000000000E+00 0. -1.
        -11    1    4    4    0    0  0.11276650703E-01 -0.14185330318E-01 -0.33838160772E-02  0.18441740144E-01  0.51100000000E-03 0.  1.
         11    1    4    4    0    0  0.94806957568E-01 -0.54929097687E-01 -0.47119372374E-02  0.10967236867E+00  0.51100000000E-03 0. -1.
</event>
<event>
 8    1  0.1161093E+005  0.1043930E+01  0.7957747E-01            NaN
         13   -1    0    0    0    0  0.00000000000E+00  0.00000000000E+00  0.74505805969E-08  0.10566000000E+00  0.10566000000E+00 0.  1.
     999900   -1    0    0    0    0 -0.00000000000E+00 -0.00000000000E+00 -0.74505805969E-08  0.93827000000E+00  0.93827000000E+00 0.  1.
     999902    2    1    2    0    0 -0.20268300262E-01  0.11794651438E-01  0.51468655678E-02  0.10199215010E+01  0.10196388872E+01 0.  0.
     999903    2    3    3    0    0  0.58830700745E-01 -0.11035845258E+00  0.14200764829E-01  0.12792373988E+00  0.22864428657E-01 0.  0.
         14    1    1    2    0    0  0.20268300262E-01 -0.11794651438E-01 -0.51468655678E-02  0.24008498979E-01  0.00000000000E+00 0. -1.
     999901    1    3    3    0    0 -0.79099001008E-01  0.12215310402E+00 -0.90538992617E-02  0.89199776114E+00  0.88000000000E+00 0.  1.
        -11    1    4    4    0    0  0.39057518707E-02 -0.26721748180E-01  0.46577908605E-02  0.27409174745E-01  0.51100000000E-03 0. -1.
         11    1    4    4    0    0  0.54924948875E-01 -0.83636704401E-01  0.95429739690E-02  0.10051456514E+00  0.51100000000E-03 0.  1.
</event>
<event>
 8    1  0.1161093E+005  0.1043930E+01  0.7957747E-01            NaN
         13   -1    0    0    0    0  0.00000000000E+00  0.00000000000E+00  0.74505805969E-08  0.10566000000E+00  0.10566000000E+00 0.  1.
     999900   -1    0    0    0    0 -0.00000000000E+00 -0.00000000000E+00 -0.74505805969E-08  0.93827000000E+00  0.93827000000E+00 0.  1.
     999902    2    1    2    0    0  0.20264769495E-01 -0.11978015951E-01  0.16930584518E-02  0.10203291484E+01  0.10200561607E+01 0.  0.
     999903    2    3    3    0    0 -0.71507674341E-01 -0.37512925112E-01  0.99527384290E-01  0.12979797639E+00  0.20524312669E-01 0.  0.
         14    1    1    2    0    0 -0.20264769495E-01  0.11978015951E-01 -0.16930584518E-02  0.23600851589E-01  0.00000000000E+00 0. -1.
     999901    1    3    3    0    0  0.91772443836E-01  0.25534909161E-01 -0.97834325838E-01  0.89053117202E+00  0.88000000000E+00 0.  1.
        -11    1    4    4    0    0 -0.39349578228E-01 -0.31669818534E-01  0.57061545607E-01  0.76207924921E-01  0.51100000000E-03 0. -1.
         11    1    4    4    0    0 -0.32158096114E-01 -0.58431065773E-02  0.42465838683E-01  0.53590051466E-01  0.51100000000E-03 0.  1.
</event>
<event>
 8    1  0.1161093E+005  0.1043930E+01  0.7957747E-01            NaN
         13   -1    0    0    0    0  0.00000000000E+00  0.00000000000E+00  0.74505805969E-08  0.10566000000E+00  0.10566000000E+00 0. -1.
     999900   -1    0    0    0    0 -0.00000000000E+00 -0.00000000000E+00 -0.74505805969E-08  0.93827000000E+00  0.93827000000E+00 0.  1.
     999902    2    1    2    0    0  0.22453961627E-01 -0.45963129797E-02  0.46073126282E-03  0.10210058041E+01  0.10207484182E+01 0.  0.
     999903    2    3    3    0    0  0.13149927794E+00  0.14528690675E-01 -0.79062924677E-02  0.13402967482E+00  0.19957487840E-01 0.  0.
         14    1    1    2    0    0 -0.22453961627E-01  0.45963129797E-02 -0.46073126282E-03  0.22924195930E-01  0.00000000000E+00 0. -1.
     999901    1    3    3    0    0 -0.10904531631E+00 -0.19125003654E-01  0.83670237305E-02  0.88697612925E+00  0.88000000000E+00 0. -1.
        -11    1    4    4    0    0  0.13556328360E-02 -0.54273310137E-03 -0.24551211633E-02  0.29019029157E-02  0.51100000000E-03 0.  1.
         11    1    4    4    0    0  0.13014364510E+00  0.15071423776E-01 -0.54511713044E-02  0.13112777190E+00  0.51100000000E-03 0. -1.
</event>
<event>
 8    1  0.1161093E+005  0.1043930E+01  0.7957747E-01            NaN
         13   -1    0    0    0    0  0.00000000000E+00  0.00000000000E+00  0.74505805969E-08  0.10566000000E+00  0.10566000000E+00 0.  1.
     999900   -1    0    0    0    0 -0.00000000000E+00 -0.00000000000E+00 -0.74505805969E-08  0.93827000000E+00  0.93827000000E+00 0. -1.
     999902    2    1    2    0    0  0.18679895368E-01 -0.11979927412E-01  0.14567348584E-01  0.10173844769E+01  0.10170381060E+01 0.  0.
     999903    2    3    3    0    0  0.86118689700E-01 -0.78058821477E-01  0.57700851346E-01  0.13128351748E+00  0.19908927419E-01 0.  0.
         14    1    1    2    0    0 -0.18679895368E-01  0.11979927412E-01 -0.14567348584E-01  0.26545523098E-01  0.00000000000E+00 0. -1.
     999901    1    3    3    0    0 -0.67438794331E-01  0.66078894065E-01 -0.43133502762E-01  0.88610095942E+00  0.88000000000E+00 0. -1.
        -11    1    4    4    0    0  0.49822305364E-01 -0.57890717605E-01  0.38456577354E-01  0.85514716625E-01  0.51100000000E-03 0. -1.
         11    1    4    4    0    0  0.36296384335E-01 -0.20168103872E-01  0.19244273992E-01  0.45768800859E-01  0.51100000000E-03 0.  1.
</event>
<event>
 8    1  0.1161093E+005  0.1043930E+01  0.7957747E-01            NaN
         13   -1    0    0    0    0  0.00000000000E+00  0.00000000000E+00  0.74505805969E-08  0.10566000000E+00  0.10566000000E+00 0.  1.
     999900   -1    0    0    0    0 -0.00000000000E+00 -0.00000000000E+00 -0.74505805969E-08  0.93827000000E+00  0.93827000000E+00 0.  1.
     999902    2    1    2    0    0 -0.20859459979E-01  0.49592212592E-02 -0.97145834813E-02  0.10203910094E+01  0.10201194675E+01 0.  0.
     999903    2    3    3    0    0  0.11317885322E+00 -0.35179278745E-01  0.42366559921E-01  0.12781618672E+00  0.22248993641E-01 0.  0.
         14    1    1    2    0    0  0.20859459979E-01 -0.49592212592E-02  0.97145834813E-02  0.23538990597E-01  0.00000000000E+00 0.  1.
     999901    1    3    3    0    0 -0.13403831320E+00  0.40138500005E-01 -0.52081143402E-01  0.89257482268E+00  0.88000000000E+00 0.  1.
        -11    1    4    4    0    0  0.91170057702E-01 -0.23734853697E-01  0.41617300689E-01  0.10299312375E+00  0.51100000000E-03 0.  1.
         11    1    4    4    0    0  0.22008795522E-01 -0.11444425048E-01  0.74925923223E-03  0.24823062974E-01  0.51100000000E-03 0. -1.
</event>
<event>
 8    1  0.1161093E+005  0.1043930E+01  0.7957747E-01            NaN
         13   -1    0    0    0    0  0.00000000000E+00  0.00000000000E+00  0.74505805969E-08  0.10566000000E+00  0.10566000000E+00 0.  1.
     999900   -1    0    0    0    0 -0.00000000000E+00 -0.00000000000E+00 -0.74505805969E-08  0.93827000000E+00  0.93827000000E+00 0. -1.
     999902    2    1    2    0    0  0.14745505738E-01 -0.67890043813E-02 -0.13678867806E-01  0.10227019067E+01  0.10224815686E+01 0.  0.
     999903    2    3    3    0    0 -0.36156900784E-01 -0.12344223381E+00  0.25666365210E-01  0.13267545863E+00  0.19967685380E-01 0.  0.
         14    1    1    2    0    0 -0.14745505738E-01  0.67890043813E-02  0.13678867806E-01  0.21228093283E-01  0.00000000000E+00 0.  1.
     999901    1    3    3    0    0  0.50902406522E-01  0.11665322942E+00 -0.39345233017E-01  0.89002644808E+00  0.88000000000E+00 0.  1.
        -11    1    4    4    0    0 -0.93174701580E-02 -0.18161081502E-01  0.10539537709E-01  0.22977883009E-01  0.51100000000E-03 0.  1.
         11    1    4    4    0    0 -0.26839430626E-01 -0.10528115230E+00  0.15126827501E-01  0.10969757563E+00  0.51100000000E-03 0. -1.
</event>
<event>
 8    1  0.1161093E+005  0.1043930E+01  0.7957747E-01            NaN
         13   -1    0    0    0    0  0.00000000000E+00  0.00000000000E+00  0.74505805969E-08  0.10566000000E+00  0.10566000000E+00 0. -1.
     999900   -1    0    0    0    0 -0.00000000000E+00 -0.00000000000E+00 -0.74505805969E-08  0.93827000000E+00  0.93827000000E+00 0. -1.
     999902    2    1    2    0    0 -0.22299129855E-01 -0.63721442840E-02 -0.78064742956E-02  0.10194596821E+01  0.10191659566E+01 0.  0.
     999903    2    3    3    0    0 -0.42294911604E-01 -0.67475252445E-01 -0.10325046068E+00  0.13196716068E+00  0.20320054832E-01 0.  0.
         14    1    1    2    0    0  0.22299129855E-01  0.63721442840E-02  0.78064742956E-02  0.24470317857E-01  0.00000000000E+00 0. -1.
     999901    1    3    3    0    0  0.19995781749E-01  0.61103108161E-01  0.95443986381E-01  0.88749252146E+00  0.88000000000E+00 0.  1.
        -11    1    4    4    0    0 -0.29031366307E-02 -0.60936152016E-02 -0.20862891074E-01  0.21933574572E-01  0.51100000000E-03 0. -1.
         11    1    4    4    0    0 -0.39391774973E-01 -0.61381637243E-01 -0.82387569602E-01  0.11003358611E+00  0.51100000000E-03 0.  1.
</event>
<event>
 8    1  0.1161093E+005  0.1043930E+01  0.7957747E-01            NaN
         13   -1    0    0    0    0  0.00000000000E+00  0.00000000000E+00  0.74505805969E-08  0.10566000000E+00  0.10566000000E+00 0. -1.
     999900   -1    0    0    0    0 -0.00000000000E+00 -0.00000000000E+00 -0.74505805969E-08  0.93827000000E+00  0.93827000000E+00 0.  1.
     999902    2    1    2    0    0  0.21351282229E-01 -0.11621105750E-01  0.49585386244E-02  0.10191204362E+01  0.10188184082E+01 0.  0.
     999903    2    3    3    0    0  0.55725708130E-01 -0.11726471781E+00  0.15307640144E-01  0.13207518489E+00  0.18792605692E-01 0.  0.
         14    1    1    2    0    0 -0.21351282229E-01  0.11621105750E-01 -0.49585386244E-02  0.24809563821E-01  0.00000000000E+00 0.  1.
     999901    1    3    3    0    0 -0.34374425901E-01  0.10564361206E+00 -0.10349101520E-01  0.88704525128E+00  0.88000000000E+00 0.  1.
        -11    1    4    4    0    0  0.30635479596E-01 -0.48355117336E-01  0.12995603769E-01  0.58701761651E-01  0.51100000000E-03 0.  1.
         11    1    4    4    0    0  0.25090228535E-01 -0.68909600473E-01  0.23120363755E-02  0.73373423243E-01  0.51100000000E-03 0. -1.
</event>
<event>
 8    1  0.1161093E+005  0.1043930E+01  0.7957747E-01            NaN
         13   -1    0    0    0    0  0.00000000000E+00  0.00000000000E+00  0.74505805969E-08  0.10566000000E+00  0.10566000000E+00 0. -1.
     999900   -1    0    0    0    0 -0.00000000000E+00 -0.00000000000E+00 -0.74505805969E-08  0.93827000000E+00  0.93827000000E+00 0. -1.
     999902    2    1    2    0    0  0.13579216429E-01  0.32746037876E-02 -0.20810901000E-01  0.10188658473E+01  0.10185575109E+01 0.  0.
     999903    2    3    3    0    0  0.56233806277E-01  0.79464535928E-01 -0.86913195691E-01  0.13207735329E+00  0.20338884634E-01 0.  0.
         14    1    1    2    0    0 -0.13579216429E-01 -0.32746037876E-02  0.20810901000E-01  0.25064152673E-01  0.00000000000E+00 0. -1.
     999901    1    3    3    0    0 -0.42654589847E-01 -0.76189932140E-01  0.66102294691E-01  0.88678849404E+00  0.88000000000E+00 0.  1.
        -11    1    4    4    0    0  0.52034908455E-01  0.66101007447E-01 -0.66118139246E-01  0.10699927262E+00  0.51100000000E-03 0.  1.
         11    1    4    4    0    0  0.41988978211E-02  0.13363528481E-01 -0.20795056445E-01  0.25078080667E-01  0.51100000000E-03 0. -1.
</event>
<event>
 8    1  0.1161093E+005  0.1043930E+01  0.7957747E-01            NaN
         13   -1    0    0    0    0  0.00000000000E+00  0.00000000000E+00  0.74505805969E-08  0.10566000000E+00  0.10566000000E+00 0.  1.
     999900   -1    0    0    0    0 -0.00000000000E+00 -0.00000000000E+00 -0.74505805969E-08  0.93827000000E+00  0.93827000000E+00 0.  1.
     999902    2    1    2    0    0  0.11838036796E-01 -0.19887873016E-01  0.70375614007E-02  0.10197392191E+01  0.10194522457E+01 0.  0.
     999903    2    3    3    0    0 -0.67178966354E-01  0.10468992595E+00 -0.16438610128E-01  0.12715059866E+00  0.20592540425E-01 0.  0.
         14    1    1    2    0    0 -0.11838036796E-01  0.19887873016E-01 -0.70375614007E-02  0.24190780863E-01  0.00000000000E+00 0.  1.
     999901    1    3    3    0    0  0.79017003150E-01 -0.12457779896E+00  0.23476171529E-01  0.89258862048E+00  0.88000000000E+00 0. -1.
        -11    1    4    4    0    0 -0.35365776719E-01  0.73291661649E-01 -0.10220433459E-01  0.82019047857E-01  0.51100000000E-03 0. -1.
         11    1    4    4    0    0 -0.31813189636E-01  0.31398264296E-01 -0.62181766697E-02  0.45131550801E-01  0.51100000000E-03 0.  1.
</event>
<event>
 8    1  0.1161093E+005  0.1043930E+01  0.7957747E-01            NaN
         13   -1    0    0    0    0  0.00000000000E+00  0.00000000000E+00  0.74505805969E-08  0.10566000000E+00  0.10566000000E+00 0. -1.
     999900   -1    0    0    0    0 -0.00000000000E+00 -0.00000000000E+00 -0.74505805969E-08  0.93827000000E+00  0.93827000000E+00 0. -1.
     999902    2    1    2    0    0  0.11511012319E-01  0.42984450793E-02  0.19867978585E-01  0.10205694219E+01  0.10203020280E+01 0.  0.
     999903    2    3    3    0    0 -0.88303706994E-01  0.91204254067E-01  0.28206560462E-01  0.13063395810E+00  0.12404044829E-01 0.  0.
         14    1    1    2    0    0 -0.11511012319E-01 -0.42984450793E-02 -0.19867978585E-01  0.23360578070E-01  0.00000000000E+00 0.  1.
     999901    1    3    3    0    0  0.99814719314E-01 -0.86905808987E-01 -0.83385818775E-02  0.88993546383E+00  0.88000000000E+00 0.  1.
        -11    1    4    4    0    0 -0.44679336796E-01  0.38663888287E-01  0.16469606694E-01  0.61340430873E-01  0.51100000000E-03 0. -1.
         11    1    4    4    0    0 -0.43624370199E-01  0.52540365779E-01  0.11736953768E-01  0.69293527232E-01  0.51100000000E-03 0.  1.
</event>
<event>
 8    1  0.1161093E+005  0.1043930E+01  0.7957747E-01            NaN
         13   -1    0    0    0    0  0.00000000000E+00  0.00000000000E+00  0.74505805969E-08  0.10566000000E+00  0.10566000000E+00 0.  1.
     999900   -1    0    0    0    0 -0.00000000000E+00 -0.00000000000E+00 -0.74505805969E-08  0.93827000000E+00  0.93827000000E+00 0.  1.
     999902    2    1    2    0    0 -0.11547156078E-01 -0.72302519807E-02  0.19942150390E-01  0.10197783392E+01  0.10194923042E+01 0.  0.
     999903    2    3    3    0    0  0.11873786197E+00 -0.13449727655E-01 -0.41375854575E-01  0.12805373735E+00  0.20154981280E-01 0.  0.
         14    1    1    2    0    0  0.11547156078E-01  0.72302519807E-02 -0.19942150390E-01  0.24151660800E-01  0.00000000000E+00 0. -1.
     999901    1    3    3    0    0 -0.13028501804E+00  0.62194756746E-02  0.61318004965E-01  0.89172460185E+00  0.88000000000E+00 0. -1.
        -11    1    4    4    0    0  0.10831234435E+00 -0.12563199572E-01 -0.31120163080E-01  0.11339366646E+00  0.51100000000E-03 0. -1.
         11    1    4    4    0    0  0.10425517617E-01 -0.88652808371E-03 -0.10255691495E-01  0.14660070895E-01  0.51100000000E-03 0.  1.
</event>
<event>
 8    1  0.1161093E+005  0.1043930E+01  0.7957747E-01            NaN
         13   -1    0    0    0    0  0.00000000000E+00  0.00000000000E+00  0.74505805969E-08  0.10566000000E+00  0.10566000000E+00 0.  1.
     999900   -1    0    0    0    0 -0.00000000000E+00 -0.00000000000E+00 -0.74505805969E-08  0.93827000000E+00  0.93827000000E+00 0.  1.
     999902    2    1    2    0    0 -0.88951888540E-02  0.20336790193E-01 -0.98056729287E-03  0.10217112932E+01  0.10214696744E+01 0.  0.
     999903    2    3    3    0    0  0.74035819356E-01 -0.10338318821E+00 -0.50048030583E-02  0.12918657104E+00  0.22242660181E-01 0.  0.
         14    1    1    2    0    0  0.88951888540E-02 -0.20336790193E-01  0.98056729287E-03  0.22218706810E-01  0.00000000000E+00 0.  1.
     999901    1    3    3    0    0 -0.82931008210E-01  0.12371997840E+00  0.40242357654E-02  0.89252472215E+00  0.88000000000E+00 0.  1.
        -11    1    4    4    0    0  0.24548744247E-01 -0.30247418289E-01 -0.11557125331E-01  0.40637118798E-01  0.51100000000E-03 0.  1.
         11    1    4    4    0    0  0.49487075109E-01 -0.73135769916E-01  0.65523222723E-02  0.88549452241E-01  0.51100000000E-03 0. -1.
</event>
<event>
 8    1  0.1161093E+005  0.1043930E+01  0.7957747E-01            NaN
         13   -1    0    0    0    0  0.00000000000E+00  0.00000000000E+00  0.74505805969E-08  0.10566000000E+00  0.10566000000E+00 0. -1.
     999900   -1    0    0    0    0 -0.00000000000E+00 -0.00000000000E+00 -0.74505805969E-08  0.93827000000E+00  0.93827000000E+00 0. -1.
     999902    2    1    2    0    0 -0.20683887957E-01 -0.58053540929E-02 -0.10653140847E-01  0.10199505345E+01  0.10196686119E+01 0.  0.
     999903    2    3    3    0    0 -0.45278843298E-01  0.11413273794E+00  0.38369047199E-01  0.13012289236E+00  0.19578759212E-01 0.  0.
         14    1    1    2    0    0  0.20683887957E-01  0.58053540929E-02  0.10653140847E-01  0.23979465530E-01  0.00000000000E+00 0. -1.
     999901    1    3    3    0    0  0.24594955341E-01 -0.11993809203E+00 -0.49022188046E-01  0.88982764211E+00  0.88000000000E+00 0.  1.
        -11    1    4    4    0    0 -0.15966238994E-01  0.20036620838E-01  0.10574001269E-01  0.27721067549E-01  0.51100000000E-03 0. -1.
         11    1    4    4    0    0 -0.29312604304E-01  0.94096117102E-01  0.27795045930E-01  0.10240182481E+00  0.51100000000E-03 0.  1.
</event>
<event>
 8    1  0.1161093E+005  0.1043930E+01  0.7957747E-01            NaN
         13   -1    0    0    0    0  0.00000000000E+00  0.00000000000E+00  0.74505805969E-08  0.10566000000E+00  0.10566000000E+00 0. -1.
     999900   -1    0    0    0    0 -0.00000000000E+00 -0.00000000000E+00 -0.74505805969E-08  0.93827000000E+00  0.93827000000E+00 0. -1.
     999902    2    1    2    0    0 -0.13115051552E-01 -0.10939490566E-01  0.15466669477E-01  0.10208888434E+01  0.10206287943E+01 0.  0.
     999903    2    3    3    0    0  0.36173141297E-01 -0.91077117165E-01 -0.83604895893E-01  0.13034600886E+00  0.19918985572E-01 0.  0.
         14    1    1    2    0    0  0.13115051552E-01  0.10939490566E-01 -0.15466669477E-01  0.23041156563E-01  0.00000000000E+00 0. -1.
     999901    1    3    3    0    0 -0.49288192849E-01  0.80137626599E-01  0.99071565370E-01  0.89054283458E+00  0.88000000000E+00 0.  1.
        -11    1    4    4    0    0  0.22507687755E-01 -0.58795615363E-01 -0.65639775005E-01  0.90952523757E-01  0.51100000000E-03 0.  1.
         11    1    4    4    0    0  0.13665453542E-01 -0.32281501802E-01 -0.17965120888E-01  0.39393485104E-01  0.51100000000E-03 0. -1.
</event>
<event>
 8    1  0.1161093E+005  0.1043930E+01  0.7957747E-01            NaN
         13   -1    0    0    0    0  0.00000000000E+00  0.00000000000E+00  0.74505805969E-08  0.10566000000E+00  0.10566000000E+00 0. -1.
     999900   -1    0    0    0    0 -0.00000000000E+00 -0.00000000000E+00 -0.74505805969E-08  0.93827000000E+00  0.93827000000E+00 0.  1.
     999902    2    1    2    0    0  0.71405351482E-02 -0.19865287901E-01 -0.13253233002E-01  0.10190048101E+01  0.10186999254E+01 0.  0.
     999903    2    3    3    0    0  0.11303592439E+00  0.26792527390E-01 -0.55977750738E-01  0.13040131609E+00  0.19391620183E-01 0.  0.
         14    1    1    2    0    0 -0.71405351482E-02  0.19865287901E-01  0.13253233002E-01  0.24925189881E-01  0.00000000000E+00 0. -1.
     999901    1    3    3    0    0 -0.10589538924E+00 -0.46657815290E-01  0.42724517736E-01  0.88860349403E+00  0.88000000000E+00 0.  1.
        -11    1    4    4    0    0  0.98463071541E-01  0.28540444390E-01 -0.44485506676E-01  0.11175309771E+00  0.51100000000E-03 0. -1.
         11    1    4    4    0    0  0.14572852847E-01 -0.17479170003E-02 -0.11492244061E-01  0.18648218374E-01  0.51100000000E-03 0.  1.
</event>
<event>
 8    1  0.1161093E+005  0.1043930E+01  0.7957747E-01            NaN
         13   -1    0    0    0    0  0.00000000000E+00  0.00000000000E+00  0.74505805969E-08  0.10566000000E+00  0.10566000000E+00 0. -1.
     999900   -1    0    0    0    0 -0.00000000000E+00 -0.00000000000E+00 -0.74505805969E-08  0.93827000000E+00  0.93827000000E+00 0.  1.
     999902    2    1    2    0    0  0.20175494322E-01  0.60358768394E-02 -0.11536530602E-01  0.10199180463E+01  0.10196353502E+01 0.  0.
     999903    2    3    3    0    0 -0.10540584404E-01  0.93776071761E-01 -0.89631655862E-01  0.13158214822E+00  0.19364205196E-01 0.  0.
         14    1    1    2    0    0 -0.20175494322E-01 -0.60358768394E-02  0.11536530602E-01  0.24011953663E-01  0.00000000000E+00 0. -1.
     999901    1    3    3    0    0  0.30716078726E-01 -0.87740194922E-01  0.78095125260E-01  0.88833589812E+00  0.88000000000E+00 0. -1.
        -11    1    4    4    0    0  0.41201574547E-02  0.23797420852E-01 -0.29723316436E-01  0.38301822380E-01  0.51100000000E-03 0.  1.
         11    1    4    4    0    0 -0.14660741858E-01  0.69978650909E-01 -0.59908339426E-01  0.93280325839E-01  0.51100000000E-03 0. -1.
</event>
<event>
 8    1  0.1161093E+005  0.1043930E+01  0.7957747E-01            NaN
         13   -1    0    0    0    0  0.00000000000E+00  0.00000000000E+00  0.74505805969E-08  0.10566000000E+00  0.10566000000E+00 0. -1.
     999900   -1    0    0    0    0 -0.00000000000E+00 -0.00000000000E+00 -0.74505805969E-08  0.93827000000E+00  0.93827000000E+00 0. -1.
     999902    2    1    2    0    0  0.15025661968E-01 -0.15105487471E-01  0.60738216071E-02  0.10217751455E+01  0.10215349286E+01 0.  0.
     999903    2    3    3    0    0 -0.35993979141E-01 -0.10682245919E+00 -0.66891384954E-01  0.13254012141E+00  0.19642354271E-01 0.  0.
         14    1    1    2    0    0 -0.15025661968E-01  0.15105487471E-01 -0.60738216071E-02  0.22154854507E-01  0.00000000000E+00 0.  1.
     999901    1    3    3    0    0  0.51019641109E-01  0.91716971720E-01  0.72965206561E-01  0.88923502408E+00  0.88000000000E+00 0.  1.
        -11    1    4    4    0    0 -0.19605524532E-01 -0.45898394283E-01 -0.39970368926E-01  0.63944747267E-01  0.51100000000E-03 0. -1.
         11    1    4    4    0    0 -0.16388454610E-01 -0.60924064908E-01 -0.26921016028E-01  0.68595374147E-01  0.51100000000E-03 0.  1.
</event>
<event>
 8    1  0.1161093E+005  0.1043930E+01  0.7957747E-01            NaN
         13   -1    0    0    0    0  0.00000000000E+00  0.00000000000E+00  0.74505805969E-08  0.10566000000E+00  0.10566000000E+00 0. -1.
     999900   -1    0    0    0    0 -0.00000000000E+00 -0.00000000000E+00 -0.74505805969E-08  0.93827000000E+00  0.93827000000E+00 0.  1.
     999902    2    1    2    0    0  0.35835577754E-02 -0.16562112808E-01 -0.89679834277E-02  0.10247578798E+01  0.10245785192E+01 0.  0.
     999903    2    3    3    0    0  0.11697287190E+00 -0.60186252830E-01  0.26751150214E-01  0.13569316973E+00  0.19798345478E-01 0.  0.
         14    1    1    2    0    0 -0.35835577754E-02  0.16562112808E-01  0.89679834277E-02  0.19172120221E-01  0.00000000000E+00 0.  1.
     999901    1    3    3    0    0 -0.11338931412E+00  0.43624140023E-01 -0.35719133642E-01  0.88906471005E+00  0.88000000000E+00 0.  1.
        -11    1    4    4    0    0  0.35916309717E-01 -0.23939983406E-01  0.75696963046E-03  0.43173350960E-01  0.51100000000E-03 0.  1.
         11    1    4    4    0    0  0.81056562180E-01 -0.36246269425E-01  0.25994180584E-01  0.92519818768E-01  0.51100000000E-03 0. -1.
</event>
<event>
 8    1  0.1161093E+005  0.1043930E+01  0.7957747E-01            NaN
         13   -1    0    0    0    0  0.00000000000E+00  0.00000000000E+00  0.74505805969E-08  0.10566000000E+00  0.10566000000E+00 0.  1.
     999900   -1    0    0    0    0 -0.00000000000E+00 -0.00000000000E+00 -0.74505805969E-08  0.93827000000E+00  0.93827000000E+00 0. -1.
     999902    2    1    2    0    0 -0.26899603147E-02 -0.22838865336E-01 -0.40110782784E-02  0.10205860842E+01  0.10203190760E+01 0.  0.
     999903    2    3    3    0    0  0.57818550516E-01 -0.16471593222E-01 -0.11528606163E+00  0.13149444439E+00  0.19637075510E-01 0.  0.
         14    1    1    2    0    0  0.26899603147E-02  0.22838865336E-01  0.40110782784E-02  0.23343915809E-01  0.00000000000E+00 0.  1.
     999901    1    3    3    0    0 -0.60508510830E-01 -0.63672721142E-02  0.11127498335E+00  0.88909163980E+00  0.88000000000E+00 0.  1.
        -11    1    4    4    0    0  0.38995400256E-01 -0.22519904730E-02 -0.80262555761E-01  0.89263943900E-01  0.51100000000E-03 0. -1.
         11    1    4    4    0    0  0.18823150259E-01 -0.14219602749E-01 -0.35023505865E-01  0.42230500495E-01  0.51100000000E-03 0.  1.
</event>
<event>
 8    1  0.1161093E+005  0.1043930E+01  0.7957747E-01            NaN
         13   -1    0    0    0    0  0.00000000000E+00  0.00000000000E+00  0.74505805969E-08  0.10566000000E+00  0.10566000000E+00 0. -1.
     999900   -1    0    0    0    0 -0.00000000000E+00 -0.00000000000E+00 -0.74505805969E-08  0.93827000000E+00  0.93827000000E+00 0.  1.
     999902    2    1    2    0    0 -0.20019649059E-01 -0.10317993097E-01 -0.80187902368E-03  0.10213935775E+01  0.10211449210E+01 0.  0.
     999903    2    3    3    0    0  0.74763952652E-01 -0.61188177982E-02 -0.10450097188E+00  0.13023979385E+00  0.20368167060E-01 0.  0.
         14    1    1    2    0    0  0.20019649059E-01  0.10317993097E-01  0.80187902368E-03  0.22536422519E-01  0.00000000000E+00 0. -1.
     999901    1    3    3    0    0 -0.94783601710E-01 -0.41991752985E-02  0.10369909286E+00  0.89115378363E+00  0.88000000000E+00 0. -1.
        -11    1    4    4    0    0  0.30005975298E-01  0.72616224116E-02 -0.45384086819E-01  0.54891403435E-01  0.51100000000E-03 0. -1.
         11    1    4    4    0    0  0.44757977354E-01 -0.13380440210E-01 -0.59116885064E-01  0.75348390412E-01  0.51100000000E-03 0.  1.
</event>
<event>
 8    1  0.1161093E+005  0.1043930E+01  0.7957747E-01            NaN
         13   -1    0    0    0    0  0.00000000000E+00  0.00000000000E+00  0.74505805969E-08  0.10566000000E+00  0.10566000000E+00 0.  1.
     999900   -1    0    0    0    0 -0.00000000000E+00 -0.00000000000E+00 -0.74505805969E-08  0.93827000000E+00  0.93827000000E+00 0. -1.
     999902    2    1    2    0    0  0.20767109944E-01  0.59682023236E-03  0.10315286475E-01  0.10207344361E+01  0.10204708496E+01 0.  0.
     999903    2    3    3    0    0  0.95546572789E-02  0.12440957765E+00  0.37165967568E-01  0.13159087228E+00  0.19126265583E-01 0.  0.
         14    1    1    2    0    0 -0.20767109944E-01 -0.59682023236E-03 -0.10315286475E-01  0.23195563905E-01  0.00000000000E+00 0. -1.
     999901    1    3    3    0    0  0.11212452665E-01 -0.12381275742E+00 -0.26850681093E-01  0.88914356381E+00  0.88000000000E+00 0. -1.
        -11    1    4    4    0    0 -0.33228775646E-02  0.77007501242E-01  0.24088627366E-01  0.80757165949E-01  0.51100000000E-03 0. -1.
         11    1    4    4    0    0  0.12877534843E-01  0.47402076412E-01  0.13077340202E-01  0.50833706333E-01  0.51100000000E-03 0.  1.
</event>
<event>
 8    1  0.1161093E+005  0.1043930E+01  0.7957747E-01            NaN
         13   -1    0    0    0    0  0.00000000000E+00  0.00000000000E+00  0.74505805969E-08  0.10566000000E+00  0.10566000000E+00 0.  1.
     999900   -1    0    0    0    0 -0.00000000000E+00 -0.00000000000E+00 -0.74505805969E-08  0.93827000000E+00  0.93827000000E+00 0. -1.
     999902    2    1    2    0    0  0.40774290375E-02  0.98596244203E-02  0.21179416840E-01  0.10202149137E+01  0.10199392456E+01 0.  0.
     999903    2    3    3    0    0  0.27547368607E-01 -0.91930944588E-01 -0.81976810526E-01  0.12805272818E+00  0.21613598501E-01 0.  0.
         14    1    1    2    0    0 -0.40774290375E-02 -0.98596244203E-02 -0.21179416840E-01  0.23715086315E-01  0.00000000000E+00 0. -1.
     999901    1    3    3    0    0 -0.23469939569E-01  0.10179056901E+00  0.10315622737E+00  0.89216218551E+00  0.88000000000E+00 0.  1.
        -11    1    4    4    0    0  0.28055113538E-04 -0.14503092679E-01 -0.21848889178E-01  0.26229288280E-01  0.51100000000E-03 0. -1.
         11    1    4    4    0    0  0.27519313493E-01 -0.77427851909E-01 -0.60127921348E-01  0.10182343990E+00  0.51100000000E-03 0.  1.
</event>
<event>
 8    1  0.1161093E+005  0.1043930E+01  0.7957747E-01            NaN
         13   -1    0    0    0    0  0.00000000000E+00  0.00000000000E+00  0.74505805969E-08  0.10566000000E+00  0.10566000000E+00 0.  1.
     999900   -1    0    0    0    0 -0.00000000000E+00 -0.00000000000E+00 -0.74505805969E-08  0.93827000000E+00  0.93827000000E+00 0. -1.
     999902    2    1    2    0    0  0.45830804890E-02  0.20653343457E-01 -0.10775008468E-01  0.10201883482E+01  0.10199120549E+01 0.  0.
     999903    2    3    3    0    0 -0.55655836969E-01 -0.66805943224E-01  0.91603049506E-01  0.12791085730E+00  0.20235179729E-01 0.  0.
         14    1    1    2    0    0 -0.45830804890E-02 -0.20653343457E-01  0.10775008468E-01  0.23741651801E-01  0.00000000000E+00 0.  1.
     999901    1    3    3    0    0  0.60238917458E-01  0.87459286682E-01 -0.10237805797E+00  0.89227749090E+00  0.88000000000E+00 0. -1.
        -11    1    4    4    0    0 -0.22107814286E-01 -0.12445895493E-01  0.24860466755E-01  0.35524072055E-01  0.51100000000E-03 0.  1.
         11    1    4    4    0    0 -0.33548022683E-01 -0.54360047732E-01  0.66742582751E-01  0.92386785249E-01  0.51100000000E-03 0. -1.
</event>
<event>
 8    1  0.1161093E+005  0.1043930E+01  0.7957747E-01            NaN
         13   -1    0    0    0    0  0.00000000000E+00  0.00000000000E+00  0.74505805969E-08  0.10566000000E+00  0.10566000000E+00 0.  1.
     999900   -1    0    0    0    0 -0.00000000000E+00 -0.00000000000E+00 -0.74505805969E-08  0.93827000000E+00  0.93827000000E+00 0. -1.
     999902    2    1    2    0    0  0.14779021795E-01  0.11134870855E-01 -0.13981697200E-01  0.10207374863E+01  0.10204739699E+01 0.  0.
     999903    2    3    3    0    0  0.10237152486E+00 -0.50128771162E-01 -0.65190931824E-01  0.13279150478E+00  0.19771275879E-01 0.  0.
         14    1    1    2    0    0 -0.14779021795E-01 -0.11134870855E-01  0.13981697200E-01  0.23192513680E-01  0.00000000000E+00 0. -1.
     999901    1    3    3    0    0 -0.87592503060E-01  0.61263642017E-01  0.51209234624E-01  0.88794598154E+00  0.88000000000E+00 0.  1.
        -11    1    4    4    0    0  0.16686939894E-01 -0.97122726655E-03 -0.69034193124E-02  0.18091864598E-01  0.51100000000E-03 0.  1.
         11    1    4    4    0    0  0.85684584962E-01 -0.49157543895E-01 -0.58287512511E-01  0.11469964018E+00  0.51100000000E-03 0. -1.
</event>
<event>
 8    1  0.1161093E+005  0.1043930E+01  0.7957747E-01            NaN
         13   -1    0    0    0    0  0.00000000000E+00  0.00000000000E+00  0.74505805969E-08  0.10566000000E+00  0.10566000000E+00 0. -1.
     999900   -1    0    0    0    0 -0.00000000000E+00 -0.00000000000E+00 -0.74505805969E-08  0.93827000000E+00  0.93827000000E+00 0. -1.
     999902    2    1    2    0    0  0.18378636185E-01 -0.15113414769E-01  0.94683894895E-02  0.10183206272E+01  0.10179985559E+01 0.  0.
     999903    2    3    3    0    0  0.58483959962E-01  0.83321869110E-01 -0.74614181804E-01  0.12794552600E+00  0.20973174566E-01 0.  0.
         14    1    1    2    0    0 -0.18378636185E-01  0.15113414769E-01 -0.94683894895E-02  0.25609372767E-01  0.00000000000E+00 0. -1.
     999901    1    3    3    0    0 -0.40105323777E-01 -0.98435283878E-01  0.84082571294E-01  0.89037510124E+00  0.88000000000E+00 0.  1.
        -11    1    4    4    0    0  0.41496904924E-01  0.41269562094E-01 -0.44052433078E-01  0.73253312927E-01  0.51100000000E-03 0.  1.
         11    1    4    4    0    0  0.16987055038E-01  0.42052307016E-01 -0.30561748727E-01  0.54692213070E-01  0.51100000000E-03 0. -1.
</event>
<event>
 7    1  0.1161093E+005  0.1043930E+01  0.7957747E-01            NaN
         13   -1    0    0    0    0  0.00000000000E+00  0.00000000000E+00  0.74505805969E-08  0.10566000000E+00  0.10566000000E+00 0.  1.
     999900   -1    0    0    0    0 -0.00000000000E+00 -0.00000000000E+00 -0.74505805969E-08  0.93827000000E+00  0.93827000000E+00 0.  1.
     999902    2    1    2    0    0 -0.18086643923E-01  0.38169970852E-03 -0.15437657060E-01  0.10201477873E+01  0.10198705381E+01 0.  0.
         14    1    1    2    0    0  0.18086643923E-01 -0.38169970852E-03  0.15437657060E-01  0.23782212651E-01  0.00000000000E+00 0. -1.
     999901    1    3    3    0    0  0.93397145725E-01  0.51879867926E-01 -0.48598155720E-01  0.88779295349E+00  0.88000000000E+00 0.  1.
        -11    1    3    3    0    0 -0.68227851674E-01 -0.11459383793E-01  0.18404945601E-01  0.71591622167E-01  0.51100000000E-03 0. -1.
         11    1    3    3    0    0 -0.43255937973E-01 -0.40038784425E-01  0.14755553059E-01  0.60763211693E-01  0.51100000000E-03 0.  1.
</event>
<event>
 8    1  0.1161093E+005  0.1043930E+01  0.7957747E-01            NaN
         13   -1    0    0    0    0  0.00000000000E+00  0.00000000000E+00  0.74505805969E-08  0.10566000000E+00  0.10566000000E+00 0. -1.
     999900   -1    0    0    0    0 -0.00000000000E+00 -0.00000000000E+00 -0.74505805969E-08  0.93827000000E+00  0.93827000000E+00 0.  1.
     999902    2    1    2    0    0 -0.18703944117E-01  0.16715069045E-02 -0.14106875009E-01  0.10204430806E+01  0.10201727527E+01 0.  0.
     999903    2    3    3    0    0  0.14941074064E-01  0.12800820567E+00 -0.87728846554E-02  0.13076819606E+00  0.20347510525E-01 0.  0.
         14    1    1    2    0    0  0.18703944117E-01 -0.16715069045E-02  0.14106875009E-01  0.23486919410E-01  0.00000000000E+00 0.  1.
     999901    1    3    3    0    0 -0.33645018180E-01 -0.12633669876E+00 -0.53339903537E-02  0.88967488453E+00  0.88000000000E+00 0.  1.
        -11    1    4    4    0    0  0.13043759623E-01  0.53932611657E-01 -0.11277275301E-01  0.56624237959E-01  0.51100000000E-03 0.  1.
         11    1    4    4    0    0  0.18973144404E-02  0.74075594010E-01  0.25043906458E-02  0.74143958105E-01  0.51100000000E-03 0. -1.
</event>
<event>
 8    1  0.1161093E+005  0.1043930E+01  0.7957747E-01            NaN
         13   -1    0    0    0    0  0.00000000000E+00  0.00000000000E+00  0.74505805969E-08  0.10566000000E+00  0.10566000000E+00 0.  1.
     999900   -1    0    0    0    0 -0.00000000000E+00 -0.00000000000E+00 -0.74505805969E-08  0.93827000000E+00  0.93827000000E+00 0. -1.
     999902    2    1    2    0    0  0.20358922417E-01  0.99282760079E-02 -0.48565643385E-02  0.10207644522E+01  0.10205015553E+01 0.  0.
     999903    2    3    3    0    0 -0.71790970265E-01 -0.10382138656E+00  0.12768630228E-01  0.12849698339E+00  0.20386591294E-01 0.  0.
         14    1    1    2    0    0 -0.20358922417E-01 -0.99282760079E-02  0.48565643385E-02  0.23165547774E-01  0.00000000000E+00 0.  1.
     999901    1    3    3    0    0  0.92149892683E-01  0.11374966257E+00 -0.17625194566E-01  0.89226746883E+00  0.88000000000E+00 0.  1.
        -11    1    4    4    0    0 -0.28618729963E-01 -0.36246428881E-01  0.14118943863E-01  0.48295351827E-01  0.51100000000E-03 0.  1.
         11    1    4    4    0    0 -0.43172240303E-01 -0.67574957677E-01 -0.13503136354E-02  0.80201631566E-01  0.51100000000E-03 0. -1.
</event>
<event>
 8    1  0.1161093E+005  0.1043930E+01  0.7957747E-01            NaN
         13   -1    0    0    0    0  0.00000000000E+00  0.00000000000E+00  0.74505805969E-08  0.10566000000E+00  0.10566000000E+00 0.  1.
     999900   -1    0    0    0    0 -0.00000000000E+00 -0.00000000000E+00 -0.74505805969E-08  0.93827000000E+00  0.93827000000E+00 0.  1.
     999902    2    1    2    0    0  0.21287184551E-01  0.49624123324E-02  0.64017507341E-02  0.10211538683E+01  0.10208998338E+01 0.  0.
     999903    2    3    3    0    0 -0.29928811026E-01 -0.12000661226E+00 -0.33328304063E-01  0.12996431913E+00  0.21968788787E-01 0.  0.
         14    1    1    2    0    0 -0.21287184551E-01 -0.49624123324E-02 -0.64017507341E-02  0.22776131689E-01  0.00000000000E+00 0. -1.
     999901    1    3    3    0    0  0.51215995577E-01  0.12496902459E+00  0.39730054797E-01  0.89118954918E+00  0.88000000000E+00 0.  1.
        -11    1    4    4    0    0 -0.19805267381E-01 -0.64679200789E-01 -0.74690549360E-02  0.68056561281E-01  0.51100000000E-03 0.  1.
         11    1    4    4    0    0 -0.10123543645E-01 -0.55327411470E-01 -0.25859249127E-01  0.61907757852E-01  0.51100000000E-03 0. -1.
</event>
<event>
 8    1  0.1161093E+005  0.1043930E+01  0.7957747E-01            NaN
         13   -1    0    0    0    0  0.00000000000E+00  0.00000000000E+00  0.74505805969E-08  0.10566000000E+00  0.10566000000E+00 0.  1.
     999900   -1    0    0    0    0 -0.00000000000E+00 -0.00000000000E+00 -0.74505805969E-08  0.93827000000E+00  0.93827000000E+00 0. -1.
     999902    2    1    2    0    0  0.16494523082E-01 -0.16029557729E-01 -0.78174394728E-02  0.10196374420E+01  0.10193480195E+01 0.  0.
     999903    2    3    3    0    0  0.36078427351E-01 -0.11594707883E+00  0.46998539131E-01  0.13207232789E+00  0.22110158433E-01 0.  0.
         14    1    1    2    0    0 -0.16494523082E-01  0.16029557729E-01  0.78174394728E-02  0.24292557968E-01  0.00000000000E+00 0.  1.
     999901    1    3    3    0    0 -0.19583904268E-01  0.99917521097E-01 -0.54815978604E-01  0.88756511414E+00  0.88000000000E+00 0. -1.
        -11    1    4    4    0    0  0.38941190504E-01 -0.10210447565E+00  0.41326718020E-01  0.11683278225E+00  0.51100000000E-03 0. -1.
         11    1    4    4    0    0 -0.28627631536E-02 -0.13842603180E-01  0.56718211109E-02  0.15239545643E-01  0.51100000000E-03 0.  1.
</event>
<event>
 8    1  0.1161093E+005  0.1043930E+01  0.7957747E-01            NaN
         13   -1    0    0    0    0  0.00000000000E+00  0.00000000000E+00  0.74505805969E-08  0.10566000000E+00  0.10566000000E+00 0.  1.
     999900   -1    0    0    0    0 -0.00000000000E+00 -0.00000000000E+00 -0.74505805969E-08  0.93827000000E+00  0.93827000000E+00 0.  1.
     999902    2    1    2    0    0 -0.14101270402E-01 -0.12069859630E-02 -0.17904993795E-01  0.10211069536E+01  0.10208518596E+01 0.  0.
     999903    2    3    3    0    0 -0.14053257255E-01 -0.21537519854E-01  0.12509552108E+00  0.12933204922E+00  0.20409085205E-01 0.  0.
         14    1    1    2    0    0  0.14101270402E-01  0.12069859630E-02  0.17904993795E-01  0.22823046354E-01  0.00000000000E+00 0.  1.
     999901    1    3    3    0    0 -0.48013146758E-04  0.20330533891E-01 -0.14300051488E+00  0.89177490443E+00  0.88000000000E+00 0.  1.
        -11    1    4    4    0    0 -0.18451932416E-02 -0.16275533590E-01  0.40386600275E-01  0.43584817706E-01  0.51100000000E-03 0.  1.
         11    1    4    4    0    0 -0.12208064014E-01 -0.52619862637E-02  0.84708920808E-01  0.85747231511E-01  0.51100000000E-03 0. -1.
</event>
<event>
 8    1  0.1161093E+005  0.1043930E+01  0.7957747E-01            NaN
         13   -1    0    0    0    0  0.00000000000E+00  0.00000000000E+00  0.74505805969E-08  0.10566000000E+00  0.10566000000E+00 0. -1.
     999900   -1    0    0    0    0 -0.00000000000E+00 -0.00000000000E+00 -0.74505805969E-08  0.93827000000E+00  0.93827000000E+00 0. -1.
     999902    2    1    2    0    0 -0.23128036480E-01 -0.48803823405E-03 -0.47979970205E-02  0.10203044835E+01  0.10200309182E+01 0.  0.
     999903    2    3    3    0    0  0.35365426344E-01 -0.10787457797E+00  0.59096761130E-01  0.12955429733E+00  0.20105989867E-01 0.  0.
         14    1    1    2    0    0  0.23128036480E-01  0.48803823405E-03  0.47979970205E-02  0.23625516463E-01  0.00000000000E+00 0. -1.
     999901    1    3    3    0    0 -0.58493462823E-01  0.10738653973E+00 -0.63894758151E-01  0.89075018621E+00  0.88000000000E+00 0. -1.
        -11    1    4    4    0    0  0.67038642037E-02 -0.11039477057E-01  0.13686901287E-01  0.18825627129E-01  0.51100000000E-03 0. -1.
         11    1    4    4    0    0  0.28661562140E-01 -0.96835100910E-01  0.45409859844E-01  0.11072867020E+00  0.51100000000E-03 0.  1.
</event>
<event>
 8    1  0.1161093E+005  0.1043930E+01  0.7957747E-01            NaN
         13   -1    0    0    0    0  0.00000000000E+00  0.00000000000E+00  0.74505805969E-08  0.10566000000E+00  0.10566000000E+00 0.  1.
     999900   -1    0    0    0    0 -0.00000000000E+00 -0.00000000000E+00 -0.74505805969E-08  0.93827000000E+00  0.93827000000E+00 0. -1.
     999902    2    1    2    0    0  0.45910129253E-02 -0.23082730641E-01  0.70462839288E-03  0.10203845895E+01  0.10201128978E+01 0.  0.
     999903    2    3    3    0    0  0.26168286239E-01 -0.12853621961E+00  0.16522245534E-01  0.13368497067E+00  0.19807771927E-01 0.  0.
         14    1    1    2    0    0 -0.45910129253E-02  0.23082730641E-01 -0.70462839288E-03  0.23545410481E-01  0.00000000000E+00 0.  1.
     999901    1    3    3    0    0 -0.21577273313E-01  0.10545348897E+00 -0.15817617141E-01  0.88669961885E+00  0.88000000000E+00 0.  1.
        -11    1    4    4    0    0  0.95666352513E-02 -0.41352655981E-01 -0.38598236609E-02  0.42623022258E-01  0.51100000000E-03 0. -1.
         11    1    4    4    0    0  0.16601650987E-01 -0.87183563629E-01  0.20382069195E-01  0.91061948410E-01  0.51100000000E-03 0.  1.
</event>
<event>
 8    1  0.1161093E+005  0.1043930E+01  0.7957747E-01            NaN
         13   -1    0    0    0    0  0.00000000000E+00  0.00000000000E+00  0.74505805969E-08  0.10566000000E+00  0.10566000000E+00 0. -1.
     999900   -1    0    0    0    0 -0.00000000000E+00 -0.00000000000E+00 -0.74505805969E-08  0.93827000000E+00  0.93827000000E+00 0.  1.
     999902    2    1    2    0    0 -0.37112702692E-02  0.18401060639E-01 -0.16840464074E-01  0.10187114792E+01  0.10183992852E+01 0.  0.
     999903    2    3    3    0    0  0.10778203783E+00  0.47292233682E-01 -0.52620873137E-01  0.13048532824E+00  0.20098297196E-01 0.  0.
         14    1    1    2    0    0  0.37112702692E-02 -0.18401060639E-01  0.16840464074E-01  0.25218520771E-01  0.00000000000E+00 0. -1.
     999901    1    3    3    0    0 -0.11149330810E+00 -0.28891173043E-01  0.35780409063E-01  0.88822615099E+00  0.88000000000E+00 0.  1.
        -11    1    4    4    0    0  0.92975545210E-02  0.76496102671E-02 -0.11431099257E-01  0.16610003267E-01  0.51100000000E-03 0. -1.
         11    1    4    4    0    0  0.98484483310E-01  0.39642623415E-01 -0.41189773879E-01  0.11387532497E+00  0.51100000000E-03 0.  1.
</event>
<event>
 8    1  0.1161093E+005  0.1043930E+01  0.7957747E-01            NaN
         13   -1    0    0    0    0  0.00000000000E+00  0.00000000000E+00  0.74505805969E-08  0.10566000000E+00  0.10566000000E+00 0. -1.
     999900   -1    0    0    0    0 -0.00000000000E+00 -0.00000000000E+00 -0.74505805969E-08  0.93827000000E+00  0.93827000000E+00 0.  1.
     999902    2    1    2    0    0 -0.12277201288E-01 -0.21195708022E-01  0.13215672309E-04  0.10194353499E+01  0.10191410328E+01 0.  0.
     999903    2    3    3    0    0 -0.22184479636E-01 -0.38201646710E-01 -0.12168257672E+00  0.13084251736E+00  0.19015728317E-01 0.  0.
         14    1    1    2    0    0  0.12277201288E-01  0.21195708022E-01 -0.13215672309E-04  0.24494650123E-01  0.00000000000E+00 0. -1.
     999901    1    3    3    0    0  0.99072783476E-02  0.17005938689E-01  0.12169579239E+00  0.88859283252E+00  0.88000000000E+00 0. -1.
        -11    1    4    4    0    0  0.20501483059E-02 -0.28447750299E-02 -0.22711932786E-01  0.22986710615E-01  0.51100000000E-03 0. -1.
         11    1    4    4    0    0 -0.24234627942E-01 -0.35356871680E-01 -0.98970643935E-01  0.10785580674E+00  0.51100000000E-03 0.  1.
</event>
<event>
 8    1  0.1161093E+005  0.1043930E+01  0.7957747E-01            NaN
         13   -1    0    0    0    0  0.00000000000E+00  0.00000000000E+00  0.74505805969E-08  0.10566000000E+00  0.10566000000E+00 0.  1.
     999900   -1    0    0    0    0 -0.00000000000E+00 -0.00000000000E+00 -0.74505805969E-08  0.93827000000E+00  0.93827000000E+00 0. -1.
     999902    2    1    2    0    0  0.65210651682E-02 -0.19516033310E-01 -0.12287322263E-01  0.10199638127E+01  0.10196822059E+01 0.  0.
     999903    2    3    3    0    0 -0.69776067110E-01 -0.65463116987E-01 -0.89025444921E-01  0.13214562950E+00  0.19565743649E-01 0.  0.
         14    1    1    2    0    0 -0.65210651682E-02  0.19516033310E-01  0.12287322263E-01  0.23966187337E-01  0.00000000000E+00 0.  1.
     999901    1    3    3    0    0  0.76297132279E-01  0.45947083677E-01  0.76738122659E-01  0.88781818317E+00  0.88000000000E+00 0.  1.
        -11    1    4    4    0    0 -0.11193338542E-01 -0.20871960817E-01 -0.26588801808E-01  0.35611165084E-01  0.51100000000E-03 0. -1.
         11    1    4    4    0    0 -0.58582728569E-01 -0.44591156170E-01 -0.62436643113E-01  0.96534464412E-01  0.51100000000E-03 0.  1.
</event>
<event>
 8    1  0.1161093E+005  0.1043930E+01  0.7957747E-01            NaN
         13   -1    0    0    0    0  0.00000000000E+00  0.00000000000E+00  0.74505805969E-08  0.10566000000E+00  0.10566000000E+00 0.  1.
     999900   -1    0    0    0    0 -0.00000000000E+00 -0.00000000000E+00 -0.74505805969E-08  0.93827000000E+00  0.93827000000E+00 0. -1.
     999902    2    1    2    0    0  0.22519973893E-01  0.25988476314E-02  0.67465689017E-02  0.10202779509E+01  0.10200037636E+01 0.  0.
     999903    2    3    3    0    0 -0.82909160870E-01 -0.85386637836E-01  0.44988248756E-01  0.12880771913E+00  0.20066865836E-01 0.  0.
         14    1    1    2    0    0 -0.22519973893E-01 -0.25988476314E-02 -0.67465689017E-02  0.23652049068E-01  0.00000000000E+00 0. -1.
     999901    1    3    3    0    0  0.10542913476E+00  0.87985485468E-01 -0.38241679854E-01  0.89147023180E+00  0.88000000000E+00 0. -1.
        -11    1    4    4    0    0 -0.46747848869E-01 -0.49394297948E-01  0.36162749954E-01  0.77027031936E-01  0.51100000000E-03 0. -1.
         11    1    4    4    0    0 -0.36161312001E-01 -0.35992339888E-01  0.88254988016E-02  0.51780687195E-01  0.51100000000E-03 0.  1.
</event>
<event>
 8    1  0.1161093E+005  0.1043930E+01  0.7957747E-01            NaN
         13   -1    0    0    0    0  0.00000000000E+00  0.00000000000E+00  0.74505805969E-08  0.10566000000E+00  0.10566000000E+00 0.  1.
     999900   -1    0    0    0    0 -0.00000000000E+00 -0.00000000000E+00 -0.74505805969E-08  0.93827000000E+00  0.93827000000E+00 0.  1.
     999902    2    1    2    0    0  0.12405735692E-01 -0.14481419711E-01 -0.62049742713E-02  0.10238771822E+01  0.10236807944E+01 0.  0.
     999903    2    3    3    0    0  0.46581915253E-01  0.11907776602E+00  0.26917203432E-01  0.13252812266E+00  0.22130934595E-01 0.  0.
         14    1    1    2    0    0 -0.12405735692E-01  0.14481419711E-01  0.62049742713E-02  0.20052817772E-01  0.00000000000E+00 0.  1.
     999901    1    3    3    0    0 -0.34176179561E-01 -0.13355918573E+00 -0.33122177703E-01  0.89134905957E+00  0.88000000000E+00 0.  1.
        -11    1    4    4    0    0  0.36764489501E-01  0.93023690184E-01  0.11465589619E-01  0.10068145554E+00  0.51100000000E-03 0.  1.
         11    1    4    4    0    0  0.98174257514E-02  0.26054075834E-01  0.15451613813E-01  0.31846667115E-01  0.51100000000E-03 0. -1.
</event>
<event>
 8    1  0.1161093E+005  0.1043930E+01  0.7957747E-01            NaN
         13   -1    0    0    0    0  0.00000000000E+00  0.00000000000E+00  0.74505805969E-08  0.10566000000E+00  0.10566000000E+00 0.  1.
     999900   -1    0    0    0    0 -0.00000000000E+00 -0.00000000000E+00 -0.74505805969E-08  0.93827000000E+00  0.93827000000E+00 0. -1.
     999902    2    1    2    0    0  0.65200009701E-02  0.77207204666E-02  0.21178167553E-01  0.10204643929E+01  0.10201945610E+01 0.  0.
     999903    2    3    3    0    0 -0.71611094870E-01  0.90571774439E-01  0.61206151481E-01  0.13222399479E+00  0.20139428624E-01 0.  0.
         14    1    1    2    0    0 -0.65200009701E-02 -0.77207204666E-02 -0.21178167553E-01  0.23465607132E-01  0.00000000000E+00 0. -1.
     999901    1    3    3    0    0  0.78131095841E-01 -0.82851053972E-01 -0.40027983928E-01  0.88824039808E+00  0.88000000000E+00 0. -1.
        -11    1    4    4    0    0 -0.36928917968E-01  0.30865278127E-01  0.23866462118E-01  0.53724105494E-01  0.51100000000E-03 0.  1.
         11    1    4    4    0    0 -0.34682176902E-01  0.59706496312E-01  0.37339689363E-01  0.78499889295E-01  0.51100000000E-03 0. -1.
</event>
<event>
 8    1  0.1161093E+005  0.1043930E+01  0.7957747E-01            NaN
         13   -1    0    0    0    0  0.00000000000E+00  0.00000000000E+00  0.74505805969E-08  0.10566000000E+00  0.10566000000E+00 0. -1.
     999900   -1    0    0    0    0 -0.00000000000E+00 -0.00000000000E+00 -0.74505805969E-08  0.93827000000E+00  0.93827000000E+00 0. -1.
     999902    2    1    2    0    0  0.18425613883E-01 -0.36004501290E-02 -0.14349071979E-01  0.10203003078E+01  0.10200266446E+01 0.  0.
     999903    2    3    3    0    0  0.89283813476E-01 -0.90674174159E-01  0.29064904545E-01  0.13210692161E+00  0.20348583558E-01 0.  0.
         14    1    1    2    0    0 -0.18425613883E-01  0.36004501290E-02  0.14349071979E-01  0.23629692227E-01  0.00000000000E+00 0. -1.
     999901    1    3    3    0    0 -0.70858199593E-01  0.87073724030E-01 -0.43413976524E-01  0.88819338616E+00  0.88000000000E+00 0.  1.
        -11    1    4    4    0    0  0.53047620343E-01 -0.60769943825E-01  0.27037170480E-01  0.85078233439E-01  0.51100000000E-03 0.  1.
         11    1    4    4    0    0  0.36236193133E-01 -0.29904230334E-01  0.20277340651E-02  0.47028688171E-01  0.51100000000E-03 0. -1.
</event>
<event>
 8    1  0.1161093E+005  0.1043930E+01  0.7957747E-01            NaN
         13   -1    0    0    0    0  0.00000000000E+00  0.00000000000E+00  0.74505805969E-08  0.10566000000E+00  0.10566000000E+00 0.  1.
     999900   -1    0    0    0    0 -0.00000000000E+00 -0.00000000000E+00 -0.74505805969E-08  0.93827000000E+00  0.93827000000E+00 0.  1.
     999902    2    1    2    0    0  0.23948428669E-02  0.14959199999E-01  0.17800383618E-01  0.10205555140E+01  0.10202877979E+01 0.  0.
     999903    2    3    3    0    0  0.74294837900E-01 -0.74827016058E-01 -0.71001833495E-01  0.12863791266E+00  0.19688751715E-01 0.  0.
         14    1    1    2    0    0 -0.23948428669E-02 -0.14959199999E-01 -0.17800383618E-01  0.23374485961E-01  0.00000000000E+00 0. -1.
     999901    1    3    3    0    0 -0.71899995033E-01  0.89786216057E-01  0.88802217113E-01  0.89191760138E+00  0.88000000000E+00 0. -1.
        -11    1    4    4    0    0  0.25925454744E-01 -0.35522719670E-01 -0.37945707241E-01  0.58087267412E-01  0.51100000000E-03 0. -1.
         11    1    4    4    0    0  0.48369383156E-01 -0.39304296388E-01 -0.33056126254E-01  0.70550645251E-01  0.51100000000E-03 0.  1.
</event>
<event>
 8    1  0.1161093E+005  0.1043930E+01  0.7957747E-01            NaN
         13   -1    0    0    0    0  0.00000000000E+00  0.00000000000E+00  0.74505805969E-08  0.10566000000E+00  0.10566000000E+00 0.  1.
     999900   -1    0    0    0    0 -0.00000000000E+00 -0.00000000000E+00 -0.74505805969E-08  0.93827000000E+00  0.93827000000E+00 0.  1.
     999902    2    1    2    0    0 -0.15398038630E-01 -0.65754583380E-02 -0.16385733350E-01  0.10205029109E+01  0.10202339745E+01 0.  0.
     999903    2    3    3    0    0 -0.14688827499E-01 -0.12647825493E+00 -0.29455153136E-01  0.13227546630E+00  0.20412797877E-01 0.  0.
         14    1    1    2    0    0  0.15398038630E-01  0.65754583380E-02  0.16385733350E-01  0.23427089094E-01  0.00000000000E+00 0.  1.
     999901    1    3    3    0    0 -0.70921113100E-03  0.11990279659E+00  0.13069419786E-01  0.88822744460E+00  0.88000000000E+00 0.  1.
        -11    1    4    4    0    0 -0.64308429881E-02 -0.10584384081E+00 -0.29413530458E-01  0.11004404243E+00  0.51100000000E-03 0.  1.
         11    1    4    4    0    0 -0.82579845106E-02 -0.20634414118E-01 -0.41622678238E-04  0.22231423877E-01  0.51100000000E-03 0. -1.
</event>
<event>
 8    1  0.1161093E+005  0.1043930E+01  0.7957747E-01            NaN
         13   -1    0    0    0    0  0.00000000000E+00  0.00000000000E+00  0.74505805969E-08  0.10566000000E+00  0.10566000000E+00 0.  1.
     999900   -1    0    0    0    0 -0.00000000000E+00 -0.00000000000E+00 -0.74505805969E-08  0.93827000000E+00  0.93827000000E+00 0.  1.
     999902    2    1    2    0    0 -0.19493613098E-01 -0.91676805497E-02 -0.10179583479E-01  0.10201041477E+01  0.10198258679E+01 0.  0.
     999903    2    3    3    0    0 -0.12234277075E-01  0.12617495853E+00  0.16921169902E-01  0.12931529575E+00  0.19139541010E-01 0.  0.
         14    1    1    2    0    0  0.19493613098E-01  0.91676805497E-02  0.10179583479E-01  0.23825852305E-01  0.00000000000E+00 0.  1.
     999901    1    3    3    0    0 -0.72593360224E-02 -0.13534263908E+00 -0.27100753381E-01  0.89078885194E+00  0.88000000000E+00 0. -1.
        -11    1    4    4    0    0 -0.12630071343E-01  0.97859876559E-01  0.20462607533E-01  0.10077228573E+00  0.51100000000E-03 0.  1.
         11    1    4    4    0    0  0.39579426765E-03  0.28315081967E-01 -0.35414376312E-02  0.28543010027E-01  0.51100000000E-03 0. -1.
</event>
<event>
 8    1  0.1161093E+005  0.1043930E+01  0.7957747E-01            NaN
         13   -1    0    0    0    0  0.00000000000E+00  0.00000000000E+00  0.74505805969E-08  0.10566000000E+00  0.10566000000E+00 0.  1.
     999900   -1    0    0    0    0 -0.00000000000E+00 -0.00000000000E+00 -0.74505805969E-08  0.93827000000E+00  0.93827000000E+00 0. -1.
     999902    2    1    2    0    0  0.18904337623E-02 -0.19908513377E-01 -0.12251959182E-01  0.10204772145E+01  0.10202076809E+01 0.  0.
     999903    2    3    3    0    0  0.69406892635E-01 -0.93133455142E-01  0.59195721445E-01  0.13198121822E+00  0.20585220732E-01 0.  0.
         14    1    1    2    0    0 -0.18904337623E-02  0.19908513377E-01  0.12251959182E-01  0.23452785517E-01  0.00000000000E+00 0.  1.
     999901    1    3    3    0    0 -0.67516458873E-01  0.73224941765E-01 -0.71447680626E-01  0.88849599627E+00  0.88000000000E+00 0. -1.
        -11    1    4    4    0    0  0.66185836296E-01 -0.87961061758E-01  0.49920937025E-01  0.12087214065E+00  0.51100000000E-03 0.  1.
         11    1    4    4    0    0  0.32210563388E-02 -0.51723933839E-02  0.92747844194E-02  0.11109077562E-01  0.51100000000E-03 0. -1.
</event>
<event>
 8    1  0.1161093E+005  0.1043930E+01  0.7957747E-01            NaN
         13   -1    0    0    0    0  0.00000000000E+00  0.00000000000E+00  0.74505805969E-08  0.10566000000E+00  0.10566000000E+00 0. -1.
     999900   -1    0    0    0    0 -0.00000000000E+00 -0.00000000000E+00 -0.74505805969E-08  0.93827000000E+00  0.93827000000E+00 0. -1.
     999902    2    1    2    0    0 -0.25913792675E-01  0.57011368870E-02 -0.25557342490E-03  0.10173952505E+01  0.10170491644E+01 0.  0.
     999903    2    3    3    0    0 -0.91432046691E-01  0.63823549706E-01 -0.64891772540E-01  0.13068859399E+00  0.20863887393E-01 0.  0.
         14    1    1    2    0    0  0.25913792675E-01 -0.57011368870E-02  0.25557342490E-03  0.26534749488E-01  0.00000000000E+00 0. -1.
     999901    1    3    3    0    0  0.65518254016E-01 -0.58122412819E-01  0.64636199115E-01  0.88670665652E+00  0.88000000000E+00 0. -1.
        -11    1    4    4    0    0 -0.72475953073E-01  0.44730386009E-01 -0.57566454187E-01  0.10279945999E+00  0.51100000000E-03 0. -1.
         11    1    4    4    0    0 -0.18956093618E-01  0.19093163698E-01 -0.73253183530E-02  0.27889133999E-01  0.51100000000E-03 0.  1.
</event>
<event>
 8    1  0.1161093E+005  0.1043930E+01  0.7957747E-01            NaN
         13   -1    0    0    0    0  0.00000000000E+00  0.00000000000E+00  0.74505805969E-08  0.10566000000E+00  0.10566000000E+00 0. -1.
     999900   -1    0    0    0    0 -0.00000000000E+00 -0.00000000000E+00 -0.74505805969E-08  0.93827000000E+00  0.93827000000E+00 0. -1.
     999902    2    1    2    0    0 -0.23031713177E-01  0.19263720909E-02  0.48110507335E-02  0.10203224391E+01  0.10200492943E+01 0.  0.
     999903    2    3    3    0    0  0.41822795411E-01 -0.10763586920E+00  0.55153684676E-01  0.12973590611E+00  0.21327209029E-01 0.  0.
         14    1    1    2    0    0  0.23031713177E-01 -0.19263720909E-02 -0.48110507335E-02  0.23607560875E-01  0.00000000000E+00 0. -1.
     999901    1    3    3    0    0 -0.64854508587E-01  0.10956224129E+00 -0.50342633942E-01  0.89058653302E+00  0.88000000000E+00 0. -1.
        -11    1    4    4    0    0  0.35490173391E-01 -0.62823106139E-01  0.34766572772E-01  0.80095385482E-01  0.51100000000E-03 0. -1.
         11    1    4    4    0    0  0.63326220198E-02 -0.44812763064E-01  0.20387111903E-01  0.49640520625E-01  0.51100000000E-03 0.  1.
</event>
<event>
 8    1  0.1161093E+005  0.1043930E+01  0.7957747E-01            NaN
         13   -1    0    0    0    0  0.00000000000E+00  0.00000000000E+00  0.74505805969E-08  0.10566000000E+00  0.10566000000E+00 0.  1.
     999900   -1    0    0    0    0 -0.00000000000E+00 -0.00000000000E+00 -0.74505805969E-08  0.93827000000E+00  0.93827000000E+00 0. -1.
     999902    2    1    2    0    0 -0.19833544406E-01 -0.12445135855E-01 -0.35518951100E-02  0.10202473724E+01  0.10199724673E+01 0.  0.
     999903    2    3    3    0    0  0.85900460376E-02  0.44696819586E-01  0.11934213643E+00  0.12941851874E+00  0.20856962724E-01 0.  0.
         14    1    1    2    0    0  0.19833544406E-01  0.12445135855E-01  0.35518951100E-02  0.23682627578E-01  0.00000000000E+00 0.  1.
     999901    1    3    3    0    0 -0.28423590443E-01 -0.57141955441E-01 -0.12289403154E+00  0.89082885368E+00  0.88000000000E+00 0. -1.
        -11    1    4    4    0    0 -0.28614979837E-02  0.32426269137E-01  0.67826890214E-01  0.75235624926E-01  0.51100000000E-03 0. -1.
         11    1    4    4    0    0  0.11451544021E-01  0.12270550448E-01  0.51515246212E-01  0.54182893814E-01  0.51100000000E-03 0.  1.
</event>
<event>
 8    1  0.1197734E+005  0.1043930E+01  0.7957747E-01            NaN
         13   -1    0    0    0    0  0.00000000000E+00  0.00000000000E+00  0.74505805969E-08  0.10566000000E+00  0.10566000000E+00 0.  1.
     999900   -1    0    0    0    0 -0.00000000000E+00 -0.00000000000E+00 -0.74505805969E-08  0.93827000000E+00  0.93827000000E+00 0. -1.
     999902    2    1    2    0    0 -0.19101803793E-01 -0.31674005516E-02 -0.14390545891E-01  0.10198053415E+01  0.10195199535E+01 0.  0.
     999903    2    3    3    0    0 -0.12855564670E+00 -0.23411353940E-01  0.77051503874E-02  0.13251836364E+00  0.20666435784E-01 0.  0.
         14    1    1    2    0    0  0.19101803793E-01  0.31674005516E-02  0.14390545891E-01  0.24124658452E-01  0.00000000000E+00 0. -1.
     999901    1    3    3    0    0  0.10945384290E+00  0.20243953388E-01 -0.22095696278E-01  0.88728697791E+00  0.88000000000E+00 0. -1.
        -11    1    4    4    0    0 -0.36805671461E-01  0.26552556833E-02  0.15389826569E-02  0.36936938464E-01  0.51100000000E-03 0.  1.
         11    1    4    4    0    0 -0.91749975235E-01 -0.26066609623E-01  0.61661677305E-02  0.95581425174E-01  0.51100000000E-03 0. -1.
</event>
<event>
 8    1  0.1161093E+005  0.1043930E+01  0.7957747E-01            NaN
         13   -1    0    0    0    0  0.00000000000E+00  0.00000000000E+00  0.74505805969E-08  0.10566000000E+00  0.10566000000E+00 0.  1.
     999900   -1    0    0    0    0 -0.00000000000E+00 -0.00000000000E+00 -0.74505805969E-08  0.93827000000E+00  0.93827000000E+00 0.  1.
     999902    2    1    2    0    0  0.20963212122E-01  0.73971948487E-02  0.64001254027E-03  0.10216907471E+01  0.10214486763E+01 0.  0.
     999903    2    3    3    0    0  0.88859642786E-02  0.13089451345E+00  0.80067977812E-02  0.13295472489E+00  0.20012897046E-01 0.  0.
         14    1    1    2    0    0 -0.20963212122E-01 -0.73971948487E-02 -0.64001254027E-03  0.22239252914E-01  0.00000000000E+00 0.  1.
     999901    1    3    3    0    0  0.12077247843E-01 -0.12349731860E+00 -0.73667852409E-02  0.88873602219E+00  0.88000000000E+00 0.  1.
        -11    1    4    4    0    0  0.32332726315E-03  0.10763958837E+00  0.30922814238E-02  0.10768569474E+00  0.51100000000E-03 0.  1.
         11    1    4    4    0    0  0.85626370155E-02  0.23254925079E-01  0.49145163574E-02  0.25269030158E-01  0.51100000000E-03 0. -1.
</event>
<event>
 8    1  0.1161093E+005  0.1043930E+01  0.7957747E-01            NaN
         13   -1    0    0    0    0  0.00000000000E+00  0.00000000000E+00  0.74505805969E-08  0.10566000000E+00  0.10566000000E+00 0. -1.
     999900   -1    0    0    0    0 -0.00000000000E+00 -0.00000000000E+00 -0.74505805969E-08  0.93827000000E+00  0.93827000000E+00 0. -1.
     999902    2    1    2    0    0 -0.11342313836E-01 -0.63360337136E-02 -0.19812375590E-01  0.10202377305E+01  0.10199625989E+01 0.  0.
     999903    2    3    3    0    0  0.21148822372E-01  0.21267155321E-01  0.12255050671E+00  0.12777775930E+00  0.20222870565E-01 0.  0.
         14    1    1    2    0    0  0.11342313836E-01  0.63360337136E-02  0.19812375590E-01  0.23692269475E-01  0.00000000000E+00 0. -1.
     999901    1    3    3    0    0 -0.32491136208E-01 -0.27603189034E-01 -0.14236288230E+00  0.89245997122E+00  0.88000000000E+00 0. -1.
        -11    1    4    4    0    0  0.48940615296E-02  0.82349407553E-02  0.78069854551E-01  0.78657036546E-01  0.51100000000E-03 0. -1.
         11    1    4    4    0    0  0.16254760842E-01  0.13032214566E-01  0.44480652161E-01  0.49120722757E-01  0.51100000000E-03 0.  1.
</event>
<event>
 8    1  0.1161093E+005  0.1043930E+01  0.7957747E-01            NaN
         13   -1    0    0    0    0  0.00000000000E+00  0.00000000000E+00  0.74505805969E-08  0.10566000000E+00  0.10566000000E+00 0. -1.
     999900   -1    0    0    0    0 -0.00000000000E+00 -0.00000000000E+00 -0.74505805969E-08  0.93827000000E+00  0.93827000000E+00 0.  1.
     999902    2    1    2    0    0 -0.19587387928E-01  0.29274504141E-02 -0.13402898050E-01  0.10200161252E+01  0.10197357610E+01 0.  0.
     999903    2    3    3    0    0  0.10966789616E+00 -0.57504104781E-01  0.24308068718E-01  0.12772636378E+00  0.19732518436E-01 0.  0.
         14    1    1    2    0    0  0.19587387928E-01 -0.29274504141E-02  0.13402898050E-01  0.23913874799E-01  0.00000000000E+00 0. -1.
     999901    1    3    3    0    0 -0.12925528409E+00  0.60431555195E-01 -0.37710966768E-01  0.89228976142E+00  0.88000000000E+00 0.  1.
        -11    1    4    4    0    0  0.42294459251E-01 -0.17988788239E-01  0.13851935749E-03  0.45964095708E-01  0.51100000000E-03 0.  1.
         11    1    4    4    0    0  0.67373436909E-01 -0.39515316542E-01  0.24169549360E-01  0.81762268068E-01  0.51100000000E-03 0. -1.
</event>
<event>
 8    1  0.1161093E+005  0.1043930E+01  0.7957747E-01            NaN
         13   -1    0    0    0    0  0.00000000000E+00  0.00000000000E+00  0.74505805969E-08  0.10566000000E+00  0.10566000000E+00 0.  1.
     999900   -1    0    0    0    0 -0.00000000000E+00 -0.00000000000E+00 -0.74505805969E-08  0.93827000000E+00  0.93827000000E+00 0.  1.
     999902    2    1    2    0    0 -0.23076364246E-01 -0.21012885899E-02  0.50698692506E-02  0.10202100174E+01  0.10199342342E+01 0.  0.
     999903    2    3    3    0    0 -0.11963743187E+00 -0.34168318847E-02 -0.55201872417E-01  0.13287780606E+00  0.16866380192E-01 0.  0.
         14    1    1    2    0    0  0.23076364246E-01  0.21012885899E-02 -0.50698692506E-02  0.23719982605E-01  0.00000000000E+00 0.  1.
     999901    1    3    3    0    0  0.96561067619E-01  0.13155432948E-02  0.60271741668E-01  0.88733221134E+00  0.88000000000E+00 0. -1.
        -11    1    4    4    0    0 -0.27543862652E-01 -0.20808095866E-02 -0.53256677358E-02  0.28135706783E-01  0.51100000000E-03 0.  1.
         11    1    4    4    0    0 -0.92093569213E-01 -0.13360222981E-02 -0.49876204682E-01  0.10474209927E+00  0.51100000000E-03 0. -1.
</event>
<event>
 8    1  0.1161093E+005  0.1043930E+01  0.7957747E-01            NaN
         13   -1    0    0    0    0  0.00000000000E+00  0.00000000000E+00  0.74505805969E-08  0.10566000000E+00  0.10566000000E+00 0.  1.
     999900   -1    0    0    0    0 -0.00000000000E+00 -0.00000000000E+00 -0.74505805969E-08  0.93827000000E+00  0.93827000000E+00 0.  1.
     999902    2    1    2    0    0  0.20314077598E-01  0.99152671980E-02 -0.14178377463E-01  0.10172466595E+01  0.10168966347E+01 0.  0.
     999903    2    3    3    0    0  0.87900692210E-01 -0.59357134281E-01  0.68775843688E-01  0.12806275340E+00  0.20497586485E-01 0.  0.
         14    1    1    2    0    0 -0.20314077598E-01 -0.99152671980E-02  0.14178377463E-01  0.26683340491E-01  0.00000000000E+00 0.  1.
     999901    1    3    3    0    0 -0.67586614612E-01  0.69272401479E-01 -0.82954221150E-01  0.88918390611E+00  0.88000000000E+00 0.  1.
        -11    1    4    4    0    0  0.15119711523E-01 -0.55567190465E-02  0.18471199123E-01  0.24513855697E-01  0.51100000000E-03 0.  1.
         11    1    4    4    0    0  0.72780980688E-01 -0.53800415234E-01  0.50304644565E-01  0.10354889770E+00  0.51100000000E-03 0. -1.
</event>
<event>
 8    1  0.1161093E+005  0.1043930E+01  0.7957747E-01            NaN
         13   -1    0    0    0    0  0.00000000000E+00  0.00000000000E+00  0.74505805969E-08  0.10566000000E+00  0.10566000000E+00 0.  1.
     999900   -1    0    0    0    0 -0.00000000000E+00 -0.00000000000E+00 -0.74505805969E-08  0.93827000000E+00  0.93827000000E+00 0. -1.
     999902    2    1    2    0    0 -0.17429666830E-01  0.46247179624E-02 -0.13461735213E-01  0.10214266754E+01  0.10211787570E+01 0.  0.
     999903    2    3    3    0    0  0.93317775209E-01  0.39131246074E-01 -0.81603015773E-01  0.13120258537E+00  0.17765264831E-01 0.  0.
         14    1    1    2    0    0  0.17429666830E-01 -0.46247179624E-02  0.13461735213E-01  0.22503324576E-01  0.00000000000E+00 0.  1.
     999901    1    3    3    0    0 -0.11074744204E+00 -0.34506528111E-01  0.68141280560E-01  0.89022409006E+00  0.88000000000E+00 0.  1.
        -11    1    4    4    0    0  0.78763541304E-01  0.29192340313E-01 -0.59549711190E-01  0.10296755506E+00  0.51100000000E-03 0. -1.
         11    1    4    4    0    0  0.14554233905E-01  0.99389057612E-02 -0.22053304583E-01  0.28235030305E-01  0.51100000000E-03 0.  1.
</event>
<event>
 8    1  0.1161093E+005  0.1043930E+01  0.7957747E-01            NaN
         13   -1    0    0    0    0  0.00000000000E+00  0.00000000000E+00  0.74505805969E-08  0.10566000000E+00  0.10566000000E+00 0. -1.
     999900   -1    0    0    0    0 -0.00000000000E+00 -0.00000000000E+00 -0.74505805969E-08  0.93827000000E+00  0.93827000000E+00 0.  1.
     999902    2    1    2    0    0  0.32164840877E-02  0.10572877443E-01  0.20568631359E-01  0.10205804796E+01  0.10203133417E+01 0.  0.
     999903    2    3    3    0    0 -0.27889776710E-01  0.39443790146E-03 -0.12354836839E+00  0.12825715831E+00  0.20191683911E-01 0.  0.
         14    1    1    2    0    0 -0.32164840877E-02 -0.10572877443E-01 -0.20568631359E-01  0.23349520408E-01  0.00000000000E+00 0.  1.
     999901    1    3    3    0    0  0.31106260798E-01  0.10178439541E-01  0.14411699975E+00  0.89232332128E+00  0.88000000000E+00 0. -1.
        -11    1    4    4    0    0 -0.20391388935E-01  0.58299032454E-02 -0.52786731664E-01  0.56890215989E-01  0.51100000000E-03 0.  1.
         11    1    4    4    0    0 -0.74983877751E-02 -0.54354653440E-02 -0.70761636726E-01  0.71366942318E-01  0.51100000000E-03 0. -1.
</event>
<event>
 8    1  0.1161093E+005  0.1043930E+01  0.7957747E-01            NaN
         13   -1    0    0    0    0  0.00000000000E+00  0.00000000000E+00  0.74505805969E-08  0.10566000000E+00  0.10566000000E+00 0.  1.
     999900   -1    0    0    0    0 -0.00000000000E+00 -0.00000000000E+00 -0.74505805969E-08  0.93827000000E+00  0.93827000000E+00 0.  1.
     999902    2    1    2    0    0 -0.18409845154E-03 -0.80997784949E-02  0.21300701177E-01  0.10211405249E+01  0.10208861893E+01 0.  0.
     999903    2    3    3    0    0  0.12768467096E+00 -0.22550280866E-02 -0.20527385931E-01  0.13089664138E+00  0.20102159184E-01 0.  0.
         14    1    1    2    0    0  0.18409845154E-03  0.80997784949E-02 -0.21300701177E-01  0.22789475083E-01  0.00000000000E+00 0. -1.
     999901    1    3    3    0    0 -0.12786876941E+00 -0.58447504083E-02  0.41828087108E-01  0.89024388353E+00  0.88000000000E+00 0. -1.
        -11    1    4    4    0    0  0.66819060142E-01 -0.11207523329E-01 -0.10691591545E-01  0.68592759299E-01  0.51100000000E-03 0. -1.
         11    1    4    4    0    0  0.60865610813E-01  0.89524952420E-02 -0.98357943852E-02  0.62303882086E-01  0.51100000000E-03 0.  1.
</event>
<event>
 8    1  0.1161093E+005  0.1043930E+01  0.7957747E-01            NaN
         13   -1    0    0    0    0  0.00000000000E+00  0.00000000000E+00  0.74505805969E-08  0.10566000000E+00  0.10566000000E+00 0. -1.
     999900   -1    0    0    0    0 -0.00000000000E+00 -0.00000000000E+00 -0.74505805969E-08  0.93827000000E+00  0.93827000000E+00 0. -1.
     999902    2    1    2    0    0  0.34597847992E-02  0.10890920355E-01  0.21829864403E-01  0.10192900885E+01  0.10189922273E+01 0.  0.
     999903    2    3    3    0    0 -0.10847330108E+00 -0.39640508655E-01  0.56523942304E-01  0.13008475788E+00  0.19729703611E-01 0.  0.
         14    1    1    2    0    0 -0.34597847992E-02 -0.10890920355E-01 -0.21829864403E-01  0.24639911463E-01  0.00000000000E+00 0.  1.
     999901    1    3    3    0    0  0.11193308588E+00  0.50531429010E-01 -0.34694077901E-01  0.88920533066E+00  0.88000000000E+00 0. -1.
        -11    1    4    4    0    0 -0.10334292538E+00 -0.40775260416E-01  0.56845041271E-01  0.12479584098E+00  0.51100000000E-03 0.  1.
         11    1    4    4    0    0 -0.51303756980E-02  0.11347517612E-02 -0.32109896697E-03  0.52889168937E-02  0.51100000000E-03 0. -1.
</event>
<event>
 8    1  0.1161093E+005  0.1043930E+01  0.7957747E-01            NaN
         13   -1    0    0    0    0  0.00000000000E+00  0.00000000000E+00  0.74505805969E-08  0.10566000000E+00  0.10566000000E+00 0. -1.
     999900   -1    0    0    0    0 -0.00000000000E+00 -0.00000000000E+00 -0.74505805969E-08  0.93827000000E+00  0.93827000000E+00 0.  1.
     999902    2    1    2    0    0 -0.38145155384E-02  0.12090750151E-01 -0.20296892629E-01  0.10199988358E+01  0.10197180613E+01 0.  0.
     999903    2    3    3    0    0  0.60560380908E-01  0.10924718680E+00 -0.37906983570E-01  0.13213982913E+00  0.20530160281E-01 0.  0.
         14    1    1    2    0    0  0.38145155384E-02 -0.12090750151E-01  0.20296892629E-01  0.23931164167E-01  0.00000000000E+00 0. -1.
     999901    1    3    3    0    0 -0.64374896446E-01 -0.97156436646E-01  0.17610090941E-01  0.88785900670E+00  0.88000000000E+00 0. -1.
        -11    1    4    4    0    0  0.54293812306E-01  0.81591383433E-01 -0.32600822340E-01  0.10328623647E+00  0.51100000000E-03 0. -1.
         11    1    4    4    0    0  0.62665686019E-02  0.27655803364E-01 -0.53061612296E-02  0.28853592666E-01  0.51100000000E-03 0.  1.
</event>
<event>
 8    1  0.1161093E+005  0.1043930E+01  0.7957747E-01            NaN
         13   -1    0    0    0    0  0.00000000000E+00  0.00000000000E+00  0.74505805969E-08  0.10566000000E+00  0.10566000000E+00 0.  1.
     999900   -1    0    0    0    0 -0.00000000000E+00 -0.00000000000E+00 -0.74505805969E-08  0.93827000000E+00  0.93827000000E+00 0.  1.
     999902    2    1    2    0    0 -0.19082743350E-01  0.81885170183E-02  0.10887342745E-01  0.10204835261E+01  0.10202141393E+01 0.  0.
     999903    2    3    3    0    0 -0.28775284395E-01  0.25510008953E-02 -0.12544636862E+00  0.12991482705E+00  0.17508463310E-01 0.  0.
         14    1    1    2    0    0  0.19082743350E-01 -0.81885170183E-02 -0.10887342745E-01  0.23446473867E-01  0.00000000000E+00 0. -1.
     999901    1    3    3    0    0  0.96925410441E-02  0.56375161230E-02  0.13633371137E+00  0.89056869909E+00  0.88000000000E+00 0. -1.
        -11    1    4    4    0    0 -0.10094169605E-01  0.89429505957E-02 -0.62588098832E-01  0.64026555910E-01  0.51100000000E-03 0.  1.
         11    1    4    4    0    0 -0.18681114790E-01 -0.63919497005E-02 -0.62858269793E-01  0.65888271135E-01  0.51100000000E-03 0. -1.
</event>
<event>
 8    1  0.1161093E+005  0.1043930E+01  0.7957747E-01            NaN
         13   -1    0    0    0    0  0.00000000000E+00  0.00000000000E+00  0.74505805969E-08  0.10566000000E+00  0.10566000000E+00 0.  1.
     999900   -1    0    0    0    0 -0.00000000000E+00 -0.00000000000E+00 -0.74505805969E-08  0.93827000000E+00  0.93827000000E+00 0. -1.
     999902    2    1    2    0    0  0.77317225903E-02 -0.23442239349E-02  0.23461835298E-01  0.10191160395E+01  0.10188139032E+01 0.  0.
     999903    2    3    3    0    0 -0.28029284057E-01  0.10347398998E+00 -0.66296686260E-01  0.12752592281E+00  0.19367576292E-01 0.  0.
         14    1    1    2    0    0 -0.77317225903E-02  0.23442239349E-02 -0.23461835298E-01  0.24813960498E-01  0.00000000000E+00 0. -1.
     999901    1    3    3    0    0  0.35761006647E-01 -0.10581821392E+00  0.89758521558E-01  0.89159011669E+00  0.88000000000E+00 0.  1.
        -11    1    4    4    0    0 -0.26308201421E-01  0.62768380155E-01 -0.38403802871E-01  0.78147963538E-01  0.51100000000E-03 0.  1.
         11    1    4    4    0    0 -0.17210826354E-02  0.40705609828E-01 -0.27892883389E-01  0.49377959270E-01  0.51100000000E-03 0. -1.
</event>
<event>
 8    1  0.1161093E+005  0.1043930E+01  0.7957747E-01            NaN
         13   -1    0    0    0    0  0.00000000000E+00  0.00000000000E+00  0.74505805969E-08  0.10566000000E+00  0.10566000000E+00 0.  1.
     999900   -1    0    0    0    0 -0.00000000000E+00 -0.00000000000E+00 -0.74505805969E-08  0.93827000000E+00  0.93827000000E+00 0. -1.
     999902    2    1    2    0    0 -0.15025519875E-01 -0.16301871127E-01 -0.78398181561E-02  0.10204144732E+01  0.10201434787E+01 0.  0.
     999903    2    3    3    0    0 -0.74910238117E-01 -0.13961771014E-01  0.10467033003E+00  0.13122934686E+00  0.21419352536E-01 0.  0.
         14    1    1    2    0    0  0.15025519875E-01  0.16301871127E-01  0.78398181561E-02  0.23515526754E-01  0.00000000000E+00 0. -1.
     999901    1    3    3    0    0  0.59884718241E-01 -0.23401001133E-02 -0.11251014819E+00  0.88918512639E+00  0.88000000000E+00 0. -1.
        -11    1    4    4    0    0 -0.61783450492E-01 -0.30530912802E-02  0.85868502445E-01  0.10583088847E+00  0.51100000000E-03 0. -1.
         11    1    4    4    0    0 -0.13126787624E-01 -0.10908679734E-01  0.18801827587E-01  0.25398458388E-01  0.51100000000E-03 0.  1.
</event>
<event>
 8    1  0.1353989E+005  0.1043930E+01  0.7957747E-01            NaN
         13   -1    0    0    0    0  0.00000000000E+00  0.00000000000E+00  0.74505805969E-08  0.10566000000E+00  0.10566000000E+00 0.  1.
     999900   -1    0    0    0    0 -0.00000000000E+00 -0.00000000000E+00 -0.74505805969E-08  0.93827000000E+00  0.93827000000E+00 0. -1.
     999902    2    1    2    0    0  0.14053950850E-01 -0.17945229818E-01 -0.29296930578E-02  0.10209489663E+01  0.10206902879E+01 0.  0.
     999903    2    3    3    0    0  0.22987813889E-02 -0.13180945356E-01  0.12879874125E+00  0.13105388103E+00  0.20173801560E-01 0.  0.
         14    1    1    2    0    0 -0.14053950850E-01  0.17945229818E-01  0.29296930578E-02  0.22981033683E-01  0.00000000000E+00 0.  1.
     999901    1    3    3    0    0  0.11755169461E-01 -0.47642844621E-02 -0.13172843431E+00  0.88989508529E+00  0.88000000000E+00 0. -1.
        -11    1    4    4    0    0  0.89202912456E-02  0.53088922702E-03  0.50352550544E-01  0.51141899716E-01  0.51100000000E-03 0. -1.
         11    1    4    4    0    0 -0.66215098567E-02 -0.13711834583E-01  0.78446190703E-01  0.79911981313E-01  0.51100000000E-03 0.  1.
</event>
<event>
 8    1  0.1161093E+005  0.1043930E+01  0.7957747E-01            NaN
         13   -1    0    0    0    0  0.00000000000E+00  0.00000000000E+00  0.74505805969E-08  0.10566000000E+00  0.10566000000E+00 0. -1.
     999900   -1    0    0    0    0 -0.00000000000E+00 -0.00000000000E+00 -0.74505805969E-08  0.93827000000E+00  0.93827000000E+00 0. -1.
     999902    2    1    2    0    0 -0.93178643371E-02  0.21545754650E-01 -0.42698480804E-02  0.10200705419E+01  0.10197914672E+01 0.  0.
     999903    2    3    3    0    0  0.87415943369E-02  0.12228597763E+00  0.46594032797E-01  0.13268005796E+00  0.20067837209E-01 0.  0.
         14    1    1    2    0    0  0.93178643371E-02 -0.21545754650E-01  0.42698480804E-02  0.23859458122E-01  0.00000000000E+00 0.  1.
     999901    1    3    3    0    0 -0.18059458674E-01 -0.10074022298E+00 -0.50863880877E-01  0.88739048392E+00  0.88000000000E+00 0. -1.
        -11    1    4    4    0    0  0.82138274091E-02  0.53578885689E-01  0.30153677224E-01  0.62029584261E-01  0.51100000000E-03 0.  1.
         11    1    4    4    0    0  0.52776692776E-03  0.68707091944E-01  0.16440355572E-01  0.70650473697E-01  0.51100000000E-03 0. -1.
</event>
<event>
 8    1  0.1161093E+005  0.1043930E+01  0.7957747E-01            NaN
         13   -1    0    0    0    0  0.00000000000E+00  0.00000000000E+00  0.74505805969E-08  0.10566000000E+00  0.10566000000E+00 0. -1.
     999900   -1    0    0    0    0 -0.00000000000E+00 -0.00000000000E+00 -0.74505805969E-08  0.93827000000E+00  0.93827000000E+00 0.  1.
     999902    2    1    2    0    0  0.14749591546E-01  0.10264660519E-02 -0.18259110514E-01  0.10204353368E+01  0.10201648285E+01 0.  0.
     999903    2    3    3    0    0  0.99564103134E-01 -0.78184153699E-01 -0.33481858595E-01  0.13268562221E+00  0.21416511447E-01 0.  0.
         14    1    1    2    0    0 -0.14749591546E-01 -0.10264660519E-02  0.18259110514E-01  0.23494663226E-01  0.00000000000E+00 0.  1.
     999901    1    3    3    0    0 -0.84814511588E-01  0.79210619751E-01  0.15222748081E-01  0.88774971457E+00  0.88000000000E+00 0. -1.
        -11    1    4    4    0    0  0.83271312035E-01 -0.70033144629E-01 -0.21603136448E-01  0.11093110195E+00  0.51100000000E-03 0.  1.
         11    1    4    4    0    0  0.16292791099E-01 -0.81510090701E-02 -0.11878722147E-01  0.21754520255E-01  0.51100000000E-03 0. -1.
</event>
<event>
 8    1  0.1161093E+005  0.1043930E+01  0.7957747E-01            NaN
         13   -1    0    0    0    0  0.00000000000E+00  0.00000000000E+00  0.74505805969E-08  0.10566000000E+00  0.10566000000E+00 0.  1.
     999900   -1    0    0    0    0 -0.00000000000E+00 -0.00000000000E+00 -0.74505805969E-08  0.93827000000E+00  0.93827000000E+00 0.  1.
     999902    2    1    2    0    0  0.32328950535E-02  0.44085642033E-02 -0.23619937875E-01  0.10196856499E+01  0.10193973887E+01 0.  0.
     999903    2    3    3    0    0 -0.15356457428E-01  0.27406989268E-01 -0.12779287645E+00  0.13304790381E+00  0.19589833877E-01 0.  0.
         14    1    1    2    0    0 -0.32328950535E-02 -0.44085642033E-02  0.23619937875E-01  0.24244350146E-01  0.00000000000E+00 0.  1.
     999901    1    3    3    0    0  0.18589352482E-01 -0.22998425064E-01  0.10417293857E+00  0.88663774605E+00  0.88000000000E+00 0. -1.
        -11    1    4    4    0    0 -0.71250867517E-02  0.26697072016E-01 -0.11008235953E+00  0.11349840314E+00  0.51100000000E-03 0.  1.
         11    1    4    4    0    0 -0.82313706765E-02  0.70991725124E-03 -0.17710516919E-01  0.19549500666E-01  0.51100000000E-03 0. -1.
</event>
<event>
 8    1  0.1161093E+005  0.1043930E+01  0.7957747E-01            NaN
         13   -1    0    0    0    0  0.00000000000E+00  0.00000000000E+00  0.74505805969E-08  0.10566000000E+00  0.10566000000E+00 0.  1.
     999900   -1    0    0    0    0 -0.00000000000E+00 -0.00000000000E+00 -0.74505805969E-08  0.93827000000E+00  0.93827000000E+00 0. -1.
     999902    2    1    2    0    0  0.47931368432E-02 -0.76397760561E-02 -0.20903015782E-01  0.10211643151E+01  0.10209105162E+01 0.  0.
     999903    2    3    3    0    0  0.12315968216E+00 -0.26944972298E-01  0.31482724273E-01  0.13148594885E+00  0.20076204265E-01 0.  0.
         14    1    1    2    0    0 -0.47931368432E-02  0.76397760561E-02  0.20903015782E-01  0.22765684873E-01  0.00000000000E+00 0.  1.
     999901    1    3    3    0    0 -0.11836654531E+00  0.19305196242E-01 -0.52385740055E-01  0.88967836627E+00  0.88000000000E+00 0. -1.
        -11    1    4    4    0    0  0.89825648906E-01 -0.10543758978E-01  0.24192579179E-01  0.93623501660E-01  0.51100000000E-03 0. -1.
         11    1    4    4    0    0  0.33334033250E-01 -0.16401213320E-01  0.72901450941E-02  0.37862447194E-01  0.51100000000E-03 0.  1.
</event>
<event>
 8    1  0.1161093E+005  0.1043930E+01  0.7957747E-01            NaN
         13   -1    0    0    0    0  0.00000000000E+00  0.00000000000E+00  0.74505805969E-08  0.10566000000E+00  0.10566000000E+00 0.  1.
     999900   -1    0    0    0    0 -0.00000000000E+00 -0.00000000000E+00 -0.74505805969E-08  0.93827000000E+00  0.93827000000E+00 0.  1.
     999902    2    1    2    0    0  0.36744673387E-02  0.19169572934E-01  0.12392429661E-01  0.10208097373E+01  0.10205478789E+01 0.  0.
     999903    2    3    3    0    0  0.10608176549E+00  0.42360486238E-01 -0.61870001078E-01  0.13146167165E+00  0.20162398514E-01 0.  0.
         14    1    1    2    0    0 -0.36744673387E-02 -0.19169572934E-01 -0.12392429661E-01  0.23120262750E-01  0.00000000000E+00 0. -1.
     999901    1    3    3    0    0 -0.10240729816E+00 -0.23190913304E-01  0.74262430739E-01  0.88934806560E+00  0.88000000000E+00 0. -1.
        -11    1    4    4    0    0  0.78010078333E-01  0.28712671830E-01 -0.54453117422E-01  0.99375011765E-01  0.51100000000E-03 0.  1.
         11    1    4    4    0    0  0.28071687161E-01  0.13647814408E-01 -0.74168836556E-02  0.32086659881E-01  0.51100000000E-03 0. -1.
</event>
<event>
 8    1  0.1161093E+005  0.1043930E+01  0.7957747E-01            NaN
         13   -1    0    0    0    0  0.00000000000E+00  0.00000000000E+00  0.74505805969E-08  0.10566000000E+00  0.10566000000E+00 0.  1.
     999900   -1    0    0    0    0 -0.00000000000E+00 -0.00000000000E+00 -0.74505805969E-08  0.93827000000E+00  0.93827000000E+00 0. -1.
     999902    2    1    2    0    0  0.11628798745E-01  0.55819783442E-02  0.18933562832E-01  0.10210200187E+01  0.10207629555E+01 0.  0.
     999903    2    3    3    0    0  0.43106123817E-01 -0.98822954494E-01  0.74429814073E-01  0.13255446173E+00  0.20168635433E-01 0.  0.
         14    1    1    2    0    0 -0.11628798745E-01 -0.55819783442E-02 -0.18933562832E-01  0.22909981318E-01  0.00000000000E+00 0. -1.
     999901    1    3    3    0    0 -0.31477325072E-01  0.10440493284E+00 -0.55496251241E-01  0.88846555696E+00  0.88000000000E+00 0. -1.
        -11    1    4    4    0    0  0.18745525362E-01 -0.58466304050E-01  0.32537953805E-01  0.69488725626E-01  0.51100000000E-03 0. -1.
         11    1    4    4    0    0  0.24360598455E-01 -0.40356650444E-01  0.41891860267E-01  0.63065736100E-01  0.51100000000E-03 0.  1.
</event>
<event>
 8    1  0.1161093E+005  0.1043930E+01  0.7957747E-01            NaN
         13   -1    0    0    0    0  0.00000000000E+00  0.00000000000E+00  0.74505805969E-08  0.10566000000E+00  0.10566000000E+00 0.  1.
     999900   -1    0    0    0    0 -0.00000000000E+00 -0.00000000000E+00 -0.74505805969E-08  0.93827000000E+00  0.93827000000E+00 0. -1.
     999902    2    1    2    0    0  0.22655617864E-01  0.32311518858E-02  0.15469329331E-02  0.10209929042E+01  0.10207352252E+01 0.  0.
     999903    2    3    3    0    0  0.58468153753E-01  0.26165670683E-01  0.11463358448E+00  0.13273780532E+00  0.19372633964E-01 0.  0.
         14    1    1    2    0    0 -0.22655617864E-01 -0.32311518858E-02 -0.15469329331E-02  0.22937095823E-01  0.00000000000E+00 0.  1.
     999901    1    3    3    0    0 -0.35812535889E-01 -0.22934518797E-01 -0.11308665154E+00  0.88825509885E+00  0.88000000000E+00 0. -1.
        -11    1    4    4    0    0  0.38171775396E-01  0.66808029310E-02  0.68227747409E-01  0.78466580162E-01  0.51100000000E-03 0.  1.
         11    1    4    4    0    0  0.20296378357E-01  0.19484867752E-01  0.46405837068E-01  0.54271225163E-01  0.51100000000E-03 0. -1.
</event>
<event>
 8    1  0.1161093E+005  0.1043930E+01  0.7957747E-01            NaN
         13   -1    0    0    0    0  0.00000000000E+00  0.00000000000E+00  0.74505805969E-08  0.10566000000E+00  0.10566000000E+00 0.  1.
     999900   -1    0    0    0    0 -0.00000000000E+00 -0.00000000000E+00 -0.74505805969E-08  0.93827000000E+00  0.93827000000E+00 0. -1.
     999902    2    1    2    0    0 -0.10440957252E-01 -0.42843487666E-02 -0.20516074892E-01  0.10205146512E+01  0.10202459873E+01 0.  0.
     999903    2    3    3    0    0 -0.25295447033E-01  0.11952510026E+00 -0.44062221616E-01  0.13141181314E+00  0.20036866703E-01 0.  0.
         14    1    1    2    0    0  0.10440957252E-01  0.42843487666E-02  0.20516074892E-01  0.23415348848E-01  0.00000000000E+00 0.  1.
     999901    1    3    3    0    0  0.14854489782E-01 -0.12380944902E+00  0.23546146725E-01  0.88910283801E+00  0.88000000000E+00 0.  1.
        -11    1    4    4    0    0 -0.21241366102E-01  0.56737375985E-01 -0.26177349432E-01  0.65998789473E-01  0.51100000000E-03 0.  1.
         11    1    4    4    0    0 -0.40540809310E-02  0.62787724272E-01 -0.17884872184E-01  0.65413023669E-01  0.51100000000E-03 0. -1.
</event>
<event>
 8    1  0.1161093E+005  0.1043930E+01  0.7957747E-01            NaN
         13   -1    0    0    0    0  0.00000000000E+00  0.00000000000E+00  0.74505805969E-08  0.10566000000E+00  0.10566000000E+00 0.  1.
     999900   -1    0    0    0    0 -0.00000000000E+00 -0.00000000000E+00 -0.74505805969E-08  0.93827000000E+00  0.93827000000E+00 0. -1.
     999902    2    1    2    0    0 -0.15844178656E-03 -0.10013995792E-01 -0.21491005085E-01  0.10202199069E+01  0.10199443563E+01 0.  0.
     999903    2    3    3    0    0 -0.10102256663E-01  0.90932765061E-01 -0.92574312740E-01  0.13154563327E+00  0.19063758832E-01 0.  0.
         14    1    1    2    0    0  0.15844178656E-03  0.10013995792E-01  0.21491005085E-01  0.23710093106E-01  0.00000000000E+00 0.  1.
     999901    1    3    3    0    0  0.99438148768E-02 -0.10094676085E+00  0.71083307655E-01  0.88867427363E+00  0.88000000000E+00 0.  1.
        -11    1    4    4    0    0  0.44175360025E-02  0.35201612863E-01 -0.41152309728E-01  0.54336377221E-01  0.51100000000E-03 0.  1.
         11    1    4    4    0    0 -0.14519792666E-01  0.55731152198E-01 -0.51422003012E-01  0.77209256046E-01  0.51100000000E-03 0. -1.
</event>
<event>
 8    1  0.1161093E+005  0.1043930E+01  0.7957747E-01            NaN
         13   -1    0    0    0    0  0.00000000000E+00  0.00000000000E+00  0.74505805969E-08  0.10566000000E+00  0.10566000000E+00 0. -1.
     999900   -1    0    0    0    0 -0.00000000000E+00 -0.00000000000E+00 -0.74505805969E-08  0.93827000000E+00  0.93827000000E+00 0. -1.
     999902    2    1    2    0    0  0.62247283520E-02  0.14958851053E-01 -0.16780056190E-01  0.10206043756E+01  0.10203377905E+01 0.  0.
     999903    2    3    3    0    0  0.68966182082E-01  0.73891864529E-01 -0.85327937804E-01  0.13375128621E+00  0.19804233834E-01 0.  0.
         14    1    1    2    0    0 -0.62247283520E-02 -0.14958851053E-01  0.16780056190E-01  0.23325624399E-01  0.00000000000E+00 0. -1.
     999901    1    3    3    0    0 -0.62741453730E-01 -0.58933013475E-01  0.68547881614E-01  0.88685308939E+00  0.88000000000E+00 0.  1.
        -11    1    4    4    0    0  0.39067741559E-01  0.55492669914E-01 -0.57493657542E-01  0.88946650433E-01  0.51100000000E-03 0.  1.
         11    1    4    4    0    0  0.29898440522E-01  0.18399194615E-01 -0.27834280262E-01  0.44804635774E-01  0.51100000000E-03 0. -1.
</event>
<event>
 8    1  0.1161093E+005  0.1043930E+01  0.7957747E-01            NaN
         13   -1    0    0    0    0  0.00000000000E+00  0.00000000000E+00  0.74505805969E-08  0.10566000000E+00  0.10566000000E+00 0.  1.
     999900   -1    0    0    0    0 -0.00000000000E+00 -0.00000000000E+00 -0.74505805969E-08  0.93827000000E+00  0.93827000000E+00 0. -1.
     999902    2    1    2    0    0  0.85187041089E-02 -0.21464076166E-01  0.34563646298E-02  0.10205800248E+01  0.10203128764E+01 0.  0.
     999903    2    3    3    0    0 -0.81371169754E-01  0.68111818128E-01 -0.69614862466E-01  0.12847945060E+00  0.20006326857E-01 0.  0.
         14    1    1    2    0    0 -0.85187041089E-02  0.21464076166E-01 -0.34563646298E-02  0.23349975199E-01  0.00000000000E+00 0. -1.
     999901    1    3    3    0    0  0.89889873863E-01 -0.89575894294E-01  0.73071227096E-01  0.89210057420E+00  0.88000000000E+00 0.  1.
        -11    1    4    4    0    0 -0.73900056314E-01  0.52692964097E-01 -0.60331339923E-01  0.10898577195E+00  0.51100000000E-03 0. -1.
         11    1    4    4    0    0 -0.74711134394E-02  0.15418854031E-01 -0.92835225433E-02  0.19493678654E-01  0.51100000000E-03 0.  1.
</event>
<event>
 8    1  0.1161093E+005  0.1043930E+01  0.7957747E-01            NaN
         13   -1    0    0    0    0  0.00000000000E+00  0.00000000000E+00  0.74505805969E-08  0.10566000000E+00  0.10566000000E+00 0.  1.
     999900   -1    0    0    0    0 -0.00000000000E+00 -0.00000000000E+00 -0.74505805969E-08  0.93827000000E+00  0.93827000000E+00 0. -1.
     999902    2    1    2    0    0  0.91100872420E-02  0.20812561730E-01 -0.78204245992E-02  0.10199026103E+01  0.10196195462E+01 0.  0.
     999903    2    3    3    0    0 -0.46308575336E-01 -0.11043840389E+00  0.38268973775E-01  0.12725358812E+00  0.19693555574E-01 0.  0.
         14    1    1    2    0    0 -0.91100872420E-02 -0.20812561730E-01  0.78204245992E-02  0.24027389709E-01  0.00000000000E+00 0.  1.
     999901    1    3    3    0    0  0.55418662578E-01  0.13125096563E+00 -0.46089398374E-01  0.89264902217E+00  0.88000000000E+00 0. -1.
        -11    1    4    4    0    0 -0.34644644347E-01 -0.75603223670E-01  0.35453193477E-01  0.90406243479E-01  0.51100000000E-03 0.  1.
         11    1    4    4    0    0 -0.11663930989E-01 -0.34835180225E-01  0.28157802979E-02  0.36847344641E-01  0.51100000000E-03 0. -1.
</event>
<event>
 8    1  0.1161093E+005  0.1043930E+01  0.7957747E-01            NaN
         13   -1    0    0    0    0  0.00000000000E+00  0.00000000000E+00  0.74505805969E-08  0.10566000000E+00  0.10566000000E+00 0. -1.
     999900   -1    0    0    0    0 -0.00000000000E+00 -0.00000000000E+00 -0.74505805969E-08  0.93827000000E+00  0.93827000000E+00 0. -1.
     999902    2    1    2    0    0 -0.75631887207E-02 -0.94324556018E-02  0.16842740975E-01  0.10231971525E+01  0.10229870781E+01 0.  0.
     999903    2    3    3    0    0  0.19517516081E-01 -0.10419056177E-01  0.13202200706E+00  0.13527789868E+00  0.19514337234E-01 0.  0.
         14    1    1    2    0    0  0.75631887207E-02  0.94324556018E-02 -0.16842740975E-01  0.20732847510E-01  0.00000000000E+00 0.  1.
     999901    1    3    3    0    0 -0.27080704802E-01  0.98660057535E-03 -0.11517926608E+00  0.88791925381E+00  0.88000000000E+00 0. -1.
        -11    1    4    4    0    0  0.93523771477E-02  0.52808210349E-02  0.51533781442E-01  0.52643573015E-01  0.51100000000E-03 0. -1.
         11    1    4    4    0    0  0.10165138934E-01 -0.15699877212E-01  0.80488225617E-01  0.82634325664E-01  0.51100000000E-03 0.  1.
</event>
<event>
 8    1  0.1161093E+005  0.1043930E+01  0.7957747E-01            NaN
         13   -1    0    0    0    0  0.00000000000E+00  0.00000000000E+00  0.74505805969E-08  0.10566000000E+00  0.10566000000E+00 0.  1.
     999900   -1    0    0    0    0 -0.00000000000E+00 -0.00000000000E+00 -0.74505805969E-08  0.93827000000E+00  0.93827000000E+00 0. -1.
     999902    2    1    2    0    0 -0.16760792884E-01 -0.13030618236E-01  0.13012647000E-01  0.10190291934E+01  0.10187249122E+01 0.  0.
     999903    2    3    3    0    0  0.85800311161E-01 -0.37794258351E-01 -0.83914073788E-01  0.12744251381E+00  0.20246559880E-01 0.  0.
         14    1    1    2    0    0  0.16760792884E-01  0.13030618236E-01 -0.13012647000E-01  0.24900806647E-01  0.00000000000E+00 0. -1.
     999901    1    3    3    0    0 -0.10256110405E+00  0.24763640114E-01  0.96926720788E-01  0.89158667954E+00  0.88000000000E+00 0.  1.
        -11    1    4    4    0    0  0.52032542198E-01 -0.13691310178E-01 -0.54482732185E-01  0.76573276339E-01  0.51100000000E-03 0. -1.
         11    1    4    4    0    0  0.33767768963E-01 -0.24102948172E-01 -0.29431341604E-01  0.50869237471E-01  0.51100000000E-03 0.  1.
</event>
<event>
 8    1  0.1161093E+005  0.1043930E+01  0.7957747E-01            NaN
         13   -1    0    0    0    0  0.00000000000E+00  0.00000000000E+00  0.74505805969E-08  0.10566000000E+00  0.10566000000E+00 0.  1.
     999900   -1    0    0    0    0 -0.00000000000E+00 -0.00000000000E+00 -0.74505805969E-08  0.93827000000E+00  0.93827000000E+00 0.  1.
     999902    2    1    2    0    0 -0.20790498760E-01 -0.11301663359E-01  0.28286427890E-02  0.10200978022E+01  0.10198193724E+01 0.  0.
     999903    2    3    3    0    0 -0.50575276927E-01 -0.11299407397E-01 -0.11805370665E+00  0.13133479922E+00  0.25032310875E-01 0.  0.
         14    1    1    2    0    0  0.20790498760E-01  0.11301663359E-01 -0.28286427890E-02  0.23832197830E-01  0.00000000000E+00 0. -1.
     999901    1    3    3    0    0  0.29784778167E-01 -0.22559620453E-05  0.12088234944E+00  0.88876300295E+00  0.88000000000E+00 0. -1.
        -11    1    4    4    0    0 -0.42680836891E-01  0.80574746768E-03 -0.94506228957E-01  0.10370145370E+00  0.51100000000E-03 0. -1.
         11    1    4    4    0    0 -0.78944400363E-02 -0.12105154865E-01 -0.23547477692E-01  0.27633345516E-01  0.51100000000E-03 0.  1.
</event>
<event>
 8    1  0.1161093E+005  0.1043930E+01  0.7957747E-01            NaN
         13   -1    0    0    0    0  0.00000000000E+00  0.00000000000E+00  0.74505805969E-08  0.10566000000E+00  0.10566000000E+00 0.  1.
     999900   -1    0    0    0    0 -0.00000000000E+00 -0.00000000000E+00 -0.74505805969E-08  0.93827000000E+00  0.93827000000E+00 0. -1.
     999902    2    1    2    0    0 -0.16919822228E-01  0.16249957136E-01 -0.57277667494E-02  0.10197815259E+01  0.10194955673E+01 0.  0.
     999903    2    3    3    0    0 -0.10413221628E+00 -0.48668638799E-01 -0.60393009879E-01  0.13140732848E+00  0.20209291543E-01 0.  0.
         14    1    1    2    0    0  0.16919822228E-01 -0.16249957136E-01  0.57277667494E-02  0.24148474136E-01  0.00000000000E+00 0. -1.
     999901    1    3    3    0    0  0.87212394057E-01  0.64918595934E-01  0.54665243130E-01  0.88837419739E+00  0.88000000000E+00 0. -1.
        -11    1    4    4    0    0 -0.31654008292E-01 -0.23045345547E-01 -0.27164444369E-01  0.47657448014E-01  0.51100000000E-03 0.  1.
         11    1    4    4    0    0 -0.72478207993E-01 -0.25623293251E-01 -0.33228565510E-01  0.83749880464E-01  0.51100000000E-03 0. -1.
</event>
<event>
 8    1  0.1161093E+005  0.1043930E+01  0.7957747E-01            NaN
         13   -1    0    0    0    0  0.00000000000E+00  0.00000000000E+00  0.74505805969E-08  0.10566000000E+00  0.10566000000E+00 0.  1.
     999900   -1    0    0    0    0 -0.00000000000E+00 -0.00000000000E+00 -0.74505805969E-08  0.93827000000E+00  0.93827000000E+00 0. -1.
     999902    2    1    2    0    0  0.41081731415E-02 -0.21421294306E-01  0.88658386384E-02  0.10203853184E+01  0.10201136437E+01 0.  0.
     999903    2    3    3    0    0 -0.39809787119E-01 -0.12490668369E+00  0.11194609308E-01  0.13323063279E+00  0.20942384161E-01 0.  0.
         14    1    1    2    0    0 -0.41081731415E-02  0.21421294306E-01 -0.88658386384E-02  0.23544681588E-01  0.00000000000E+00 0. -1.
     999901    1    3    3    0    0  0.43917960261E-01  0.10348538939E+00 -0.23287706692E-02  0.88715468562E+00  0.88000000000E+00 0.  1.
        -11    1    4    4    0    0 -0.18993304151E-01 -0.84775332655E-01  0.10026090155E-02  0.86884227425E-01  0.51100000000E-03 0. -1.
         11    1    4    4    0    0 -0.20816482968E-01 -0.40131351037E-01  0.10192000292E-01  0.46346405364E-01  0.51100000000E-03 0.  1.
</event>
<event>
 8    1  0.1161093E+005  0.1043930E+01  0.7957747E-01            NaN
         13   -1    0    0    0    0  0.00000000000E+00  0.00000000000E+00  0.74505805969E-08  0.10566000000E+00  0.10566000000E+00 0. -1.
     999900   -1    0    0    0    0 -0.00000000000E+00 -0.00000000000E+00 -0.74505805969E-08  0.93827000000E+00  0.93827000000E+00 0.  1.
     999902    2    1    2    0    0  0.12051845907E-01  0.11965898200E-01  0.18110841265E-01  0.10191019457E+01  0.10187994618E+01 0.  0.
     999903    2    3    3    0    0  0.91239895694E-01  0.28271613766E-01 -0.84838861329E-01  0.12941926920E+00  0.20681202495E-01 0.  0.
         14    1    1    2    0    0 -0.12051845907E-01 -0.11965898200E-01 -0.18110841265E-01  0.24828054309E-01  0.00000000000E+00 0.  1.
     999901    1    3    3    0    0 -0.79188049787E-01 -0.16305715566E-01  0.10294970259E+00  0.88968267649E+00  0.88000000000E+00 0. -1.
        -11    1    4    4    0    0  0.42803913204E-01  0.14919137897E-01 -0.53831565201E-01  0.70376517349E-01  0.51100000000E-03 0. -1.
         11    1    4    4    0    0  0.48435982490E-01  0.13352475868E-01 -0.31007296128E-01  0.59042751848E-01  0.51100000000E-03 0.  1.
</event>
<event>
 7    1  0.1606063E+005  0.1043930E+01  0.7957747E-01            NaN
         13   -1    0    0    0    0  0.00000000000E+00  0.00000000000E+00  0.74505805969E-08  0.10566000000E+00  0.10566000000E+00 0.  1.
     999900   -1    0    0    0    0 -0.00000000000E+00 -0.00000000000E+00 -0.74505805969E-08  0.93827000000E+00  0.93827000000E+00 0.  1.
     999903    2    1    2    0    0  0.21719644210E-02  0.83477597739E-01 -0.91837219994E-02  0.86330428394E-01  0.19884047959E-01 0.  0.
         14    1    1    2    0    0  0.18628192964E-01 -0.74847452396E-01 -0.36642060029E-02  0.77217725354E-01  0.00000000000E+00 0.  1.
     999901    1    1    2    0    0 -0.20800157385E-01 -0.86301453425E-02  0.12847928002E-01  0.88038184625E+00  0.88000000000E+00 0. -1.
        -11    1    3    3    0    0  0.12527573105E-02  0.40886477645E-01  0.54781475503E-02  0.41274019390E-01  0.51100000000E-03 0. -1.
         11    1    3    3    0    0  0.91920711052E-03  0.42591120094E-01 -0.14661869550E-01  0.45056409003E-01  0.51100000000E-03 0.  1.
</event>
<event>
 8    1  0.1161093E+005  0.1043930E+01  0.7957747E-01            NaN
         13   -1    0    0    0    0  0.00000000000E+00  0.00000000000E+00  0.74505805969E-08  0.10566000000E+00  0.10566000000E+00 0. -1.
     999900   -1    0    0    0    0 -0.00000000000E+00 -0.00000000000E+00 -0.74505805969E-08  0.93827000000E+00  0.93827000000E+00 0. -1.
     999902    2    1    2    0    0  0.20546164240E-01 -0.18131656516E-03 -0.11638679424E-01  0.10203156696E+01  0.10200423663E+01 0.  0.
     999903    2    3    3    0    0  0.12509794031E+00  0.11659425925E-01  0.37848313470E-01  0.13266695558E+00  0.19559892339E-01 0.  0.
         14    1    1    2    0    0 -0.20546164240E-01  0.18131656516E-03  0.11638679424E-01  0.23614330382E-01  0.00000000000E+00 0.  1.
     999901    1    3    3    0    0 -0.10455177607E+00 -0.11840742490E-01 -0.49486992894E-01  0.88764871403E+00  0.88000000000E+00 0. -1.
        -11    1    4    4    0    0  0.42586517647E-01 -0.41738603344E-04  0.42154955205E-02  0.42797718992E-01  0.51100000000E-03 0. -1.
         11    1    4    4    0    0  0.82511422663E-01  0.11701164528E-01  0.33632817949E-01  0.89869236591E-01  0.51100000000E-03 0.  1.
</event>
<event>
 8    1  0.1428249E+005  0.1043930E+01  0.7957747E-01            NaN
         13   -1    0    0    0    0  0.00000000000E+00  0.00000000000E+00  0.74505805969E-08  0.10566000000E+00  0.10566000000E+00 0.  1.
     999900   -1    0    0    0    0 -0.00000000000E+00 -0.00000000000E+00 -0.74505805969E-08  0.93827000000E+00  0.93827000000E+00 0. -1.
     999902    2    1    2    0    0  0.17206439043E-01  0.14387566508E-01  0.77394610912E-02  0.10202031613E+01  0.10199272168E+01 0.  0.
     999903    2    3    3    0    0 -0.77331259020E-01 -0.89536069134E-01  0.45275648143E-01  0.12826904733E+00  0.20155219956E-01 0.  0.
         14    1    1    2    0    0 -0.17206439043E-01 -0.14387566508E-01 -0.77394610912E-02  0.23726838654E-01  0.00000000000E+00 0. -1.
     999901    1    3    3    0    0  0.94537698063E-01  0.10392363564E+00 -0.37536187052E-01  0.89193411401E+00  0.88000000000E+00 0.  1.
        -11    1    4    4    0    0 -0.37718947390E-01 -0.46652743431E-01  0.33490715354E-01  0.68710163715E-01  0.51100000000E-03 0. -1.
         11    1    4    4    0    0 -0.39612311630E-01 -0.42883325703E-01  0.11784932789E-01  0.59558883619E-01  0.51100000000E-03 0.  1.
</event>
<event>
 8    1  0.1161093E+005  0.1043930E+01  0.7957747E-01            NaN
         13   -1    0    0    0    0  0.00000000000E+00  0.00000000000E+00  0.74505805969E-08  0.10566000000E+00  0.10566000000E+00 0. -1.
     999900   -1    0    0    0    0 -0.00000000000E+00 -0.00000000000E+00 -0.74505805969E-08  0.93827000000E+00  0.93827000000E+00 0.  1.
     999902    2    1    2    0    0  0.14983950655E-01  0.65287167898E-02  0.17112383805E-01  0.10202661753E+01  0.10199917117E+01 0.  0.
     999903    2    3    3    0    0  0.11118173415E+00  0.43877443021E-01  0.55449852769E-01  0.13340727872E+00  0.20885589044E-01 0.  0.
         14    1    1    2    0    0 -0.14983950655E-01 -0.65287167898E-02 -0.17112383805E-01  0.23663824705E-01  0.00000000000E+00 0.  1.
     999901    1    3    3    0    0 -0.96197783495E-01 -0.37348726231E-01 -0.38337468964E-01  0.88685889657E+00  0.88000000000E+00 0.  1.
        -11    1    4    4    0    0  0.74379209464E-01  0.33340600372E-01  0.47379894497E-01  0.94281376513E-01  0.51100000000E-03 0. -1.
         11    1    4    4    0    0  0.36802524687E-01  0.10536842649E-01  0.80699582717E-02  0.39125902211E-01  0.51100000000E-03 0.  1.
</event>
<event>
 8    1  0.1161093E+005  0.1043930E+01  0.7957747E-01            NaN
         13   -1    0    0    0    0  0.00000000000E+00  0.00000000000E+00  0.74505805969E-08  0.10566000000E+00  0.10566000000E+00 0.  1.
     999900   -1    0    0    0    0 -0.00000000000E+00 -0.00000000000E+00 -0.74505805969E-08  0.93827000000E+00  0.93827000000E+00 0.  1.
     999902    2    1    2    0    0  0.11872686079E-02 -0.26531474077E-02  0.23115538817E-01  0.10206324265E+01  0.10203664896E+01 0.  0.
     999903    2    3    3    0    0 -0.72634822414E-01 -0.79910833780E-01 -0.68513352348E-01  0.12944540629E+00  0.20011870914E-01 0.  0.
         14    1    1    2    0    0 -0.11872686079E-02  0.26531474077E-02 -0.23115538817E-01  0.23297573537E-01  0.00000000000E+00 0. -1.
     999901    1    3    3    0    0  0.73822091022E-01  0.77257686372E-01  0.91628891165E-01  0.89118702017E+00  0.88000000000E+00 0. -1.
        -11    1    4    4    0    0 -0.21665518737E-02 -0.73253425954E-02 -0.77560531348E-03  0.76952761981E-02  0.51100000000E-03 0. -1.
         11    1    4    4    0    0 -0.70468270540E-01 -0.72585491184E-01 -0.67737747035E-01  0.12175013009E+00  0.51100000000E-03 0.  1.
</event>
<event>
 8    1  0.1161093E+005  0.1043930E+01  0.7957747E-01            NaN
         13   -1    0    0    0    0  0.00000000000E+00  0.00000000000E+00  0.74505805969E-08  0.10566000000E+00  0.10566000000E+00 0. -1.
     999900   -1    0    0    0    0 -0.00000000000E+00 -0.00000000000E+00 -0.74505805969E-08  0.93827000000E+00  0.93827000000E+00 0.  1.
     999902    2    1    2    0    0  0.10275992309E-01 -0.16669771684E-01  0.13170834107E-01  0.10203302505E+01  0.10200572885E+01 0.  0.
     999903    2    3    3    0    0  0.10903780835E+00 -0.38310420352E-01 -0.59622689011E-01  0.13155518840E+00  0.19873867096E-01 0.  0.
         14    1    1    2    0    0 -0.10275992309E-01  0.16669771684E-01 -0.13170834107E-01  0.23599749512E-01  0.00000000000E+00 0.  1.
     999901    1    3    3    0    0 -0.98761816038E-01  0.21640648669E-01  0.72793523117E-01  0.88877506209E+00  0.88000000000E+00 0. -1.
        -11    1    4    4    0    0  0.23156920284E-01 -0.30173720881E-02 -0.52008363299E-02  0.23930259315E-01  0.51100000000E-03 0.  1.
         11    1    4    4    0    0  0.85880888063E-01 -0.35293048264E-01 -0.54421852681E-01  0.10762492908E+00  0.51100000000E-03 0. -1.
</event>
<event>
 8    1  0.1161093E+005  0.1043930E+01  0.7957747E-01            NaN
         13   -1    0    0    0    0  0.00000000000E+00  0.00000000000E+00  0.74505805969E-08  0.10566000000E+00  0.10566000000E+00 0.  1.
     999900   -1    0    0    0    0 -0.00000000000E+00 -0.00000000000E+00 -0.74505805969E-08  0.93827000000E+00  0.93827000000E+00 0.  1.
     999902    2    1    2    0    0 -0.22910475217E-01  0.70792528776E-02 -0.26795061477E-02  0.10198014806E+01  0.10195160000E+01 0.  0.
     999903    2    3    3    0    0  0.86470450655E-01  0.63893506294E-01  0.67205500010E-01  0.12846767082E+00  0.20684395871E-01 0.  0.
         14    1    1    2    0    0  0.22910475217E-01 -0.70792528776E-02  0.26795061477E-02  0.24128519415E-01  0.00000000000E+00 0. -1.
     999901    1    3    3    0    0 -0.10938092587E+00 -0.56814253416E-01 -0.69885006158E-01  0.89133380976E+00  0.88000000000E+00 0.  1.
        -11    1    4    4    0    0  0.12613009706E-01  0.45032259229E-02  0.15552093226E-01  0.20530362449E-01  0.51100000000E-03 0.  1.
         11    1    4    4    0    0  0.73857440949E-01  0.59390280371E-01  0.51653406784E-01  0.10793730838E+00  0.51100000000E-03 0. -1.
</event>
<event>
 8    1  0.1161093E+005  0.1043930E+01  0.7957747E-01            NaN
         13   -1    0    0    0    0  0.00000000000E+00  0.00000000000E+00  0.74505805969E-08  0.10566000000E+00  0.10566000000E+00 0. -1.
     999900   -1    0    0    0    0 -0.00000000000E+00 -0.00000000000E+00 -0.74505805969E-08  0.93827000000E+00  0.93827000000E+00 0. -1.
     999902    2    1    2    0    0  0.70744263037E-03 -0.10180087475E-01  0.22981436621E-01  0.10187848000E+01  0.10184744413E+01 0.  0.
     999903    2    3    3    0    0  0.11847190096E+00 -0.46687759897E-01 -0.12081400402E-01  0.12949818680E+00  0.20210935400E-01 0.  0.
         14    1    1    2    0    0 -0.70744263037E-03  0.10180087475E-01 -0.22981436621E-01  0.25145200044E-01  0.00000000000E+00 0.  1.
     999901    1    3    3    0    0 -0.11776445833E+00  0.36507672422E-01  0.35062837023E-01  0.88928661315E+00  0.88000000000E+00 0.  1.
        -11    1    4    4    0    0  0.95424406372E-01 -0.37053431365E-01 -0.17707062611E-01  0.10388732018E+00  0.51100000000E-03 0.  1.
         11    1    4    4    0    0  0.23047494584E-01 -0.96343285321E-02  0.56256622093E-02  0.25610866623E-01  0.51100000000E-03 0. -1.
</event>
<event>
 8    1  0.1161093E+005  0.1043930E+01  0.7957747E-01            NaN
         13   -1    0    0    0    0  0.00000000000E+00  0.00000000000E+00  0.74505805969E-08  0.10566000000E+00  0.10566000000E+00 0.  1.
     999900   -1    0    0    0    0 -0.00000000000E+00 -0.00000000000E+00 -0.74505805969E-08  0.93827000000E+00  0.93827000000E+00 0. -1.
     999902    2    1    2    0    0  0.19119041639E-01 -0.12980124024E-01  0.71204784884E-03  0.10208101301E+01  0.10205482807E+01 0.  0.
     999903    2    3    3    0    0 -0.85974907351E-01 -0.96124389469E-01  0.37965443018E-02  0.13066001852E+00  0.20640827185E-01 0.  0.
         14    1    1    2    0    0 -0.19119041639E-01  0.12980124024E-01 -0.71204784884E-03  0.23119869918E-01  0.00000000000E+00 0. -1.
     999901    1    3    3    0    0  0.10509394899E+00  0.83144265445E-01 -0.30844964529E-02  0.89015011156E+00  0.88000000000E+00 0. -1.
        -11    1    4    4    0    0 -0.68977960267E-01 -0.70472983601E-01  0.10473168479E-01  0.99168285249E-01  0.51100000000E-03 0.  1.
         11    1    4    4    0    0 -0.16996947085E-01 -0.25651405868E-01 -0.66766241772E-02  0.31491733274E-01  0.51100000000E-03 0. -1.
</event>
<event>
 8    1  0.1161093E+005  0.1043930E+01  0.7957747E-01            NaN
         13   -1    0    0    0    0  0.00000000000E+00  0.00000000000E+00  0.74505805969E-08  0.10566000000E+00  0.10566000000E+00 0. -1.
     999900   -1    0    0    0    0 -0.00000000000E+00 -0.00000000000E+00 -0.74505805969E-08  0.93827000000E+00  0.93827000000E+00 0.  1.
     999902    2    1    2    0    0 -0.85218916532E-04 -0.63882949401E-02 -0.23208771056E-01  0.10198579285E+01  0.10195737980E+01 0.  0.
     999903    2    3    3    0    0 -0.64633596338E-01  0.52084484821E-01 -0.10095883521E+00  0.13214703437E+00  0.19489919212E-01 0.  0.
         14    1    1    2    0    0  0.85218916532E-04  0.63882949401E-02  0.23208771056E-01  0.24072071544E-01  0.00000000000E+00 0. -1.
     999901    1    3    3    0    0  0.64548377421E-01 -0.58472779761E-01  0.77750064156E-01  0.88771089408E+00  0.88000000000E+00 0. -1.
        -11    1    4    4    0    0 -0.31707378043E-01  0.14912976906E-01 -0.49345094982E-01  0.60522344818E-01  0.51100000000E-03 0. -1.
         11    1    4    4    0    0 -0.32926218295E-01  0.37171507915E-01 -0.51613740231E-01  0.71624689552E-01  0.51100000000E-03 0.  1.
</event>
<event>
 8    1  0.1161093E+005  0.1043930E+01  0.7957747E-01            NaN
         13   -1    0    0    0    0  0.00000000000E+00  0.00000000000E+00  0.74505805969E-08  0.10566000000E+00  0.10566000000E+00 0. -1.
     999900   -1    0    0    0    0 -0.00000000000E+00 -0.00000000000E+00 -0.74505805969E-08  0.93827000000E+00  0.93827000000E+00 0.  1.
     999902    2    1    2    0    0 -0.61514676155E-02  0.98422840868E-02  0.18962856917E-01  0.10216971178E+01  0.10214551872E+01 0.  0.
     999903    2    3    3    0    0 -0.43307577151E-01  0.12256314385E+00  0.23677409062E-01  0.13371694023E+00  0.20550667510E-01 0.  0.
         14    1    1    2    0    0  0.61514676155E-02 -0.98422840868E-02 -0.18962856917E-01  0.22232882232E-01  0.00000000000E+00 0.  1.
     999901    1    3    3    0    0  0.37156109535E-01 -0.11272085976E+00 -0.47145521451E-02  0.88798017754E+00  0.88000000000E+00 0. -1.
        -11    1    4    4    0    0 -0.23734033939E-01  0.86812270309E-01  0.23244985882E-01  0.92953026486E-01  0.51100000000E-03 0.  1.
         11    1    4    4    0    0 -0.19573543212E-01  0.35750873541E-01  0.43242318056E-03  0.40763913743E-01  0.51100000000E-03 0. -1.
</event>
<event>
 8    1  0.1161093E+005  0.1043930E+01  0.7957747E-01            NaN
         13   -1    0    0    0    0  0.00000000000E+00  0.00000000000E+00  0.74505805969E-08  0.10566000000E+00  0.10566000000E+00 0. -1.
     999900   -1    0    0    0    0 -0.00000000000E+00 -0.00000000000E+00 -0.74505805969E-08  0.93827000000E+00  0.93827000000E+00 0.  1.
     999902    2    1    2    0    0 -0.17716556436E-02  0.20490718919E-01  0.74963323488E-02  0.10220392868E+01  0.10218048250E+01 0.  0.
     999903    2    3    3    0    0  0.29978545898E-01 -0.25241404305E-01  0.12497749594E+00  0.13248809312E+00  0.19946894998E-01 0.  0.
         14    1    1    2    0    0  0.17716556436E-02 -0.20490718919E-01 -0.74963323488E-02  0.21890713196E-01  0.00000000000E+00 0.  1.
     999901    1    3    3    0    0 -0.31750201541E-01  0.45732123224E-01 -0.11748116359E+00  0.88955119369E+00  0.88000000000E+00 0.  1.
        -11    1    4    4    0    0  0.23832964456E-01 -0.73108238381E-02  0.67044647064E-01  0.71531141197E-01  0.51100000000E-03 0. -1.
         11    1    4    4    0    0  0.61455814417E-02 -0.17930580467E-01  0.57932848878E-01  0.60956951919E-01  0.51100000000E-03 0.  1.
</event>
<event>
 8    1  0.1161093E+005  0.1043930E+01  0.7957747E-01            NaN
         13   -1    0    0    0    0  0.00000000000E+00  0.00000000000E+00  0.74505805969E-08  0.10566000000E+00  0.10566000000E+00 0.  1.
     999900   -1    0    0    0    0 -0.00000000000E+00 -0.00000000000E+00 -0.74505805969E-08  0.93827000000E+00  0.93827000000E+00 0. -1.
     999902    2    1    2    0    0 -0.16374329057E-01 -0.10113594465E-01  0.13764798241E-01  0.10202683619E+01  0.10199939496E+01 0.  0.
     999903    2    3    3    0    0 -0.71787764585E-01  0.71740049720E-01  0.82119855578E-01  0.13209997601E+00  0.20164699436E-01 0.  0.
         14    1    1    2    0    0  0.16374329057E-01  0.10113594465E-01 -0.13764798241E-01  0.23661638060E-01  0.00000000000E+00 0. -1.
     999901    1    3    3    0    0  0.55413435528E-01 -0.81853644185E-01 -0.68355057337E-01  0.88816838593E+00  0.88000000000E+00 0.  1.
        -11    1    4    4    0    0 -0.27582327877E-01  0.20879651478E-01  0.38819078800E-01  0.51999294773E-01  0.51100000000E-03 0.  1.
         11    1    4    4    0    0 -0.44205436708E-01  0.50860398242E-01  0.43300776778E-01  0.80100681236E-01  0.51100000000E-03 0. -1.
</event>
<event>
 8    1  0.1161093E+005  0.1043930E+01  0.7957747E-01            NaN
         13   -1    0    0    0    0  0.00000000000E+00  0.00000000000E+00  0.74505805969E-08  0.10566000000E+00  0.10566000000E+00 0. -1.
     999900   -1    0    0    0    0 -0.00000000000E+00 -0.00000000000E+00 -0.74505805969E-08  0.93827000000E+00  0.93827000000E+00 0. -1.
     999902    2    1    2    0    0  0.11597917579E-01 -0.17305492090E-01  0.11098354368E-01  0.10203256526E+01  0.10200525830E+01 0.  0.
     999903    2    3    3    0    0 -0.87045166441E-01 -0.84642543689E-01  0.46687572519E-01  0.13154484212E+00  0.19572809166E-01 0.  0.
         14    1    1    2    0    0 -0.11597917579E-01  0.17305492090E-01 -0.11098354368E-01  0.23604347445E-01  0.00000000000E+00 0. -1.
     999901    1    3    3    0    0  0.98643084020E-01  0.67337051598E-01 -0.35589218151E-01  0.88878081043E+00  0.88000000000E+00 0. -1.
        -11    1    4    4    0    0 -0.41348972619E-01 -0.29399960474E-01  0.13271938531E-01  0.52445216044E-01  0.51100000000E-03 0. -1.
         11    1    4    4    0    0 -0.45696193821E-01 -0.55242583214E-01  0.33415633988E-01  0.79099626079E-01  0.51100000000E-03 0.  1.
</event>
<event>
 8    1  0.1161093E+005  0.1043930E+01  0.7957747E-01            NaN
         13   -1    0    0    0    0  0.00000000000E+00  0.00000000000E+00  0.74505805969E-08  0.10566000000E+00  0.10566000000E+00 0.  1.
     999900   -1    0    0    0    0 -0.00000000000E+00 -0.00000000000E+00 -0.74505805969E-08  0.93827000000E+00  0.93827000000E+00 0.  1.
     999902    2    1    2    0    0 -0.14633919910E-01  0.17333215386E-02 -0.19496271373E-01  0.10194910840E+01  0.10191981210E+01 0.  0.
     999903    2    3    3    0    0 -0.10354641246E+00  0.37390895680E-01 -0.71216520636E-01  0.13278263246E+00  0.20964161336E-01 0.  0.
         14    1    1    2    0    0  0.14633919910E-01 -0.17333215386E-02  0.19496271373E-01  0.24438915952E-01  0.00000000000E+00 0.  1.
     999901    1    3    3    0    0  0.88912492546E-01 -0.35657574141E-01  0.51720249263E-01  0.88670845158E+00  0.88000000000E+00 0.  1.
        -11    1    4    4    0    0 -0.46595561971E-01  0.59610329989E-02 -0.31636865749E-01  0.56637732169E-01  0.51100000000E-03 0. -1.
         11    1    4    4    0    0 -0.56950850485E-01  0.31429862681E-01 -0.39579654887E-01  0.76144900296E-01  0.51100000000E-03 0.  1.
</event>
<event>
 8    1  0.1161093E+005  0.1043930E+01  0.7957747E-01            NaN
         13   -1    0    0    0    0  0.00000000000E+00  0.00000000000E+00  0.74505805969E-08  0.10566000000E+00  0.10566000000E+00 0. -1.
     999900   -1    0    0    0    0 -0.00000000000E+00 -0.00000000000E+00 -0.74505805969E-08  0.93827000000E+00  0.93827000000E+00 0. -1.
     999902    2    1    2    0    0 -0.17628362920E-01 -0.15102634724E-01  0.45840048001E-02  0.10202685999E+01  0.10199941932E+01 0.  0.
     999903    2    3    3    0    0  0.61886143652E-01  0.13693205965E-01  0.11119020001E+00  0.12980993266E+00  0.21678546379E-01 0.  0.
         14    1    1    2    0    0  0.17628362920E-01  0.15102634724E-01 -0.45840048001E-02  0.23661400103E-01  0.00000000000E+00 0.  1.
     999901    1    3    3    0    0 -0.79514506572E-01 -0.28795840688E-01 -0.10660619521E+00  0.89045866724E+00  0.88000000000E+00 0.  1.
        -11    1    4    4    0    0  0.55510118000E-03  0.24702212287E-02  0.14712977011E-01  0.14937969868E-01  0.51100000000E-03 0.  1.
         11    1    4    4    0    0  0.61331042472E-01  0.11222984736E-01  0.96477223001E-01  0.11487196279E+00  0.51100000000E-03 0. -1.
</event>
<event>
 8    1  0.1161093E+005  0.1043930E+01  0.7957747E-01            NaN
         13   -1    0    0    0    0  0.00000000000E+00  0.00000000000E+00  0.74505805969E-08  0.10566000000E+00  0.10566000000E+00 0.  1.
     999900   -1    0    0    0    0 -0.00000000000E+00 -0.00000000000E+00 -0.74505805969E-08  0.93827000000E+00  0.93827000000E+00 0. -1.
     999902    2    1    2    0    0 -0.14743927784E-01  0.30310986300E-01 -0.37642196561E-02  0.10100137996E+01  0.10094441871E+01 0.  0.
     999903    2    3    3    0    0 -0.51102273224E-01 -0.96427927941E-01 -0.43992478737E-01  0.11928208106E+00  0.19572661044E-01 0.  0.
         14    1    1    2    0    0  0.14743927784E-01 -0.30310986300E-01  0.37642196561E-02  0.33916200356E-01  0.00000000000E+00 0.  1.
     999901    1    3    3    0    0  0.36358345440E-01  0.12673891424E+00  0.40228259081E-01  0.89073171859E+00  0.88000000000E+00 0.  1.
        -11    1    4    4    0    0 -0.16733289523E-01 -0.15026812292E-01 -0.81042566584E-02  0.23911255988E-01  0.51100000000E-03 0.  1.
         11    1    4    4    0    0 -0.34368983701E-01 -0.81401115649E-01 -0.35888222079E-01  0.95370825070E-01  0.51100000000E-03 0. -1.
</event>
<event>
 8    1  0.1161093E+005  0.1043930E+01  0.7957747E-01            NaN
         13   -1    0    0    0    0  0.00000000000E+00  0.00000000000E+00  0.74505805969E-08  0.10566000000E+00  0.10566000000E+00 0. -1.
     999900   -1    0    0    0    0 -0.00000000000E+00 -0.00000000000E+00 -0.74505805969E-08  0.93827000000E+00  0.93827000000E+00 0. -1.
     999902    2    1    2    0    0 -0.18169528988E-01 -0.96151840738E-02 -0.30605918326E-01  0.10070612356E+01  0.10063861220E+01 0.  0.
     999903    2    3    3    0    0  0.65942557534E-01 -0.88896819391E-03 -0.98618657221E-01  0.12039516401E+00  0.20497434125E-01 0.  0.
         14    1    1    2    0    0  0.18169528988E-01  0.96151840738E-02  0.30605918326E-01  0.36868764354E-01  0.00000000000E+00 0. -1.
     999901    1    3    3    0    0 -0.84112086522E-01 -0.87262158799E-02  0.68012738896E-01  0.88666607164E+00  0.88000000000E+00 0.  1.
        -11    1    4    4    0    0  0.36480801532E-01 -0.84106817475E-02 -0.65393705846E-01  0.75353741335E-01  0.51100000000E-03 0.  1.
         11    1    4    4    0    0  0.29461756001E-01  0.75217135536E-02 -0.33224951375E-01  0.45041422672E-01  0.51100000000E-03 0. -1.
</event>
<event>
 8    1  0.1161093E+005  0.1043930E+01  0.7957747E-01            NaN
         13   -1    0    0    0    0  0.00000000000E+00  0.00000000000E+00  0.74505805969E-08  0.10566000000E+00  0.10566000000E+00 0. -1.
     999900   -1    0    0    0    0 -0.00000000000E+00 -0.00000000000E+00 -0.74505805969E-08  0.93827000000E+00  0.93827000000E+00 0. -1.
     999902    2    1    2    0    0 -0.22742794810E-01 -0.28644273855E-02 -0.57804101396E-02  0.10202899323E+01  0.10200160259E+01 0.  0.
     999903    2    3    3    0    0 -0.91575463391E-01  0.50345734364E-01  0.77881608242E-01  0.13205089301E+00  0.21239938291E-01 0.  0.
         14    1    1    2    0    0  0.22742794810E-01  0.28644273855E-02  0.57804101396E-02  0.23640067712E-01  0.00000000000E+00 0. -1.
     999901    1    3    3    0    0  0.68832668581E-01 -0.53210161750E-01 -0.83662018382E-01  0.88823903928E+00  0.88000000000E+00 0.  1.
        -11    1    4    4    0    0 -0.42090210596E-01  0.11248633838E-01  0.31694882641E-01  0.53878978255E-01  0.51100000000E-03 0. -1.
         11    1    4    4    0    0 -0.49485252795E-01  0.39097100526E-01  0.46186725601E-01  0.78171914755E-01  0.51100000000E-03 0.  1.
</event>
<event>
 8    1  0.1161093E+005  0.1043930E+01  0.7957747E-01            NaN
         13   -1    0    0    0    0  0.00000000000E+00  0.00000000000E+00  0.74505805969E-08  0.10566000000E+00  0.10566000000E+00 0. -1.
     999900   -1    0    0    0    0 -0.00000000000E+00 -0.00000000000E+00 -0.74505805969E-08  0.93827000000E+00  0.93827000000E+00 0.  1.
     999902    2    1    2    0    0  0.84147956110E-02 -0.12939045932E-01 -0.18482386818E-01  0.10198504170E+01  0.10195661071E+01 0.  0.
     999903    2    3    3    0    0 -0.30290763526E-01 -0.67822469148E-01 -0.10789894769E+00  0.13277340129E+00  0.21660459374E-01 0.  0.
         14    1    1    2    0    0 -0.84147956110E-02  0.12939045932E-01  0.18482386818E-01  0.24079582997E-01  0.00000000000E+00 0. -1.
     999901    1    3    3    0    0  0.38705559137E-01  0.54883423215E-01  0.89416560873E-01  0.88707701572E+00  0.88000000000E+00 0. -1.
        -11    1    4    4    0    0 -0.27862521372E-01 -0.58519125153E-01 -0.10365390003E+00  0.12225056326E+00  0.51100000000E-03 0. -1.
         11    1    4    4    0    0 -0.24282421547E-02 -0.93033439945E-02 -0.42450476626E-02  0.10522838025E-01  0.51100000000E-03 0.  1.
</event>
<event>
 8    1  0.1161093E+005  0.1043930E+01  0.7957747E-01            NaN
         13   -1    0    0    0    0  0.00000000000E+00  0.00000000000E+00  0.74505805969E-08  0.10566000000E+00  0.10566000000E+00 0. -1.
     999900   -1    0    0    0    0 -0.00000000000E+00 -0.00000000000E+00 -0.74505805969E-08  0.93827000000E+00  0.93827000000E+00 0. -1.
     999902    2    1    2    0    0 -0.17937468093E-01 -0.28678394225E-02  0.15930851184E-01  0.10197686821E+01  0.10194824156E+01 0.  0.
     999903    2    3    3    0    0 -0.42930181928E-01  0.10620777159E+00 -0.57536601411E-01  0.12964532475E+00  0.19348345191E-01 0.  0.
         14    1    1    2    0    0  0.17937468093E-01  0.28678394225E-02 -0.15930851184E-01  0.24161317927E-01  0.00000000000E+00 0.  1.
     999901    1    3    3    0    0  0.24992713836E-01 -0.10907561101E+00  0.73467452595E-01  0.89012335732E+00  0.88000000000E+00 0.  1.
        -11    1    4    4    0    0 -0.35457935691E-01  0.79923263153E-01 -0.34853038922E-01  0.94127512660E-01  0.51100000000E-03 0.  1.
         11    1    4    4    0    0 -0.74722462376E-02  0.26284508434E-01 -0.22683562488E-01  0.35517812089E-01  0.51100000000E-03 0. -1.
</event>
<event>
 8    1  0.1161093E+005  0.1043930E+01  0.7957747E-01            NaN
         13   -1    0    0    0    0  0.00000000000E+00  0.00000000000E+00  0.74505805969E-08  0.10566000000E+00  0.10566000000E+00 0.  1.
     999900   -1    0    0    0    0 -0.00000000000E+00 -0.00000000000E+00 -0.74505805969E-08  0.93827000000E+00  0.93827000000E+00 0.  1.
     999902    2    1    2    0    0 -0.14984479174E-01 -0.15009745330E-01 -0.10805961107E-01  0.10201267257E+01  0.10198489793E+01 0.  0.
     999903    2    3    3    0    0 -0.73002211412E-02 -0.10809380523E+00 -0.74395300505E-01  0.13290223659E+00  0.19768151020E-01 0.  0.
         14    1    1    2    0    0  0.14984479174E-01  0.15009745330E-01  0.10805961107E-01  0.23803274280E-01  0.00000000000E+00 0. -1.
     999901    1    3    3    0    0 -0.76842580326E-02  0.93084059902E-01  0.63589339398E-01  0.88722448913E+00  0.88000000000E+00 0. -1.
        -11    1    4    4    0    0  0.63450783583E-02 -0.25536240177E-01 -0.20621410176E-01  0.33434462168E-01  0.51100000000E-03 0.  1.
         11    1    4    4    0    0 -0.13645299500E-01 -0.82557565055E-01 -0.53773890329E-01  0.99467774421E-01  0.51100000000E-03 0. -1.
</event>
<event>
 8    1  0.1161093E+005  0.1043930E+01  0.7957747E-01            NaN
         13   -1    0    0    0    0  0.00000000000E+00  0.00000000000E+00  0.74505805969E-08  0.10566000000E+00  0.10566000000E+00 0.  1.
     999900   -1    0    0    0    0 -0.00000000000E+00 -0.00000000000E+00 -0.74505805969E-08  0.93827000000E+00  0.93827000000E+00 0. -1.
     999902    2    1    2    0    0 -0.88200672679E-02  0.13464932466E-01 -0.17506618201E-01  0.10201480809E+01  0.10198708386E+01 0.  0.
     999903    2    3    3    0    0 -0.16668507461E-01  0.12960757467E+00 -0.70290884374E-02  0.13242036933E+00  0.20243111805E-01 0.  0.
         14    1    1    2    0    0  0.88200672679E-02 -0.13464932466E-01  0.17506618201E-01  0.23781919051E-01  0.00000000000E+00 0.  1.
     999901    1    3    3    0    0  0.78484401933E-02 -0.11614264220E+00 -0.10477529763E-01  0.88772771162E+00  0.88000000000E+00 0. -1.
        -11    1    4    4    0    0  0.57965712593E-03  0.45723061568E-01 -0.96611244943E-02  0.46738985965E-01  0.51100000000E-03 0. -1.
         11    1    4    4    0    0 -0.17248164587E-01  0.83884513102E-01  0.26320360570E-02  0.85681383362E-01  0.51100000000E-03 0.  1.
</event>
<event>
 8    1  0.1161093E+005  0.1043930E+01  0.7957747E-01            NaN
         13   -1    0    0    0    0  0.00000000000E+00  0.00000000000E+00  0.74505805969E-08  0.10566000000E+00  0.10566000000E+00 0. -1.
     999900   -1    0    0    0    0 -0.00000000000E+00 -0.00000000000E+00 -0.74505805969E-08  0.93827000000E+00  0.93827000000E+00 0.  1.
     999902    2    1    2    0    0 -0.30585073858E-02  0.13496777935E-01  0.26917246572E-01  0.10136635888E+01  0.10132116342E+01 0.  0.
     999903    2    3    3    0    0 -0.39229022473E-01 -0.50913841064E-01 -0.10100380125E+00  0.12135151983E+00  0.19831492214E-01 0.  0.
         14    1    1    2    0    0  0.30585073858E-02 -0.13496777935E-01 -0.26917246572E-01  0.30266411170E-01  0.00000000000E+00 0.  1.
     999901    1    3    3    0    0  0.36170515088E-01  0.64410618999E-01  0.12792104782E+00  0.89231206900E+00  0.88000000000E+00 0. -1.
        -11    1    4    4    0    0 -0.30093665672E-02 -0.19884158055E-03 -0.13992832197E-01  0.14323278221E-01  0.51100000000E-03 0. -1.
         11    1    4    4    0    0 -0.36219655906E-01 -0.50714999483E-01 -0.87010969051E-01  0.10702824161E+00  0.51100000000E-03 0.  1.
</event>
<event>
 8    1  0.1161093E+005  0.1043930E+01  0.7957747E-01            NaN
         13   -1    0    0    0    0  0.00000000000E+00  0.00000000000E+00  0.74505805969E-08  0.10566000000E+00  0.10566000000E+00 0. -1.
     999900   -1    0    0    0    0 -0.00000000000E+00 -0.00000000000E+00 -0.74505805969E-08  0.93827000000E+00  0.93827000000E+00 0. -1.
     999902    2    1    2    0    0  0.61616350579E-02 -0.14979834648E-02 -0.23517318244E-01  0.10195727843E+01  0.10192818003E+01 0.  0.
     999903    2    3    3    0    0  0.11911615587E+00 -0.44160769227E-02  0.46313701012E-01  0.12960446444E+00  0.21076004785E-01 0.  0.
         14    1    1    2    0    0 -0.61616350579E-02  0.14979834648E-02  0.23517318244E-01  0.24357215736E-01  0.00000000000E+00 0. -1.
     999901    1    3    3    0    0 -0.11295452081E+00  0.29180934580E-02 -0.69831019255E-01  0.88996831982E+00  0.88000000000E+00 0. -1.
        -11    1    4    4    0    0  0.82430913882E-01 -0.10384907109E-01  0.38729227778E-01  0.91667420955E-01  0.51100000000E-03 0.  1.
         11    1    4    4    0    0  0.36685241983E-01  0.59688301864E-02  0.75844732332E-02  0.37937043485E-01  0.51100000000E-03 0. -1.
</event>
<event>
 8    1  0.1161093E+005  0.1043930E+01  0.7957747E-01            NaN
         13   -1    0    0    0    0  0.00000000000E+00  0.00000000000E+00  0.74505805969E-08  0.10566000000E+00  0.10566000000E+00 0. -1.
     999900   -1    0    0    0    0 -0.00000000000E+00 -0.00000000000E+00 -0.74505805969E-08  0.93827000000E+00  0.93827000000E+00 0. -1.
     999902    2    1    2    0    0  0.16389908285E-01  0.16854013648E-01  0.45352253982E-02  0.10199872529E+01  0.10197062032E+01 0.  0.
     999903    2    3    3    0    0 -0.84891470081E-02 -0.54876957736E-01  0.11546531215E+00  0.12977953343E+00  0.20662596169E-01 0.  0.
         14    1    1    2    0    0 -0.16389908285E-01 -0.16854013648E-01 -0.45352253982E-02  0.23942747107E-01  0.00000000000E+00 0. -1.
     999901    1    3    3    0    0  0.24879055293E-01  0.71730971384E-01 -0.11093008675E+00  0.89020771946E+00  0.88000000000E+00 0. -1.
        -11    1    4    4    0    0  0.49391143500E-02 -0.14387849808E-01  0.43898994926E-01  0.46462758734E-01  0.51100000000E-03 0. -1.
         11    1    4    4    0    0 -0.13428261358E-01 -0.40489107929E-01  0.71566317221E-01  0.83316774695E-01  0.51100000000E-03 0.  1.
</event>
<event>
 8    1  0.1161093E+005  0.1043930E+01  0.7957747E-01            NaN
         13   -1    0    0    0    0  0.00000000000E+00  0.00000000000E+00  0.74505805969E-08  0.10566000000E+00  0.10566000000E+00 0.  1.
     999900   -1    0    0    0    0 -0.00000000000E+00 -0.00000000000E+00 -0.74505805969E-08  0.93827000000E+00  0.93827000000E+00 0. -1.
     999902    2    1    2    0    0 -0.59242157278E-02 -0.18710843936E-02  0.22812684240E-01  0.10202864840E+01  0.10200124967E+01 0.  0.
     999903    2    3    3    0    0 -0.11325559847E+00 -0.63056888986E-01  0.70034359360E-02  0.13151561318E+00  0.21078580628E-01 0.  0.
         14    1    1    2    0    0  0.59242157278E-02  0.18710843936E-02 -0.22812684240E-01  0.23643516046E-01  0.00000000000E+00 0. -1.
     999901    1    3    3    0    0  0.10733138274E+00  0.61185804593E-01  0.15809248304E-01  0.88877087077E+00  0.88000000000E+00 0.  1.
        -11    1    4    4    0    0 -0.92225240891E-01 -0.48991529555E-01  0.13732996629E-01  0.10533053376E+00  0.51100000000E-03 0. -1.
         11    1    4    4    0    0 -0.21030357580E-01 -0.14065359431E-01 -0.67295606926E-02  0.26185079415E-01  0.51100000000E-03 0.  1.
</event>
<event>
 8    1  0.1161093E+005  0.1043930E+01  0.7957747E-01            NaN
         13   -1    0    0    0    0  0.00000000000E+00  0.00000000000E+00  0.74505805969E-08  0.10566000000E+00  0.10566000000E+00 0.  1.
     999900   -1    0    0    0    0 -0.00000000000E+00 -0.00000000000E+00 -0.74505805969E-08  0.93827000000E+00  0.93827000000E+00 0. -1.
     999902    2    1    2    0    0  0.77185861777E-02  0.65456826802E-02  0.21015973004E-01  0.10206041848E+01  0.10203375953E+01 0.  0.
     999903    2    3    3    0    0 -0.37694064804E-02 -0.12729684577E+00  0.19288426941E-01  0.13040826207E+00  0.20385682106E-01 0.  0.
         14    1    1    2    0    0 -0.77185861777E-02 -0.65456826802E-02 -0.21015973004E-01  0.23325815219E-01  0.00000000000E+00 0. -1.
     999901    1    3    3    0    0  0.11487992658E-01  0.13384252845E+00  0.17275460627E-02  0.89019592271E+00  0.88000000000E+00 0.  1.
        -11    1    4    4    0    0 -0.83344926295E-02 -0.66688413576E-01  0.20980879409E-02  0.67241886995E-01  0.51100000000E-03 0.  1.
         11    1    4    4    0    0  0.45650861490E-02 -0.60608432190E-01  0.17190339000E-01  0.63166375074E-01  0.51100000000E-03 0. -1.
</event>
<event>
 8    1  0.1161093E+005  0.1043930E+01  0.7957747E-01            NaN
         13   -1    0    0    0    0  0.00000000000E+00  0.00000000000E+00  0.74505805969E-08  0.10566000000E+00  0.10566000000E+00 0.  1.
     999900   -1    0    0    0    0 -0.00000000000E+00 -0.00000000000E+00 -0.74505805969E-08  0.93827000000E+00  0.93827000000E+00 0.  1.
     999902    2    1    2    0    0 -0.17223782467E-01 -0.27544700399E-02 -0.18690035480E-01  0.10183651176E+01  0.10180441785E+01 0.  0.
     999903    2    3    3    0    0  0.93077783086E-01  0.78702575839E-01  0.27268477035E-01  0.12656140006E+00  0.20411981702E-01 0.  0.
         14    1    1    2    0    0  0.17223782467E-01  0.27544700399E-02  0.18690035480E-01  0.25564882435E-01  0.00000000000E+00 0.  1.
     999901    1    3    3    0    0 -0.11030156555E+00 -0.81457045879E-01 -0.45958512515E-01  0.89180371751E+00  0.88000000000E+00 0.  1.
        -11    1    4    4    0    0  0.56017080351E-01  0.45234096526E-01  0.59018276486E-02  0.72243542757E-01  0.51100000000E-03 0.  1.
         11    1    4    4    0    0  0.37060702735E-01  0.33468479313E-01  0.21366649386E-01  0.54317857301E-01  0.51100000000E-03 0. -1.
</event>
<event>
 8    1  0.1161093E+005  0.1043930E+01  0.7957747E-01            NaN
         13   -1    0    0    0    0  0.00000000000E+00  0.00000000000E+00  0.74505805969E-08  0.10566000000E+00  0.10566000000E+00 0. -1.
     999900   -1    0    0    0    0 -0.00000000000E+00 -0.00000000000E+00 -0.74505805969E-08  0.93827000000E+00  0.93827000000E+00 0. -1.
     999902    2    1    2    0    0  0.17687921353E-01  0.13899409984E-01  0.10158050556E-01  0.10192471689E+01  0.10189482564E+01 0.  0.
     999903    2    3    3    0    0 -0.10387320559E+00 -0.58859692628E-01 -0.37449214143E-01  0.12664566418E+00  0.19559508147E-01 0.  0.
         14    1    1    2    0    0 -0.17687921353E-01 -0.13899409984E-01 -0.10158050556E-01  0.24682831093E-01  0.00000000000E+00 0.  1.
     999901    1    3    3    0    0  0.12156112694E+00  0.72759102612E-01  0.47607264699E-01  0.89260150473E+00  0.88000000000E+00 0. -1.
        -11    1    4    4    0    0 -0.33498287481E-02 -0.12311644615E-02  0.21458292008E-02  0.41955717765E-02  0.51100000000E-03 0.  1.
         11    1    4    4    0    0 -0.10052337684E+00 -0.57628528166E-01 -0.39595043344E-01  0.12245009240E+00  0.51100000000E-03 0. -1.
</event>
<event>
 8    1  0.1161093E+005  0.1043930E+01  0.7957747E-01            NaN
         13   -1    0    0    0    0  0.00000000000E+00  0.00000000000E+00  0.74505805969E-08  0.10566000000E+00  0.10566000000E+00 0. -1.
     999900   -1    0    0    0    0 -0.00000000000E+00 -0.00000000000E+00 -0.74505805969E-08  0.93827000000E+00  0.93827000000E+00 0.  1.
     999902    2    1    2    0    0  0.55177548925E-03  0.15356378410E-01  0.17770435561E-01  0.10204372097E+01  0.10201667451E+01 0.  0.
     999903    2    3    3    0    0  0.80252045163E-01 -0.65206317142E-01  0.78035597924E-01  0.13112603209E+00  0.20303379040E-01 0.  0.
         14    1    1    2    0    0 -0.55177548925E-03 -0.15356378410E-01 -0.17770435561E-01  0.23492790258E-01  0.00000000000E+00 0.  1.
     999901    1    3    3    0    0 -0.79700269674E-01  0.80562695553E-01 -0.60265162362E-01  0.88931117765E+00  0.88000000000E+00 0.  1.
        -11    1    4    4    0    0  0.45925851925E-01 -0.34694941619E-01  0.30966540828E-01  0.65361384784E-01  0.51100000000E-03 0.  1.
         11    1    4    4    0    0  0.34326193238E-01 -0.30511375523E-01  0.47069057096E-01  0.65764647307E-01  0.51100000000E-03 0. -1.
</event>
<event>
 8    1  0.1161093E+005  0.1043930E+01  0.7957747E-01            NaN
         13   -1    0    0    0    0  0.00000000000E+00  0.00000000000E+00  0.74505805969E-08  0.10566000000E+00  0.10566000000E+00 0.  1.
     999900   -1    0    0    0    0 -0.00000000000E+00 -0.00000000000E+00 -0.74505805969E-08  0.93827000000E+00  0.93827000000E+00 0. -1.
     999902    2    1    2    0    0 -0.49386918971E-02 -0.18659780022E-01 -0.13145669692E-01  0.10205764842E+01  0.10203092538E+01 0.  0.
     999903    2    3    3    0    0  0.10810058442E+00 -0.26585212381E-01 -0.67404730431E-01  0.13165312635E+00  0.19915775775E-01 0.  0.
         14    1    1    2    0    0  0.49386918971E-02  0.18659780022E-01  0.13145669692E-01  0.23353515791E-01  0.00000000000E+00 0.  1.
     999901    1    3    3    0    0 -0.11303927632E+00  0.79254323588E-02  0.54259060739E-01  0.88892335786E+00  0.88000000000E+00 0.  1.
        -11    1    4    4    0    0  0.38857041894E-01 -0.61054612365E-02 -0.13675042744E-01  0.41646299676E-01  0.51100000000E-03 0. -1.
         11    1    4    4    0    0  0.69243542528E-01 -0.20479751145E-01 -0.53729687687E-01  0.90006826678E-01  0.51100000000E-03 0.  1.
</event>
<event>
 8    1  0.1161093E+005  0.1043930E+01  0.7957747E-01            NaN
         13   -1    0    0    0    0  0.00000000000E+00  0.00000000000E+00  0.74505805969E-08  0.10566000000E+00  0.10566000000E+00 0. -1.
     999900   -1    0    0    0    0 -0.00000000000E+00 -0.00000000000E+00 -0.74505805969E-08  0.93827000000E+00  0.93827000000E+00 0.  1.
     999902    2    1    2    0    0  0.92145210530E-02 -0.22033248222E-01 -0.48431489990E-02  0.10195614236E+01  0.10192701648E+01 0.  0.
     999903    2    3    3    0    0  0.31944793161E-01  0.90067370015E-03 -0.12521432272E+00  0.13078032030E+00  0.20089413659E-01 0.  0.
         14    1    1    2    0    0 -0.92145210530E-02  0.22033248222E-01  0.48431489990E-02  0.24368576440E-01  0.00000000000E+00 0. -1.
     999901    1    3    3    0    0 -0.22730272108E-01 -0.22933921923E-01  0.12037117372E+00  0.88878110326E+00  0.88000000000E+00 0. -1.
        -11    1    4    4    0    0  0.14310383966E-01  0.12876879698E-02 -0.23518864889E-01  0.27565256325E-01  0.51100000000E-03 0. -1.
         11    1    4    4    0    0  0.17634409195E-01 -0.38701426964E-03 -0.10169545783E+00  0.10321506398E+00  0.51100000000E-03 0.  1.
</event>
<event>
 8    1  0.1161093E+005  0.1043930E+01  0.7957747E-01            NaN
         13   -1    0    0    0    0  0.00000000000E+00  0.00000000000E+00  0.74505805969E-08  0.10566000000E+00  0.10566000000E+00 0.  1.
     999900   -1    0    0    0    0 -0.00000000000E+00 -0.00000000000E+00 -0.74505805969E-08  0.93827000000E+00  0.93827000000E+00 0. -1.
     999902    2    1    2    0    0 -0.12177109197E-01 -0.73445813430E-02  0.18177732147E-01  0.10208506844E+01  0.10205897633E+01 0.  0.
     999903    2    3    3    0    0 -0.98537649861E-01  0.32496311172E-01 -0.76758016363E-01  0.13064945092E+00  0.20293035030E-01 0.  0.
         14    1    1    2    0    0  0.12177109197E-01  0.73445813430E-02 -0.18177732147E-01  0.23079315621E-01  0.00000000000E+00 0. -1.
     999901    1    3    3    0    0  0.86360540664E-01 -0.39840892515E-01  0.94935748510E-01  0.89020123346E+00  0.88000000000E+00 0. -1.
        -11    1    4    4    0    0 -0.17319433217E-01  0.21497030416E-02 -0.22061739363E-01  0.28134773055E-01  0.51100000000E-03 0.  1.
         11    1    4    4    0    0 -0.81218216644E-01  0.30346608130E-01 -0.54696276999E-01  0.10251467787E+00  0.51100000000E-03 0. -1.
</event>
<event>
 8    1  0.1161093E+005  0.1043930E+01  0.7957747E-01            NaN
         13   -1    0    0    0    0  0.00000000000E+00  0.00000000000E+00  0.74505805969E-08  0.10566000000E+00  0.10566000000E+00 0. -1.
     999900   -1    0    0    0    0 -0.00000000000E+00 -0.00000000000E+00 -0.74505805969E-08  0.93827000000E+00  0.93827000000E+00 0. -1.
     999902    2    1    2    0    0  0.11021575786E-01  0.11891411640E-01  0.98245461341E-02  0.10249720858E+01  0.10247967477E+01 0.  0.
     999903    2    3    3    0    0  0.10484929570E-01  0.12701160421E+00  0.45211387972E-01  0.13676874462E+00  0.20487521870E-01 0.  0.
         14    1    1    2    0    0 -0.11021575786E-01 -0.11891411640E-01 -0.98245461341E-02  0.18957914188E-01  0.00000000000E+00 0. -1.
     999901    1    3    3    0    0  0.53664621650E-03 -0.11512019256E+00 -0.35386841838E-01  0.88820334119E+00  0.88000000000E+00 0.  1.
        -11    1    4    4    0    0  0.25373365120E-02  0.11004829136E+00  0.41643002789E-01  0.11769224830E+00  0.51100000000E-03 0. -1.
         11    1    4    4    0    0  0.79475930576E-02  0.16963312847E-01  0.35683851834E-02  0.19076496323E-01  0.51100000000E-03 0.  1.
</event>
<event>
 8    1  0.1161093E+005  0.1043930E+01  0.7957747E-01            NaN
         13   -1    0    0    0    0  0.00000000000E+00  0.00000000000E+00  0.74505805969E-08  0.10566000000E+00  0.10566000000E+00 0.  1.
     999900   -1    0    0    0    0 -0.00000000000E+00 -0.00000000000E+00 -0.74505805969E-08  0.93827000000E+00  0.93827000000E+00 0.  1.
     999902    2    1    2    0    0  0.34583909314E-02  0.71015394531E-02 -0.22010404073E-01  0.10205451712E+01  0.10202772154E+01 0.  0.
     999903    2    3    3    0    0 -0.70511783671E-02  0.12455034651E+00  0.34401372173E-01  0.13088964133E+00  0.19650340148E-01 0.  0.
         14    1    1    2    0    0 -0.34583909314E-02 -0.71015394531E-02  0.22010404073E-01  0.23384828797E-01  0.00000000000E+00 0.  1.
     999901    1    3    3    0    0  0.10509569298E-01 -0.11744880706E+00 -0.56411776246E-01  0.88965552987E+00  0.88000000000E+00 0.  1.
        -11    1    4    4    0    0 -0.81698836507E-03  0.90401670726E-01  0.32673459060E-01  0.96129837138E-01  0.51100000000E-03 0.  1.
         11    1    4    4    0    0 -0.62341900020E-02  0.34148675788E-01  0.17279131125E-02  0.34759804196E-01  0.51100000000E-03 0. -1.
</event>
<event>
 8    1  0.1161093E+005  0.1043930E+01  0.7957747E-01            NaN
         13   -1    0    0    0    0  0.00000000000E+00  0.00000000000E+00  0.74505805969E-08  0.10566000000E+00  0.10566000000E+00 0.  1.
     999900   -1    0    0    0    0 -0.00000000000E+00 -0.00000000000E+00 -0.74505805969E-08  0.93827000000E+00  0.93827000000E+00 0. -1.
     999902    2    1    2    0    0  0.18335995034E-01 -0.12647002025E-01 -0.99667991883E-02  0.10195272858E+01  0.10192352005E+01 0.  0.
     999903    2    3    3    0    0  0.99063610712E-01 -0.31785993376E-01  0.77805871358E-01  0.13127772030E+00  0.18871615912E-01 0.  0.
         14    1    1    2    0    0 -0.18335995034E-01  0.12647002025E-01  0.99667991883E-02  0.24402714197E-01  0.00000000000E+00 0.  1.
     999901    1    3    3    0    0 -0.80727615678E-01  0.19138991351E-01 -0.87772670546E-01  0.88824956550E+00  0.88000000000E+00 0. -1.
        -11    1    4    4    0    0  0.29535727215E-01 -0.22435425113E-02  0.15993486455E-01  0.33666680785E-01  0.51100000000E-03 0.  1.
         11    1    4    4    0    0  0.69527883497E-01 -0.29542450865E-01  0.61812384903E-01  0.97611039514E-01  0.51100000000E-03 0. -1.
</event>
<event>
 8    1  0.1161093E+005  0.1043930E+01  0.7957747E-01            NaN
         13   -1    0    0    0    0  0.00000000000E+00  0.00000000000E+00  0.74505805969E-08  0.10566000000E+00  0.10566000000E+00 0.  1.
     999900   -1    0    0    0    0 -0.00000000000E+00 -0.00000000000E+00 -0.74505805969E-08  0.93827000000E+00  0.93827000000E+00 0.  1.
     999902    2    1    2    0    0 -0.12360806160E-01  0.45332438487E-02  0.18533990822E-01  0.10211956945E+01  0.10209426027E+01 0.  0.
     999903    2    3    3    0    0 -0.20021783475E-01  0.38227778786E-01 -0.12004432099E+00  0.12968127472E+00  0.23331504977E-01 0.  0.
         14    1    1    2    0    0  0.12360806160E-01 -0.45332438487E-02 -0.18533990822E-01  0.22734305454E-01  0.00000000000E+00 0.  1.
     999901    1    3    3    0    0  0.76609773153E-02 -0.33694534937E-01  0.13857831182E+00  0.89151441983E+00  0.88000000000E+00 0. -1.
        -11    1    4    4    0    0 -0.24646505051E-01  0.26818278772E-01 -0.95650577898E-01  0.10235215904E+00  0.51100000000E-03 0. -1.
         11    1    4    4    0    0  0.46247215759E-02  0.11409500013E-01 -0.24393743097E-01  0.27329115673E-01  0.51100000000E-03 0.  1.
</event>
<event>
 8    1  0.1161093E+005  0.1043930E+01  0.7957747E-01            NaN
         13   -1    0    0    0    0  0.00000000000E+00  0.00000000000E+00  0.74505805969E-08  0.10566000000E+00  0.10566000000E+00 0.  1.
     999900   -1    0    0    0    0 -0.00000000000E+00 -0.00000000000E+00 -0.74505805969E-08  0.93827000000E+00  0.93827000000E+00 0. -1.
     999902    2    1    2    0    0  0.10968494550E-01 -0.24854699485E-01  0.14417337551E-01  0.10131741293E+01  0.10127072098E+01 0.  0.
     999903    2    3    3    0    0 -0.90768832320E-02 -0.30122619218E-01  0.12083662718E+00  0.12652051412E+00  0.20400686891E-01 0.  0.
         14    1    1    2    0    0 -0.10968494550E-01  0.24854699485E-01 -0.14417337551E-01  0.30755870680E-01  0.00000000000E+00 0. -1.
     999901    1    3    3    0    0  0.20045377782E-01  0.52679197327E-02 -0.10641928963E+00  0.88665361520E+00  0.88000000000E+00 0. -1.
        -11    1    4    4    0    0 -0.11880262307E-01 -0.67063629596E-02  0.51617250046E-01  0.53392111401E-01  0.51100000000E-03 0. -1.
         11    1    4    4    0    0  0.28033790748E-02 -0.23416256258E-01  0.69219377137E-01  0.73128402715E-01  0.51100000000E-03 0.  1.
</event>
<event>
 8    1  0.1161093E+005  0.1043930E+01  0.7957747E-01            NaN
         13   -1    0    0    0    0  0.00000000000E+00  0.00000000000E+00  0.74505805969E-08  0.10566000000E+00  0.10566000000E+00 0.  1.
     999900   -1    0    0    0    0 -0.00000000000E+00 -0.00000000000E+00 -0.74505805969E-08  0.93827000000E+00  0.93827000000E+00 0. -1.
     999902    2    1    2    0    0 -0.99528034817E-02 -0.95927889846E-02 -0.19915541031E-01  0.10196872965E+01  0.10193990749E+01 0.  0.
     999903    2    3    3    0    0 -0.84879882996E-01 -0.96476765725E-01 -0.23692228688E-01  0.13223185762E+00  0.20287474140E-01 0.  0.
         14    1    1    2    0    0  0.99528034817E-02  0.95927889846E-02  0.19915541031E-01  0.24242703484E-01  0.00000000000E+00 0.  1.
     999901    1    3    3    0    0  0.74927079514E-01  0.86883976741E-01  0.37766876572E-02  0.88745543890E+00  0.88000000000E+00 0. -1.
        -11    1    4    4    0    0 -0.50686444481E-01 -0.50485955219E-01 -0.22177820216E-01  0.74900361541E-01  0.51100000000E-03 0.  1.
         11    1    4    4    0    0 -0.34193438515E-01 -0.45990810506E-01 -0.15144084721E-02  0.57331496078E-01  0.51100000000E-03 0. -1.
</event>
<event>
 8    1  0.1161093E+005  0.1043930E+01  0.7957747E-01            NaN
         13   -1    0    0    0    0  0.00000000000E+00  0.00000000000E+00  0.74505805969E-08  0.10566000000E+00  0.10566000000E+00 0. -1.
     999900   -1    0    0    0    0 -0.00000000000E+00 -0.00000000000E+00 -0.74505805969E-08  0.93827000000E+00  0.93827000000E+00 0. -1.
     999902    2    1    2    0    0 -0.22183446852E-01  0.74306009347E-02 -0.48245039650E-02  0.10200428699E+01  0.10197631399E+01 0.  0.
     999903    2    3    3    0    0 -0.99960557381E-01  0.36366542975E-01 -0.77584881033E-01  0.13314905434E+00  0.19865005066E-01 0.  0.
         14    1    1    2    0    0  0.22183446852E-01 -0.74306009347E-02  0.48245039650E-02  0.23887130070E-01  0.00000000000E+00 0. -1.
     999901    1    3    3    0    0  0.77777110530E-01 -0.28935942040E-01  0.72760377068E-01  0.88689381559E+00  0.88000000000E+00 0.  1.
        -11    1    4    4    0    0 -0.37832769066E-01  0.44223157019E-02 -0.23068183604E-01  0.44534003942E-01  0.51100000000E-03 0. -1.
         11    1    4    4    0    0 -0.62127788316E-01  0.31944227273E-01 -0.54516697429E-01  0.88615050396E-01  0.51100000000E-03 0.  1.
</event>
<event>
 7    1  0.1161093E+005  0.1043930E+01  0.7957747E-01            NaN
         13   -1    0    0    0    0  0.00000000000E+00  0.00000000000E+00  0.74505805969E-08  0.10566000000E+00  0.10566000000E+00 0.  1.
     999900   -1    0    0    0    0 -0.00000000000E+00 -0.00000000000E+00 -0.74505805969E-08  0.93827000000E+00  0.93827000000E+00 0. -1.
     999903    2    1    2    0    0  0.35606541448E-01  0.46837547353E-01 -0.69786924045E-01  0.93354210694E-01  0.19575807791E-01 0.  0.
         14    1    1    2    0    0  0.57710689197E-01 -0.10706645550E-01 -0.15783073382E-01  0.60780435272E-01  0.00000000000E+00 0.  1.
     999901    1    1    2    0    0 -0.93317230645E-01 -0.36130901803E-01  0.85569997427E-01  0.88979535403E+00  0.88000000000E+00 0.  1.
        -11    1    3    3    0    0  0.22985034503E-01  0.42869716303E-01 -0.52390496329E-01  0.71492304576E-01  0.51100000000E-03 0. -1.
         11    1    3    3    0    0  0.12621506945E-01  0.39678310493E-02 -0.17396427717E-01  0.21861906118E-01  0.51100000000E-03 0.  1.
</event>
<event>
 8    1  0.1161093E+005  0.1043930E+01  0.7957747E-01            NaN
         13   -1    0    0    0    0  0.00000000000E+00  0.00000000000E+00  0.74505805969E-08  0.10566000000E+00  0.10566000000E+00 0.  1.
     999900   -1    0    0    0    0 -0.00000000000E+00 -0.00000000000E+00 -0.74505805969E-08  0.93827000000E+00  0.93827000000E+00 0.  1.
     999902    2    1    2    0    0 -0.26762951903E-02 -0.58392449102E-02  0.23181532702E-01  0.10198750048E+01  0.10195912821E+01 0.  0.
     999903    2    3    3    0    0  0.32048992486E-01 -0.11569649590E+00 -0.45341404737E-01  0.12972341422E+00  0.18960594144E-01 0.  0.
         14    1    1    2    0    0  0.26762951903E-02  0.58392449102E-02 -0.23181532702E-01  0.24054995229E-01  0.00000000000E+00 0. -1.
     999901    1    3    3    0    0 -0.34725287676E-01  0.10985725099E+00  0.68522937439E-01  0.89015159055E+00  0.88000000000E+00 0.  1.
        -11    1    4    4    0    0  0.19156011470E-01 -0.76411471429E-01 -0.20185251870E-01  0.81322636796E-01  0.51100000000E-03 0. -1.
         11    1    4    4    0    0  0.12892981016E-01 -0.39285024475E-01 -0.25156152867E-01  0.48400777427E-01  0.51100000000E-03 0.  1.
</event>
<event>
 8    1  0.1161093E+005  0.1043930E+01  0.7957747E-01            NaN
         13   -1    0    0    0    0  0.00000000000E+00  0.00000000000E+00  0.74505805969E-08  0.10566000000E+00  0.10566000000E+00 0.  1.
     999900   -1    0    0    0    0 -0.00000000000E+00 -0.00000000000E+00 -0.74505805969E-08  0.93827000000E+00  0.93827000000E+00 0. -1.
     999902    2    1    2    0    0  0.19995310461E-01  0.52646989172E-02  0.96463679146E-02  0.10211137359E+01  0.10208587952E+01 0.  0.
     999903    2    3    3    0    0 -0.11159866238E+00 -0.12838364389E-01  0.61552038113E-01  0.12963244431E+00  0.19920647020E-01 0.  0.
         14    1    1    2    0    0 -0.19995310461E-01 -0.52646989172E-02 -0.96463679146E-02  0.22816264135E-01  0.00000000000E+00 0. -1.
     999901    1    3    3    0    0  0.13159397284E+00  0.18103063306E-01 -0.51905670198E-01  0.89148129155E+00  0.88000000000E+00 0.  1.
        -11    1    4    4    0    0 -0.76349053478E-01 -0.42068330420E-02  0.32263966354E-01  0.82994578480E-01  0.51100000000E-03 0.  1.
         11    1    4    4    0    0 -0.35249608901E-01 -0.86315313466E-02  0.29288071759E-01  0.46637865833E-01  0.51100000000E-03 0. -1.
</event>
<event>
 8    1  0.1161093E+005  0.1043930E+01  0.7957747E-01            NaN
         13   -1    0    0    0    0  0.00000000000E+00  0.00000000000E+00  0.74505805969E-08  0.10566000000E+00  0.10566000000E+00 0. -1.
     999900   -1    0    0    0    0 -0.00000000000E+00 -0.00000000000E+00 -0.74505805969E-08  0.93827000000E+00  0.93827000000E+00 0. -1.
     999902    2    1    2    0    0  0.21079130256E-01 -0.25683510949E-02 -0.11053631206E-01  0.10199903065E+01  0.10197093294E+01 0.  0.
     999903    2    3    3    0    0  0.12900489861E+00 -0.21781276446E-01  0.11099189116E-01  0.13291203750E+00  0.20633221820E-01 0.  0.
         14    1    1    2    0    0 -0.21079130256E-01  0.25683510949E-02  0.11053631206E-01  0.23939693451E-01  0.00000000000E+00 0.  1.
     999901    1    3    3    0    0 -0.10792576836E+00  0.19212925351E-01 -0.22152820322E-01  0.88707826905E+00  0.88000000000E+00 0.  1.
        -11    1    4    4    0    0  0.11399089989E+00 -0.13947519031E-01  0.14104479438E-01  0.11570503881E+00  0.51100000000E-03 0.  1.
         11    1    4    4    0    0  0.15013998728E-01 -0.78337574152E-02 -0.30052903217E-02  0.17206998691E-01  0.51100000000E-03 0. -1.
</event>
<event>
 8    1  0.1161093E+005  0.1043930E+01  0.7957747E-01            NaN
         13   -1    0    0    0    0  0.00000000000E+00  0.00000000000E+00  0.74505805969E-08  0.10566000000E+00  0.10566000000E+00 0. -1.
     999900   -1    0    0    0    0 -0.00000000000E+00 -0.00000000000E+00 -0.74505805969E-08  0.93827000000E+00  0.93827000000E+00 0. -1.
     999902    2    1    2    0    0 -0.34234884986E-02  0.22384663570E-01  0.74359837951E-02  0.10200954182E+01  0.10198169320E+01 0.  0.
     999903    2    3    3    0    0 -0.24777568578E-01  0.12882221909E+00  0.13767335617E-01  0.13340210253E+00  0.19937136051E-01 0.  0.
         14    1    1    2    0    0  0.34234884986E-02 -0.22384663570E-01 -0.74359837951E-02  0.23834581843E-01  0.00000000000E+00 0.  1.
     999901    1    3    3    0    0  0.21354080079E-01 -0.10643755552E+00 -0.63313518218E-02  0.88669331563E+00  0.88000000000E+00 0. -1.
        -11    1    4    4    0    0 -0.76316071473E-02  0.73845551011E-01  0.15257494527E-01  0.75792209969E-01  0.51100000000E-03 0. -1.
         11    1    4    4    0    0 -0.17145961431E-01  0.54976668078E-01 -0.14901589102E-02  0.57609892561E-01  0.51100000000E-03 0.  1.
</event>
<event>
 8    1  0.1161093E+005  0.1043930E+01  0.7957747E-01            NaN
         13   -1    0    0    0    0  0.00000000000E+00  0.00000000000E+00  0.74505805969E-08  0.10566000000E+00  0.10566000000E+00 0.  1.
     999900   -1    0    0    0    0 -0.00000000000E+00 -0.00000000000E+00 -0.74505805969E-08  0.93827000000E+00  0.93827000000E+00 0.  1.
     999902    2    1    2    0    0 -0.57642180007E-02  0.24533547428E-01  0.13472845548E-02  0.10186924024E+01  0.10183797299E+01 0.  0.
     999903    2    3    3    0    0  0.65892363336E-01 -0.46979976802E-01  0.96827319597E-01  0.12775733914E+00  0.19937053884E-01 0.  0.
         14    1    1    2    0    0  0.57642180007E-02 -0.24533547428E-01 -0.13472845548E-02  0.25237597632E-01  0.00000000000E+00 0. -1.
     999901    1    3    3    0    0 -0.71656581337E-01  0.71513524230E-01 -0.95480035042E-01  0.89093506323E+00  0.88000000000E+00 0.  1.
        -11    1    4    4    0    0  0.31898639170E-01 -0.34818357384E-01  0.56022979648E-01  0.73271253309E-01  0.51100000000E-03 0.  1.
         11    1    4    4    0    0  0.33993724166E-01 -0.12161619418E-01  0.40804339949E-01  0.54486085831E-01  0.51100000000E-03 0. -1.
</event>
<event>
 8    1  0.1161093E+005  0.1043930E+01  0.7957747E-01            NaN
         13   -1    0    0    0    0  0.00000000000E+00  0.00000000000E+00  0.74505805969E-08  0.10566000000E+00  0.10566000000E+00 0.  1.
     999900   -1    0    0    0    0 -0.00000000000E+00 -0.00000000000E+00 -0.74505805969E-08  0.93827000000E+00  0.93827000000E+00 0. -1.
     999902    2    1    2    0    0  0.40578965588E-02 -0.78487858054E-02 -0.21555223226E-01  0.10206341289E+01  0.10203682313E+01 0.  0.
     999903    2    3    3    0    0 -0.51139411296E-01  0.11458316401E+00  0.23751203535E-01  0.12929300594E+00  0.20199526055E-01 0.  0.
         14    1    1    2    0    0 -0.40578965588E-02  0.78487858054E-02  0.21555223226E-01  0.23295871124E-01  0.00000000000E+00 0.  1.
     999901    1    3    3    0    0  0.55197307855E-01 -0.12243194982E+00 -0.45306426760E-01  0.89134112294E+00  0.88000000000E+00 0.  1.
        -11    1    4    4    0    0 -0.41427693623E-01  0.98512250143E-01  0.27004591234E-01  0.11022897213E+00  0.51100000000E-03 0.  1.
         11    1    4    4    0    0 -0.97117176731E-02  0.16070913870E-01 -0.32533876990E-02  0.19064033815E-01  0.51100000000E-03 0. -1.
</event>
<event>
 8    1  0.1161093E+005  0.1043930E+01  0.7957747E-01            NaN
         13   -1    0    0    0    0  0.00000000000E+00  0.00000000000E+00  0.74505805969E-08  0.10566000000E+00  0.10566000000E+00 0.  1.
     999900   -1    0    0    0    0 -0.00000000000E+00 -0.00000000000E+00 -0.74505805969E-08  0.93827000000E+00  0.93827000000E+00 0. -1.
     999902    2    1    2    0    0  0.69321357433E-02 -0.19987117310E-01  0.16583619822E-01  0.10170496017E+01  0.10166943182E+01 0.  0.
     999903    2    3    3    0    0 -0.28220567180E-01  0.11998948014E+00  0.99528706486E-02  0.12526872776E+00  0.19982961876E-01 0.  0.
         14    1    1    2    0    0 -0.69321357433E-02  0.19987117310E-01 -0.16583619822E-01  0.26880398262E-01  0.00000000000E+00 0. -1.
     999901    1    3    3    0    0  0.35152702923E-01 -0.13997659745E+00  0.66307491729E-02  0.89178087398E+00  0.88000000000E+00 0.  1.
        -11    1    4    4    0    0 -0.20889319405E-01  0.63965046113E-01  0.13579608535E-01  0.68648071192E-01  0.51100000000E-03 0. -1.
         11    1    4    4    0    0 -0.73312477753E-02  0.56024434024E-01 -0.36267378864E-02  0.56620656570E-01  0.51100000000E-03 0.  1.
</event>
<event>
 8    1  0.1161093E+005  0.1043930E+01  0.7957747E-01            NaN
         13   -1    0    0    0    0  0.00000000000E+00  0.00000000000E+00  0.74505805969E-08  0.10566000000E+00  0.10566000000E+00 0. -1.
     999900   -1    0    0    0    0 -0.00000000000E+00 -0.00000000000E+00 -0.74505805969E-08  0.93827000000E+00  0.93827000000E+00 0. -1.
     999902    2    1    2    0    0 -0.23165025632E-01  0.20607370228E-02  0.63282493540E-02  0.10198278883E+01  0.10195430398E+01 0.  0.
     999903    2    3    3    0    0  0.46460408375E-01 -0.79708207313E-01 -0.87155560808E-01  0.12838350747E+00  0.19345938847E-01 0.  0.
         14    1    1    2    0    0  0.23165025632E-01 -0.20607370228E-02 -0.63282493540E-02  0.24102111723E-01  0.00000000000E+00 0.  1.
     999901    1    3    3    0    0 -0.69625434006E-01  0.81768944336E-01  0.93483810162E-01  0.89144438081E+00  0.88000000000E+00 0. -1.
        -11    1    4    4    0    0  0.34919741795E-01 -0.50896159574E-01 -0.46754171799E-01  0.77433979156E-01  0.51100000000E-03 0.  1.
         11    1    4    4    0    0  0.11540666580E-01 -0.28812047740E-01 -0.40401389009E-01  0.50949528309E-01  0.51100000000E-03 0. -1.
</event>
<event>
 8    1  0.1161093E+005  0.1043930E+01  0.7957747E-01            NaN
         13   -1    0    0    0    0  0.00000000000E+00  0.00000000000E+00  0.74505805969E-08  0.10566000000E+00  0.10566000000E+00 0. -1.
     999900   -1    0    0    0    0 -0.00000000000E+00 -0.00000000000E+00 -0.74505805969E-08  0.93827000000E+00  0.93827000000E+00 0. -1.
     999902    2    1    2    0    0  0.17797223526E-01  0.13340010960E-01 -0.88975847497E-02  0.10199745398E+01  0.10196931881E+01 0.  0.
     999903    2    3    3    0    0  0.51475937839E-01  0.12047401106E+00  0.38780173186E-03  0.13278900784E+00  0.21656654728E-01 0.  0.
         14    1    1    2    0    0 -0.17797223526E-01 -0.13340010960E-01  0.88975847497E-02  0.23955460171E-01  0.00000000000E+00 0.  1.
     999901    1    3    3    0    0 -0.33678714313E-01 -0.10713400010E+00 -0.92853864816E-02  0.88718553199E+00  0.88000000000E+00 0.  1.
        -11    1    4    4    0    0  0.16174939656E-01  0.22393074405E-01  0.64495592869E-02  0.28371400920E-01  0.51100000000E-03 0.  1.
         11    1    4    4    0    0  0.35300998183E-01  0.98080936657E-01 -0.60617575550E-02  0.10441760692E+00  0.51100000000E-03 0. -1.
</event>
<event>
 8    1  0.1161093E+005  0.1043930E+01  0.7957747E-01            NaN
         13   -1    0    0    0    0  0.00000000000E+00  0.00000000000E+00  0.74505805969E-08  0.10566000000E+00  0.10566000000E+00 0. -1.
     999900   -1    0    0    0    0 -0.00000000000E+00 -0.00000000000E+00 -0.74505805969E-08  0.93827000000E+00  0.93827000000E+00 0.  1.
     999902    2    1    2    0    0 -0.51830313490E-02  0.10068118074E-01  0.20624070699E-01  0.10204016531E+01  0.10201303596E+01 0.  0.
     999903    2    3    3    0    0 -0.51480520897E-01  0.75635949003E-02 -0.11600924108E+00  0.12865146832E+00  0.19636809447E-01 0.  0.
         14    1    1    2    0    0  0.51830313490E-02 -0.10068118074E-01 -0.20624070699E-01  0.23528346897E-01  0.00000000000E+00 0.  1.
     999901    1    3    3    0    0  0.46297489548E-01  0.25045231733E-02  0.13663331178E+00  0.89175018478E+00  0.88000000000E+00 0. -1.
        -11    1    4    4    0    0 -0.25159925841E-01  0.75124800770E-02 -0.37009686689E-01  0.45381023073E-01  0.51100000000E-03 0.  1.
         11    1    4    4    0    0 -0.26320595056E-01  0.51114823242E-04 -0.78999554389E-01  0.83270445246E-01  0.51100000000E-03 0. -1.
</event>
<event>
 8    1  0.1161093E+005  0.1043930E+01  0.7957747E-01            NaN
         13   -1    0    0    0    0  0.00000000000E+00  0.00000000000E+00  0.74505805969E-08  0.10566000000E+00  0.10566000000E+00 0.  1.
     999900   -1    0    0    0    0 -0.00000000000E+00 -0.00000000000E+00 -0.74505805969E-08  0.93827000000E+00  0.93827000000E+00 0.  1.
     999902    2    1    2    0    0  0.16568922291E-01 -0.75873184107E-03 -0.17987909381E-01  0.10194622714E+01  0.10191686087E+01 0.  0.
     999903    2    3    3    0    0  0.19277994092E-02 -0.52860477825E-02  0.12599389544E+00  0.12762954088E+00  0.19574966297E-01 0.  0.
         14    1    1    2    0    0 -0.16568922291E-01  0.75873184107E-03  0.17987909381E-01  0.24467728619E-01  0.00000000000E+00 0.  1.
     999901    1    3    3    0    0  0.14641122882E-01  0.45273159414E-02 -0.14398180482E+00  0.89183273050E+00  0.88000000000E+00 0.  1.
        -11    1    4    4    0    0  0.54586853003E-03  0.55690335075E-02  0.13771099268E-01  0.14873345377E-01  0.51100000000E-03 0. -1.
         11    1    4    4    0    0  0.13819308792E-02 -0.10855081290E-01  0.11222279617E+00  0.11275619550E+00  0.51100000000E-03 0.  1.
</event>
<event>
 8    1  0.1161093E+005  0.1043930E+01  0.7957747E-01            NaN
         13   -1    0    0    0    0  0.00000000000E+00  0.00000000000E+00  0.74505805969E-08  0.10566000000E+00  0.10566000000E+00 0.  1.
     999900   -1    0    0    0    0 -0.00000000000E+00 -0.00000000000E+00 -0.74505805969E-08  0.93827000000E+00  0.93827000000E+00 0. -1.
     999902    2    1    2    0    0 -0.10801439199E-01 -0.15155934892E-01  0.14738501114E-01  0.10201898048E+01  0.10199135459E+01 0.  0.
     999903    2    3    3    0    0  0.34412297527E-01 -0.20248245061E-01  0.12439622881E+00  0.13221737798E+00  0.20317865305E-01 0.  0.
         14    1    1    2    0    0  0.10801439199E-01  0.15155934892E-01 -0.14738501114E-01  0.23740195161E-01  0.00000000000E+00 0. -1.
     999901    1    3    3    0    0 -0.45213736726E-01  0.50923101692E-02 -0.10965772769E+00  0.88797242685E+00  0.88000000000E+00 0. -1.
        -11    1    4    4    0    0  0.23070357880E-01 -0.26534759648E-02  0.54281295732E-01  0.59042379142E-01  0.51100000000E-03 0.  1.
         11    1    4    4    0    0  0.11341939648E-01 -0.17594769096E-01  0.70114933075E-01  0.73174998843E-01  0.51100000000E-03 0. -1.
</event>
<event>
 8    1  0.1161093E+005  0.1043930E+01  0.7957747E-01            NaN
         13   -1    0    0    0    0  0.00000000000E+00  0.00000000000E+00  0.74505805969E-08  0.10566000000E+00  0.10566000000E+00 0.  1.
     999900   -1    0    0    0    0 -0.00000000000E+00 -0.00000000000E+00 -0.74505805969E-08  0.93827000000E+00  0.93827000000E+00 0.  1.
     999902    2    1    2    0    0  0.16011929257E-01 -0.13928068513E-02  0.19038713861E-01  0.10190142537E+01  0.10187096028E+01 0.  0.
     999903    2    3    3    0    0  0.66292261644E-01 -0.49793443328E-01 -0.96274039545E-01  0.12875150340E+00  0.20837657834E-01 0.  0.
         14    1    1    2    0    0 -0.16011929257E-01  0.13928068513E-02 -0.19038713861E-01  0.24915746325E-01  0.00000000000E+00 0. -1.
     999901    1    3    3    0    0 -0.50280332387E-01  0.48400636477E-01  0.11531275341E+00  0.89026275028E+00  0.88000000000E+00 0. -1.
        -11    1    4    4    0    0  0.17813201619E-01 -0.51388465133E-02 -0.30075825617E-01  0.35334604893E-01  0.51100000000E-03 0.  1.
         11    1    4    4    0    0  0.48479060025E-01 -0.44654596815E-01 -0.66198213928E-01  0.93416898503E-01  0.51100000000E-03 0. -1.
</event>
<event>
 8    1  0.1161093E+005  0.1043930E+01  0.7957747E-01            NaN
         13   -1    0    0    0    0  0.00000000000E+00  0.00000000000E+00  0.74505805969E-08  0.10566000000E+00  0.10566000000E+00 0.  1.
     999900   -1    0    0    0    0 -0.00000000000E+00 -0.00000000000E+00 -0.74505805969E-08  0.93827000000E+00  0.93827000000E+00 0.  1.
     999902    2    1    2    0    0  0.23694260892E-01 -0.15816080911E-02  0.11211998565E-02  0.10201565574E+01  0.10198795150E+01 0.  0.
     999903    2    3    3    0    0 -0.11692757038E+00  0.38907801181E-01  0.28405382741E-01  0.12765539868E+00  0.17411528832E-01 0.  0.
         14    1    1    2    0    0 -0.23694260892E-01  0.15816080911E-02 -0.11211998565E-02  0.23773442588E-01  0.00000000000E+00 0.  1.
     999901    1    3    3    0    0  0.14062183127E+00 -0.40489409272E-01 -0.27284182884E-01  0.89250115873E+00  0.88000000000E+00 0.  1.
        -11    1    4    4    0    0 -0.55431945430E-01  0.93297380919E-02  0.12795670201E-01  0.57651841982E-01  0.51100000000E-03 0. -1.
         11    1    4    4    0    0 -0.61495624953E-01  0.29578063089E-01  0.15609712540E-01  0.70003556703E-01  0.51100000000E-03 0.  1.
</event>
<event>
 8    1  0.1161093E+005  0.1043930E+01  0.7957747E-01            NaN
         13   -1    0    0    0    0  0.00000000000E+00  0.00000000000E+00  0.74505805969E-08  0.10566000000E+00  0.10566000000E+00 0. -1.
     999900   -1    0    0    0    0 -0.00000000000E+00 -0.00000000000E+00 -0.74505805969E-08  0.93827000000E+00  0.93827000000E+00 0. -1.
     999902    2    1    2    0    0 -0.15364731938E-01  0.15183041247E-01 -0.82948911507E-02  0.10207911809E+01  0.10205288972E+01 0.  0.
     999903    2    3    3    0    0  0.88695125341E-01  0.43321411009E-01  0.81689244115E-01  0.12965854975E+00  0.19865472738E-01 0.  0.
         14    1    1    2    0    0  0.15364731938E-01 -0.15183041247E-01  0.82948911507E-02  0.23138819076E-01  0.00000000000E+00 0. -1.
     999901    1    3    3    0    0 -0.10405985728E+00 -0.28138369762E-01 -0.89984135266E-01  0.89113263118E+00  0.88000000000E+00 0.  1.
        -11    1    4    4    0    0  0.25001454678E-01  0.20521709995E-01  0.19545468631E-01  0.37795499496E-01  0.51100000000E-03 0. -1.
         11    1    4    4    0    0  0.63693670663E-01  0.22799701014E-01  0.62143775484E-01  0.91863050250E-01  0.51100000000E-03 0.  1.
</event>
<event>
 8    1  0.1161093E+005  0.1043930E+01  0.7957747E-01            NaN
         13   -1    0    0    0    0  0.00000000000E+00  0.00000000000E+00  0.74505805969E-08  0.10566000000E+00  0.10566000000E+00 0. -1.
     999900   -1    0    0    0    0 -0.00000000000E+00 -0.00000000000E+00 -0.74505805969E-08  0.93827000000E+00  0.93827000000E+00 0. -1.
     999902    2    1    2    0    0  0.77802088192E-02 -0.18513866352E-01 -0.11024062454E-01  0.10210209439E+01  0.10207639017E+01 0.  0.
     999903    2    3    3    0    0  0.62524133181E-01  0.44968907625E-01 -0.10535558813E+00  0.13201847117E+00  0.19940082682E-01 0.  0.
         14    1    1    2    0    0 -0.77802088192E-02  0.18513866352E-01  0.11024062454E-01  0.22909056060E-01  0.00000000000E+00 0.  1.
     999901    1    3    3    0    0 -0.54743924362E-01 -0.63482773977E-01  0.94331525680E-01  0.88900247277E+00  0.88000000000E+00 0.  1.
        -11    1    4    4    0    0  0.31884313763E-01  0.27488036683E-01 -0.41796569830E-01  0.59324665994E-01  0.51100000000E-03 0. -1.
         11    1    4    4    0    0  0.30639819418E-01  0.17480870942E-01 -0.63559018304E-01  0.72693805180E-01  0.51100000000E-03 0.  1.
</event>
<event>
 8    1  0.1161093E+005  0.1043930E+01  0.7957747E-01            NaN
         13   -1    0    0    0    0  0.00000000000E+00  0.00000000000E+00  0.74505805969E-08  0.10566000000E+00  0.10566000000E+00 0.  1.
     999900   -1    0    0    0    0 -0.00000000000E+00 -0.00000000000E+00 -0.74505805969E-08  0.93827000000E+00  0.93827000000E+00 0.  1.
     999902    2    1    2    0    0  0.22727563969E-02  0.14019481192E-01 -0.19241929255E-01  0.10200142496E+01  0.10197338409E+01 0.  0.
     999903    2    3    3    0    0 -0.81129821974E-01 -0.47749327121E-01 -0.89457387152E-01  0.13113766298E+00  0.18232286793E-01 0.  0.
         14    1    1    2    0    0 -0.22727563969E-02 -0.14019481192E-01  0.19241929255E-01  0.23915750375E-01  0.00000000000E+00 0. -1.
     999901    1    3    3    0    0  0.83402578371E-01  0.61768808313E-01  0.70215457897E-01  0.88887658665E+00  0.88000000000E+00 0. -1.
        -11    1    4    4    0    0 -0.45197695189E-01 -0.32942373370E-01 -0.42897814065E-01  0.70487695282E-01  0.51100000000E-03 0.  1.
         11    1    4    4    0    0 -0.35932126785E-01 -0.14806953751E-01 -0.46559573087E-01  0.60649967698E-01  0.51100000000E-03 0. -1.
</event>
<event>
 8    1  0.1161093E+005  0.1043930E+01  0.7957747E-01            NaN
         13   -1    0    0    0    0  0.00000000000E+00  0.00000000000E+00  0.74505805969E-08  0.10566000000E+00  0.10566000000E+00 0.  1.
     999900   -1    0    0    0    0 -0.00000000000E+00 -0.00000000000E+00 -0.74505805969E-08  0.93827000000E+00  0.93827000000E+00 0.  1.
     999902    2    1    2    0    0  0.11228040093E-01 -0.26687999702E-01 -0.12635783888E-01  0.10123391588E+01  0.10118461302E+01 0.  0.
     999903    2    3    3    0    0 -0.29803454991E-01  0.11408564646E+00 -0.11423481130E-01  0.12020560787E+00  0.20374287335E-01 0.  0.
         14    1    1    2    0    0 -0.11228040093E-01  0.26687999702E-01  0.12635783888E-01  0.31590841187E-01  0.00000000000E+00 0.  1.
     999901    1    3    3    0    0  0.41031495084E-01 -0.14077364616E+00 -0.12123027580E-02  0.89213355094E+00  0.88000000000E+00 0. -1.
        -11    1    4    4    0    0  0.96576860395E-03  0.24072313771E-02  0.23650759792E-02  0.35471364912E-02  0.51100000000E-03 0.  1.
         11    1    4    4    0    0 -0.30769223595E-01  0.11167841508E+00 -0.13788557109E-01  0.11665847138E+00  0.51100000000E-03 0. -1.
</event>
<event>
 8    1  0.1161093E+005  0.1043930E+01  0.7957747E-01            NaN
         13   -1    0    0    0    0  0.00000000000E+00  0.00000000000E+00  0.74505805969E-08  0.10566000000E+00  0.10566000000E+00 0. -1.
     999900   -1    0    0    0    0 -0.00000000000E+00 -0.00000000000E+00 -0.74505805969E-08  0.93827000000E+00  0.93827000000E+00 0.  1.
     999902    2    1    2    0    0  0.33842688742E-02 -0.23641247493E-01  0.27510105548E-02  0.10198898270E+01  0.10196064581E+01 0.  0.
     999903    2    3    3    0    0  0.12379150999E+00 -0.34478326519E-01  0.20233621689E-01  0.13145244165E+00  0.18901111707E-01 0.  0.
         14    1    1    2    0    0 -0.33842688742E-02  0.23641247493E-01 -0.27510105548E-02  0.24040173001E-01  0.00000000000E+00 0.  1.
     999901    1    3    3    0    0 -0.12040724112E+00  0.10837079026E-01 -0.17482611134E-01  0.88843738535E+00  0.88000000000E+00 0. -1.
        -11    1    4    4    0    0  0.56291069101E-01 -0.20102206570E-01  0.90932738690E-03  0.59781863192E-01  0.51100000000E-03 0.  1.
         11    1    4    4    0    0  0.67500440890E-01 -0.14376119949E-01  0.19324294302E-01  0.71670578457E-01  0.51100000000E-03 0. -1.
</event>
<event>
 8    1  0.1161093E+005  0.1043930E+01  0.7957747E-01            NaN
         13   -1    0    0    0    0  0.00000000000E+00  0.00000000000E+00  0.74505805969E-08  0.10566000000E+00  0.10566000000E+00 0. -1.
     999900   -1    0    0    0    0 -0.00000000000E+00 -0.00000000000E+00 -0.74505805969E-08  0.93827000000E+00  0.93827000000E+00 0.  1.
     999902    2    1    2    0    0  0.17764570713E-01 -0.82368328805E-02  0.13378852641E-01  0.10202146234E+01  0.10199389485E+01 0.  0.
     999903    2    3    3    0    0 -0.13598861767E-01  0.83584201818E-01 -0.94294001379E-01  0.12835801454E+00  0.20326666345E-01 0.  0.
         14    1    1    2    0    0 -0.17764570713E-01  0.82368328805E-02 -0.13378852641E-01  0.23715376584E-01  0.00000000000E+00 0.  1.
     999901    1    3    3    0    0  0.31363432480E-01 -0.91821034698E-01  0.10767285402E+00  0.89185660888E+00  0.88000000000E+00 0. -1.
        -11    1    4    4    0    0  0.98908254499E-03  0.22243773258E-01 -0.36870843598E-01  0.43075328921E-01  0.51100000000E-03 0.  1.
         11    1    4    4    0    0 -0.14587944312E-01  0.61340428560E-01 -0.57423157781E-01  0.85282685615E-01  0.51100000000E-03 0. -1.
</event>
<event>
 8    1  0.1161093E+005  0.1043930E+01  0.7957747E-01            NaN
         13   -1    0    0    0    0  0.00000000000E+00  0.00000000000E+00  0.74505805969E-08  0.10566000000E+00  0.10566000000E+00 0.  1.
     999900   -1    0    0    0    0 -0.00000000000E+00 -0.00000000000E+00 -0.74505805969E-08  0.93827000000E+00  0.93827000000E+00 0.  1.
     999902    2    1    2    0    0 -0.14954609522E-01 -0.12994199458E-01 -0.62760480937E-02  0.10231483171E+01  0.10229372417E+01 0.  0.
     999903    2    3    3    0    0  0.98169698413E-01  0.58456543359E-01  0.59883521912E-01  0.13057932456E+00  0.20259976761E-01 0.  0.
         14    1    1    2    0    0  0.14954609522E-01  0.12994199458E-01  0.62760480937E-02  0.20781682924E-01  0.00000000000E+00 0.  1.
     999901    1    3    3    0    0 -0.11312430793E+00 -0.71450742816E-01 -0.66159570005E-01  0.89256899251E+00  0.88000000000E+00 0.  1.
        -11    1    4    4    0    0  0.45777503183E-01  0.31404120397E-01  0.39714106385E-01  0.68258845160E-01  0.51100000000E-03 0. -1.
         11    1    4    4    0    0  0.52392195231E-01  0.27052422961E-01  0.20169415526E-01  0.62320479401E-01  0.51100000000E-03 0.  1.
</event>
<event>
 8    1  0.1161093E+005  0.1043930E+01  0.7957747E-01            NaN
         13   -1    0    0    0    0  0.00000000000E+00  0.00000000000E+00  0.74505805969E-08  0.10566000000E+00  0.10566000000E+00 0. -1.
     999900   -1    0    0    0    0 -0.00000000000E+00 -0.00000000000E+00 -0.74505805969E-08  0.93827000000E+00  0.93827000000E+00 0.  1.
     999902    2    1    2    0    0  0.43089865669E-02 -0.20129082443E-01  0.96206882495E-02  0.10212076549E+01  0.10209548322E+01 0.  0.
     999903    2    3    3    0    0 -0.84688505889E-01  0.43926774556E-01  0.87430432831E-01  0.13099528537E+00  0.20346489914E-01 0.  0.
         14    1    1    2    0    0 -0.43089865669E-02  0.20129082443E-01 -0.96206882495E-02  0.22722345118E-01  0.00000000000E+00 0.  1.
     999901    1    3    3    0    0  0.88997492456E-01 -0.64055857000E-01 -0.77809744581E-01  0.89021236951E+00  0.88000000000E+00 0.  1.
        -11    1    4    4    0    0 -0.71709330723E-01  0.34261296461E-01  0.61783921864E-01  0.10066567772E+00  0.51100000000E-03 0. -1.
         11    1    4    4    0    0 -0.12979175166E-01  0.96654780955E-02  0.25646510966E-01  0.30329607655E-01  0.51100000000E-03 0.  1.
</event>
<event>
 8    1  0.1161093E+005  0.1043930E+01  0.7957747E-01            NaN
         13   -1    0    0    0    0  0.00000000000E+00  0.00000000000E+00  0.74505805969E-08  0.10566000000E+00  0.10566000000E+00 0. -1.
     999900   -1    0    0    0    0 -0.00000000000E+00 -0.00000000000E+00 -0.74505805969E-08  0.93827000000E+00  0.93827000000E+00 0.  1.
     999902    2    1    2    0    0  0.17779789244E-01  0.89378669114E-02  0.22617827796E-02  0.10239019688E+01  0.10237060710E+01 0.  0.
     999903    2    3    3    0    0  0.66291636789E-02 -0.54623085829E-01 -0.11952533514E+00  0.13317393333E+00  0.20527139664E-01 0.  0.
         14    1    1    2    0    0 -0.17779789244E-01 -0.89378669114E-02 -0.22617827796E-02  0.20028031152E-01  0.00000000000E+00 0.  1.
     999901    1    3    3    0    0  0.11150625565E-01  0.63560952740E-01  0.12178711792E+00  0.89072803552E+00  0.88000000000E+00 0. -1.
        -11    1    4    4    0    0  0.27772245256E-02 -0.34690624515E-01 -0.51318243813E-01  0.62007867842E-01  0.51100000000E-03 0.  1.
         11    1    4    4    0    0  0.38519391534E-02 -0.19932461313E-01 -0.68207091325E-01  0.71166065490E-01  0.51100000000E-03 0. -1.
</event>
<event>
 8    1  0.1161093E+005  0.1043930E+01  0.7957747E-01            NaN
         13   -1    0    0    0    0  0.00000000000E+00  0.00000000000E+00  0.74505805969E-08  0.10566000000E+00  0.10566000000E+00 0. -1.
     999900   -1    0    0    0    0 -0.00000000000E+00 -0.00000000000E+00 -0.74505805969E-08  0.93827000000E+00  0.93827000000E+00 0. -1.
     999902    2    1    2    0    0 -0.60600514830E-02 -0.14842780623E-01 -0.17286230829E-01  0.10203536106E+01  0.10200811951E+01 0.  0.
     999903    2    3    3    0    0 -0.67776907266E-01  0.10125507624E+00  0.36937312694E-01  0.12893458718E+00  0.20333791557E-01 0.  0.
         14    1    1    2    0    0  0.60600514830E-02  0.14842780623E-01  0.17286230829E-01  0.23576389394E-01  0.00000000000E+00 0.  1.
     999901    1    3    3    0    0  0.61716855783E-01 -0.11609785686E+00 -0.54223543522E-01  0.89141902343E+00  0.88000000000E+00 0. -1.
        -11    1    4    4    0    0 -0.44504625861E-01  0.48800008319E-01  0.22272273516E-01  0.69702351635E-01  0.51100000000E-03 0.  1.
         11    1    4    4    0    0 -0.23272281405E-01  0.52455067921E-01  0.14665039178E-01  0.59232235543E-01  0.51100000000E-03 0. -1.
</event>
<event>
 8    1  0.1161093E+005  0.1043930E+01  0.7957747E-01            NaN
         13   -1    0    0    0    0  0.00000000000E+00  0.00000000000E+00  0.74505805969E-08  0.10566000000E+00  0.10566000000E+00 0. -1.
     999900   -1    0    0    0    0 -0.00000000000E+00 -0.00000000000E+00 -0.74505805969E-08  0.93827000000E+00  0.93827000000E+00 0. -1.
     999902    2    1    2    0    0 -0.68909839928E-02 -0.22942316857E-01  0.32835772263E-02  0.10197511365E+01  0.10194644490E+01 0.  0.
     999903    2    3    3    0    0  0.40147433320E-01 -0.53057848312E-01 -0.11053086606E+00  0.13066549072E+00  0.20723089630E-01 0.  0.
         14    1    1    2    0    0  0.68909839928E-02  0.22942316857E-01 -0.32835772263E-02  0.24178863550E-01  0.00000000000E+00 0. -1.
     999901    1    3    3    0    0 -0.47038417313E-01  0.30115531454E-01  0.11381444329E+00  0.88908564573E+00  0.88000000000E+00 0. -1.
        -11    1    4    4    0    0  0.37409382332E-01 -0.34430436017E-01 -0.81565322998E-01  0.96114930410E-01  0.51100000000E-03 0.  1.
         11    1    4    4    0    0  0.27380509883E-02 -0.18627412295E-01 -0.28965543063E-01  0.34550560313E-01  0.51100000000E-03 0. -1.
</event>
<event>
 8    1  0.1161093E+005  0.1043930E+01  0.7957747E-01            NaN
         13   -1    0    0    0    0  0.00000000000E+00  0.00000000000E+00  0.74505805969E-08  0.10566000000E+00  0.10566000000E+00 0. -1.
     999900   -1    0    0    0    0 -0.00000000000E+00 -0.00000000000E+00 -0.74505805969E-08  0.93827000000E+00  0.93827000000E+00 0. -1.
     999902    2    1    2    0    0 -0.12058018313E-01 -0.11067915491E-01 -0.15704898469E-01  0.10212465612E+01  0.10209946133E+01 0.  0.
     999903    2    3    3    0    0  0.11729713749E+00 -0.41991310104E-01 -0.35701992535E-01  0.13102810689E+00  0.19283255335E-01 0.  0.
         14    1    1    2    0    0  0.12058018313E-01  0.11067915491E-01  0.15704898469E-01  0.22683438780E-01  0.00000000000E+00 0. -1.
     999901    1    3    3    0    0 -0.12935515580E+00  0.30923394613E-01  0.19997094066E-01  0.89021845433E+00  0.88000000000E+00 0.  1.
        -11    1    4    4    0    0  0.33719307858E-01 -0.19352369991E-01 -0.17025523700E-01  0.42445677342E-01  0.51100000000E-03 0. -1.
         11    1    4    4    0    0  0.83577829629E-01 -0.22638940113E-01 -0.18676468834E-01  0.88582429544E-01  0.51100000000E-03 0.  1.
</event>
<event>
 7    1  0.1161093E+005  0.1043930E+01  0.7957747E-01            NaN
         13   -1    0    0    0    0  0.00000000000E+00  0.00000000000E+00  0.74505805969E-08  0.10566000000E+00  0.10566000000E+00 0.  1.
     999900   -1    0    0    0    0 -0.00000000000E+00 -0.00000000000E+00 -0.74505805969E-08  0.93827000000E+00  0.93827000000E+00 0. -1.
     999902    2    1    2    0    0 -0.23646810422E-02  0.23814254524E-01 -0.16414378570E-02  0.10199424042E+01  0.10196602881E+01 0.  0.
         14    1    1    2    0    0  0.23646810422E-02 -0.23814254524E-01  0.16414378570E-02  0.23987595820E-01  0.00000000000E+00 0. -1.
     999901    1    3    3    0    0  0.64525154017E-01  0.42374399907E-01  0.10270831193E+00  0.88933013140E+00  0.88000000000E+00 0.  1.
        -11    1    3    3    0    0 -0.26085178462E-02  0.53060691420E-02 -0.22730237752E-03  0.59389832854E-02  0.51100000000E-03 0.  1.
         11    1    3    3    0    0 -0.64281317213E-01 -0.23866214525E-01 -0.10412244741E+00  0.12467328950E+00  0.51100000000E-03 0. -1.
</event>
<event>
 8    1  0.1161093E+005  0.1043930E+01  0.7957747E-01            NaN
         13   -1    0    0    0    0  0.00000000000E+00  0.00000000000E+00  0.74505805969E-08  0.10566000000E+00  0.10566000000E+00 0. -1.
     999900   -1    0    0    0    0 -0.00000000000E+00 -0.00000000000E+00 -0.74505805969E-08  0.93827000000E+00  0.93827000000E+00 0. -1.
     999902    2    1    2    0    0 -0.18033776769E-01  0.12478351573E-01  0.42646947526E-02  0.10215891409E+01  0.10213448286E+01 0.  0.
     999903    2    3    3    0    0 -0.83755649782E-01  0.76524849917E-01  0.69271690880E-01  0.13443231822E+00  0.20060396285E-01 0.  0.
         14    1    1    2    0    0  0.18033776769E-01 -0.12478351573E-01 -0.42646947526E-02  0.22340859067E-01  0.00000000000E+00 0.  1.
     999901    1    3    3    0    0  0.65721873012E-01 -0.64046498344E-01 -0.65006996128E-01  0.88715682271E+00  0.88000000000E+00 0. -1.
        -11    1    4    4    0    0 -0.21430138238E-01  0.30767875972E-01  0.27898917234E-01  0.46738888739E-01  0.51100000000E-03 0. -1.
         11    1    4    4    0    0 -0.62325511543E-01  0.45756973945E-01  0.41372773647E-01  0.87693429480E-01  0.51100000000E-03 0.  1.
</event>
<event>
 8    1  0.1161093E+005  0.1043930E+01  0.7957747E-01            NaN
         13   -1    0    0    0    0  0.00000000000E+00  0.00000000000E+00  0.74505805969E-08  0.10566000000E+00  0.10566000000E+00 0. -1.
     999900   -1    0    0    0    0 -0.00000000000E+00 -0.00000000000E+00 -0.74505805969E-08  0.93827000000E+00  0.93827000000E+00 0. -1.
     999902    2    1    2    0    0 -0.45840051960E-03 -0.21221430675E-01 -0.92495044055E-02  0.10207758949E+01  0.10205132606E+01 0.  0.
     999903    2    3    3    0    0 -0.81937157235E-01  0.46179972569E-01 -0.88759085267E-01  0.13088628917E+00  0.20168239194E-01 0.  0.
         14    1    1    2    0    0  0.45840051960E-03  0.21221430675E-01  0.92495044055E-02  0.23154105093E-01  0.00000000000E+00 0. -1.
     999901    1    3    3    0    0  0.81478756716E-01 -0.67401403244E-01  0.79509580861E-01  0.88988960574E+00  0.88000000000E+00 0. -1.
        -11    1    4    4    0    0 -0.25016071966E-01  0.98767664712E-02 -0.14633986209E-01  0.30623014971E-01  0.51100000000E-03 0. -1.
         11    1    4    4    0    0 -0.56921085269E-01  0.36303206098E-01 -0.74125099058E-01  0.10026327420E+00  0.51100000000E-03 0.  1.
</event>
<event>
 8    1  0.1161093E+005  0.1043930E+01  0.7957747E-01            NaN
         13   -1    0    0    0    0  0.00000000000E+00  0.00000000000E+00  0.74505805969E-08  0.10566000000E+00  0.10566000000E+00 0.  1.
     999900   -1    0    0    0    0 -0.00000000000E+00 -0.00000000000E+00 -0.74505805969E-08  0.93827000000E+00  0.93827000000E+00 0. -1.
     999902    2    1    2    0    0 -0.19800017750E-01  0.41507720449E-02 -0.10137557506E-01  0.10213017061E+01  0.10210509954E+01 0.  0.
     999903    2    3    3    0    0  0.43573789424E-01 -0.11174697725E+00  0.40077331602E-01  0.13002730236E+00  0.30246401427E-01 0.  0.
         14    1    1    2    0    0  0.19800017750E-01 -0.41507720449E-02  0.10137557506E-01  0.22628293874E-01  0.00000000000E+00 0.  1.
     999901    1    3    3    0    0 -0.63373807174E-01  0.11589774930E+00 -0.50214889108E-01  0.89127440377E+00  0.88000000000E+00 0. -1.
        -11    1    4    4    0    0  0.16717546810E-01 -0.30060242981E-01 -0.16674685051E-02  0.34440327403E-01  0.51100000000E-03 0.  1.
         11    1    4    4    0    0  0.26856242615E-01 -0.81686734273E-01  0.41744800107E-01  0.95586974952E-01  0.51100000000E-03 0. -1.
</event>
<event>
 8    1  0.1161093E+005  0.1043930E+01  0.7957747E-01            NaN
         13   -1    0    0    0    0  0.00000000000E+00  0.00000000000E+00  0.74505805969E-08  0.10566000000E+00  0.10566000000E+00 0. -1.
     999900   -1    0    0    0    0 -0.00000000000E+00 -0.00000000000E+00 -0.74505805969E-08  0.93827000000E+00  0.93827000000E+00 0. -1.
     999902    2    1    2    0    0 -0.13413649961E-01  0.18530918848E-01 -0.88026257960E-02  0.10194186316E+01  0.10191239077E+01 0.  0.
     999903    2    3    3    0    0  0.11098282668E+00  0.54839541122E-01 -0.32867510846E-01  0.12960296637E+00  0.19801326568E-01 0.  0.
         14    1    1    2    0    0  0.13413649961E-01 -0.18530918848E-01  0.88026257960E-02  0.24511368373E-01  0.00000000000E+00 0. -1.
     999901    1    3    3    0    0 -0.12439647664E+00 -0.36308622274E-01  0.24064885050E-01  0.88981566526E+00  0.88000000000E+00 0.  1.
        -11    1    4    4    0    0  0.41432099696E-01  0.30050771349E-01 -0.87619460811E-02  0.51929765684E-01  0.51100000000E-03 0.  1.
         11    1    4    4    0    0  0.69550726982E-01  0.24788769773E-01 -0.24105564765E-01  0.77673200682E-01  0.51100000000E-03 0. -1.
</event>
<event>
 8    1  0.1161093E+005  0.1043930E+01  0.7957747E-01            NaN
         13   -1    0    0    0    0  0.00000000000E+00  0.00000000000E+00  0.74505805969E-08  0.10566000000E+00  0.10566000000E+00 0. -1.
     999900   -1    0    0    0    0 -0.00000000000E+00 -0.00000000000E+00 -0.74505805969E-08  0.93827000000E+00  0.93827000000E+00 0. -1.
     999902    2    1    2    0    0  0.68850637494E-02 -0.95147620419E-02  0.17992545733E-01  0.10224435740E+01  0.10222177828E+01 0.  0.
     999903    2    3    3    0    0 -0.12392566040E+00 -0.11896177607E-01 -0.35617926399E-01  0.13115731281E+00  0.20845039629E-01 0.  0.
         14    1    1    2    0    0 -0.68850637494E-02  0.95147620419E-02 -0.17992545733E-01  0.21486425982E-01  0.00000000000E+00 0.  1.
     999901    1    3    3    0    0  0.13081072414E+00  0.23814155646E-02  0.53610472132E-01  0.89128626121E+00  0.88000000000E+00 0.  1.
        -11    1    4    4    0    0 -0.71425151473E-01  0.26266920669E-02 -0.24516802069E-01  0.75563129096E-01  0.51100000000E-03 0.  1.
         11    1    4    4    0    0 -0.52500508922E-01 -0.14522869673E-01 -0.11101124330E-01  0.55594183716E-01  0.51100000000E-03 0. -1.
</event>
<event>
 8    1  0.1161093E+005  0.1043930E+01  0.7957747E-01            NaN
         13   -1    0    0    0    0  0.00000000000E+00  0.00000000000E+00  0.74505805969E-08  0.10566000000E+00  0.10566000000E+00 0. -1.
     999900   -1    0    0    0    0 -0.00000000000E+00 -0.00000000000E+00 -0.74505805969E-08  0.93827000000E+00  0.93827000000E+00 0. -1.
     999902    2    1    2    0    0 -0.51705168439E-02 -0.17287093466E-01 -0.16475890211E-01  0.10194957453E+01  0.10192028953E+01 0.  0.
     999903    2    3    3    0    0  0.45819922445E-01  0.10112277631E-01  0.11693379758E+00  0.12756026823E+00  0.19909434020E-01 0.  0.
         14    1    1    2    0    0  0.51705168439E-02  0.17287093466E-01  0.16475890211E-01  0.24434254709E-01  0.00000000000E+00 0. -1.
     999901    1    3    3    0    0 -0.50990439289E-01 -0.27399371096E-01 -0.13340968779E+00  0.89193547706E+00  0.88000000000E+00 0. -1.
        -11    1    4    4    0    0  0.33681121307E-01  0.14708411601E-01  0.72773838723E-01  0.81529430439E-01  0.51100000000E-03 0.  1.
         11    1    4    4    0    0  0.12138801138E-01 -0.45961339703E-02  0.44159958860E-01  0.46030837795E-01  0.51100000000E-03 0. -1.
</event>
<event>
 8    1  0.1161093E+005  0.1043930E+01  0.7957747E-01            NaN
         13   -1    0    0    0    0  0.00000000000E+00  0.00000000000E+00  0.74505805969E-08  0.10566000000E+00  0.10566000000E+00 0. -1.
     999900   -1    0    0    0    0 -0.00000000000E+00 -0.00000000000E+00 -0.74505805969E-08  0.93827000000E+00  0.93827000000E+00 0.  1.
     999902    2    1    2    0    0  0.53653160078E-02  0.20935756746E-01 -0.96760392038E-02  0.10202505097E+01  0.10199756783E+01 0.  0.
     999903    2    3    3    0    0 -0.11823025401E+00 -0.47298777934E-01 -0.68951733246E-02  0.12899322369E+00  0.19394354420E-01 0.  0.
         14    1    1    2    0    0 -0.53653160078E-02 -0.20935756746E-01  0.96760392038E-02  0.23679490304E-01  0.00000000000E+00 0. -1.
     999901    1    3    3    0    0  0.12359557002E+00  0.68234534679E-01 -0.27808658792E-02  0.89125728601E+00  0.88000000000E+00 0. -1.
        -11    1    4    4    0    0 -0.29925994433E-01 -0.20422350642E-01  0.18054471753E-02  0.36278896194E-01  0.51100000000E-03 0.  1.
         11    1    4    4    0    0 -0.88304259581E-01 -0.26876427292E-01 -0.87006204999E-02  0.92714327491E-01  0.51100000000E-03 0. -1.
</event>
<event>
 8    1  0.1161093E+005  0.1043930E+01  0.7957747E-01            NaN
         13   -1    0    0    0    0  0.00000000000E+00  0.00000000000E+00  0.74505805969E-08  0.10566000000E+00  0.10566000000E+00 0.  1.
     999900   -1    0    0    0    0 -0.00000000000E+00 -0.00000000000E+00 -0.74505805969E-08  0.93827000000E+00  0.93827000000E+00 0.  1.
     999902    2    1    2    0    0  0.15067358372E-02 -0.23512729230E-01  0.16753797927E-02  0.10203095515E+01  0.10200361049E+01 0.  0.
     999903    2    3    3    0    0  0.63979283746E-01  0.18175506125E-01  0.11049110060E+00  0.13043226262E+00  0.19508819766E-01 0.  0.
         14    1    1    2    0    0 -0.15067358372E-02  0.23512729230E-01 -0.16753797927E-02  0.23620448476E-01  0.00000000000E+00 0.  1.
     999901    1    3    3    0    0 -0.62472547909E-01 -0.41688235356E-01 -0.10881572081E+00  0.88987728890E+00  0.88000000000E+00 0.  1.
        -11    1    4    4    0    0  0.13918627778E-01  0.12871258359E-01  0.29548614945E-01  0.35110956368E-01  0.51100000000E-03 0.  1.
         11    1    4    4    0    0  0.50060655968E-01  0.53042477665E-02  0.80942485658E-01  0.95321306253E-01  0.51100000000E-03 0. -1.
</event>
<event>
 8    1  0.1161093E+005  0.1043930E+01  0.7957747E-01            NaN
         13   -1    0    0    0    0  0.00000000000E+00  0.00000000000E+00  0.74505805969E-08  0.10566000000E+00  0.10566000000E+00 0. -1.
     999900   -1    0    0    0    0 -0.00000000000E+00 -0.00000000000E+00 -0.74505805969E-08  0.93827000000E+00  0.93827000000E+00 0. -1.
     999902    2    1    2    0    0 -0.50409580404E-03  0.11891685869E-01 -0.19677521758E-01  0.10209328009E+01  0.10206737543E+01 0.  0.
     999903    2    3    3    0    0 -0.10427762947E+00  0.78126084563E-01 -0.80322880317E-02  0.13228689089E+00  0.21396138731E-01 0.  0.
         14    1    1    2    0    0  0.50409580404E-03 -0.11891685869E-01  0.19677521758E-01  0.22997199132E-01  0.00000000000E+00 0. -1.
     999901    1    3    3    0    0  0.10377353366E+00 -0.66234398694E-01 -0.11645233727E-01  0.88864590998E+00  0.88000000000E+00 0. -1.
        -11    1    4    4    0    0 -0.28444711794E-01  0.30320450467E-01 -0.94182469983E-02  0.42630925901E-01  0.51100000000E-03 0.  1.
         11    1    4    4    0    0 -0.75832917673E-01  0.47805634096E-01  0.13859589667E-02  0.89655964985E-01  0.51100000000E-03 0. -1.
</event>
<event>
 8    1  0.1161093E+005  0.1043930E+01  0.7957747E-01            NaN
         13   -1    0    0    0    0  0.00000000000E+00  0.00000000000E+00  0.74505805969E-08  0.10566000000E+00  0.10566000000E+00 0. -1.
     999900   -1    0    0    0    0 -0.00000000000E+00 -0.00000000000E+00 -0.74505805969E-08  0.93827000000E+00  0.93827000000E+00 0. -1.
     999902    2    1    2    0    0 -0.80824810105E-02 -0.15315722753E-01  0.16082880610E-01  0.10202961913E+01  0.10200224317E+01 0.  0.
     999903    2    3    3    0    0  0.44267664605E-01  0.11814810007E+00 -0.12414180559E-01  0.12823945983E+00  0.19304079867E-01 0.  0.
         14    1    1    2    0    0  0.80824810105E-02  0.15315722753E-01 -0.16082880610E-01  0.23633808653E-01  0.00000000000E+00 0.  1.
     999901    1    3    3    0    0 -0.52350145615E-01 -0.13346382282E+00  0.28497061169E-01  0.89205673152E+00  0.88000000000E+00 0. -1.
        -11    1    4    4    0    0  0.13863432856E-01  0.23267921154E-01 -0.90049878976E-02  0.28547186436E-01  0.51100000000E-03 0. -1.
         11    1    4    4    0    0  0.30404231749E-01  0.94880178914E-01 -0.34091926618E-02  0.99692273395E-01  0.51100000000E-03 0.  1.
</event>
<event>
 8    1  0.1161093E+005  0.1043930E+01  0.7957747E-01            NaN
         13   -1    0    0    0    0  0.00000000000E+00  0.00000000000E+00  0.74505805969E-08  0.10566000000E+00  0.10566000000E+00 0. -1.
     999900   -1    0    0    0    0 -0.00000000000E+00 -0.00000000000E+00 -0.74505805969E-08  0.93827000000E+00  0.93827000000E+00 0.  1.
     999902    2    1    2    0    0  0.10130201945E-01 -0.21394736884E-01  0.47169069876E-02  0.10197927887E+01  0.10195071000E+01 0.  0.
     999903    2    3    3    0    0  0.11848399805E+00 -0.24434776123E-01 -0.47275788936E-01  0.13161880383E+00  0.21283637497E-01 0.  0.
         14    1    1    2    0    0 -0.10130201945E-01  0.21394736884E-01 -0.47169069876E-02  0.24137211300E-01  0.00000000000E+00 0.  1.
     999901    1    3    3    0    0 -0.10835379610E+00  0.30400392387E-02  0.51992695924E-01  0.88817398487E+00  0.88000000000E+00 0. -1.
        -11    1    4    4    0    0  0.10244710891E+00 -0.13722204276E-01 -0.42385145800E-01  0.11171602714E+00  0.51100000000E-03 0.  1.
         11    1    4    4    0    0  0.16036889133E-01 -0.10712571847E-01 -0.48906431360E-02  0.19902776689E-01  0.51100000000E-03 0. -1.
</event>
<event>
 8    1  0.1161093E+005  0.1043930E+01  0.7957747E-01            NaN
         13   -1    0    0    0    0  0.00000000000E+00  0.00000000000E+00  0.74505805969E-08  0.10566000000E+00  0.10566000000E+00 0. -1.
     999900   -1    0    0    0    0 -0.00000000000E+00 -0.00000000000E+00 -0.74505805969E-08  0.93827000000E+00  0.93827000000E+00 0.  1.
     999902    2    1    2    0    0  0.23974558693E-01 -0.22367198263E-02 -0.30287551856E-02  0.10196615897E+01  0.10193727492E+01 0.  0.
     999903    2    3    3    0    0 -0.12431553616E-01  0.73004790360E-01  0.10403533891E+00  0.12924067233E+00  0.19888607304E-01 0.  0.
         14    1    1    2    0    0 -0.23974558693E-01  0.22367198263E-02  0.30287551856E-02  0.24268410292E-01  0.00000000000E+00 0.  1.
     999901    1    3    3    0    0  0.36406112309E-01 -0.75241510186E-01 -0.10706409409E+00  0.89042091738E+00  0.88000000000E+00 0.  1.
        -11    1    4    4    0    0  0.92987989573E-03  0.48397461606E-01  0.60634575276E-01  0.77588606163E-01  0.51100000000E-03 0.  1.
         11    1    4    4    0    0 -0.13361433511E-01  0.24607328754E-01  0.43400763633E-01  0.51652066162E-01  0.51100000000E-03 0. -1.
</event>
<event>
 8    1  0.1161093E+005  0.1043930E+01  0.7957747E-01            NaN
         13   -1    0    0    0    0  0.00000000000E+00  0.00000000000E+00  0.74505805969E-08  0.10566000000E+00  0.10566000000E+00 0. -1.
     999900   -1    0    0    0    0 -0.00000000000E+00 -0.00000000000E+00 -0.74505805969E-08  0.93827000000E+00  0.93827000000E+00 0. -1.
     999902    2    1    2    0    0  0.18121452930E-01 -0.15925521266E-02 -0.14280471578E-01  0.10208030645E+01  0.10205410532E+01 0.  0.
     999903    2    3    3    0    0 -0.33876393823E-01  0.39903855364E-02 -0.12604715586E+00  0.13219362440E+00  0.20584839021E-01 0.  0.
         14    1    1    2    0    0 -0.18121452930E-01  0.15925521266E-02  0.14280471578E-01  0.23126935531E-01  0.00000000000E+00 0. -1.
     999901    1    3    3    0    0  0.51997846752E-01 -0.55829376630E-02  0.11176668428E+00  0.88860944007E+00  0.88000000000E+00 0.  1.
        -11    1    4    4    0    0 -0.32123210062E-01  0.11799662995E-03 -0.84086001529E-01  0.90014617269E-01  0.51100000000E-03 0. -1.
         11    1    4    4    0    0 -0.17531837609E-02  0.38723889065E-02 -0.41961154330E-01  0.42179007134E-01  0.51100000000E-03 0.  1.
</event>
<event>
 8    1  0.1161093E+005  0.1043930E+01  0.7957747E-01            NaN
         13   -1    0    0    0    0  0.00000000000E+00  0.00000000000E+00  0.74505805969E-08  0.10566000000E+00  0.10566000000E+00 0.  1.
     999900   -1    0    0    0    0 -0.00000000000E+00 -0.00000000000E+00 -0.74505805969E-08  0.93827000000E+00  0.93827000000E+00 0. -1.
     999902    2    1    2    0    0  0.93140600105E-02  0.92726181327E-02 -0.11239750911E-01  0.10266364994E+01  0.10264908362E+01 0.  0.
     999903    2    3    3    0    0 -0.10461612225E+00 -0.15441926407E-01  0.80832643166E-01  0.13418581683E+00  0.16997973808E-01 0.  0.
         14    1    1    2    0    0 -0.93140600105E-02 -0.92726181327E-02  0.11239750911E-01  0.17293500555E-01  0.00000000000E+00 0.  1.
     999901    1    3    3    0    0  0.11393018226E+00  0.24714544540E-01 -0.92072394077E-01  0.89245068261E+00  0.88000000000E+00 0. -1.
        -11    1    4    4    0    0 -0.41316347640E-01 -0.13515610377E-01  0.27996317710E-01  0.51708483178E-01  0.51100000000E-03 0.  1.
         11    1    4    4    0    0 -0.63299774605E-01 -0.19263160297E-02  0.52836325456E-01  0.82477333657E-01  0.51100000000E-03 0. -1.
</event>
<event>
 8    1  0.1161093E+005  0.1043930E+01  0.7957747E-01            NaN
         13   -1    0    0    0    0  0.00000000000E+00  0.00000000000E+00  0.74505805969E-08  0.10566000000E+00  0.10566000000E+00 0. -1.
     999900   -1    0    0    0    0 -0.00000000000E+00 -0.00000000000E+00 -0.74505805969E-08  0.93827000000E+00  0.93827000000E+00 0. -1.
     999902    2    1    2    0    0 -0.19428951926E-01 -0.97140544455E-02 -0.10853829925E-01  0.10196472355E+01  0.10193580491E+01 0.  0.
     999903    2    3    3    0    0 -0.90207613426E-01 -0.75489113999E-01  0.56092899121E-01  0.13183090209E+00  0.19923693452E-01 0.  0.
         14    1    1    2    0    0  0.19428951926E-01  0.97140544455E-02  0.10853829925E-01  0.24282764479E-01  0.00000000000E+00 0. -1.
     999901    1    3    3    0    0  0.70778661500E-01  0.65775059553E-01 -0.66946729047E-01  0.88781633343E+00  0.88000000000E+00 0. -1.
        -11    1    4    4    0    0 -0.31973110206E-01 -0.39476092044E-01  0.25283799825E-01  0.56746570592E-01  0.51100000000E-03 0.  1.
         11    1    4    4    0    0 -0.58234503219E-01 -0.36013021955E-01  0.30809099296E-01  0.75084331495E-01  0.51100000000E-03 0. -1.
</event>
<event>
 8    1  0.1161093E+005  0.1043930E+01  0.7957747E-01            NaN
         13   -1    0    0    0    0  0.00000000000E+00  0.00000000000E+00  0.74505805969E-08  0.10566000000E+00  0.10566000000E+00 0. -1.
     999900   -1    0    0    0    0 -0.00000000000E+00 -0.00000000000E+00 -0.74505805969E-08  0.93827000000E+00  0.93827000000E+00 0.  1.
     999902    2    1    2    0    0 -0.10497851388E-01 -0.20707206693E-01 -0.15541729049E-02  0.10206618083E+01  0.10203965494E+01 0.  0.
     999903    2    3    3    0    0  0.84881220474E-01  0.14213567752E-01  0.94626859334E-01  0.12961331420E+00  0.20940907619E-01 0.  0.
         14    1    1    2    0    0  0.10497851388E-01  0.20707206693E-01  0.15541729049E-02  0.23268191726E-01  0.00000000000E+00 0. -1.
     999901    1    3    3    0    0 -0.95379071862E-01 -0.34920774445E-01 -0.96181032239E-01  0.89104849408E+00  0.88000000000E+00 0.  1.
        -11    1    4    4    0    0  0.22703428444E-01  0.10062994484E-01  0.17152500995E-01  0.30185740549E-01  0.51100000000E-03 0.  1.
         11    1    4    4    0    0  0.62177792030E-01  0.41505732680E-02  0.77474358339E-01  0.99427573646E-01  0.51100000000E-03 0. -1.
</event>
<event>
 8    1  0.1161093E+005  0.1043930E+01  0.7957747E-01            NaN
         13   -1    0    0    0    0  0.00000000000E+00  0.00000000000E+00  0.74505805969E-08  0.10566000000E+00  0.10566000000E+00 0.  1.
     999900   -1    0    0    0    0 -0.00000000000E+00 -0.00000000000E+00 -0.74505805969E-08  0.93827000000E+00  0.93827000000E+00 0.  1.
     999902    2    1    2    0    0  0.62233406319E-02  0.14264282037E-01  0.14528035963E-01  0.10226400132E+01  0.10224183747E+01 0.  0.
     999903    2    3    3    0    0  0.22095618041E-01  0.42347783548E-01 -0.12095050884E+00  0.13168824772E+00  0.20765786521E-01 0.  0.
         14    1    1    2    0    0 -0.62233406319E-02 -0.14264282037E-01 -0.14528035963E-01  0.21289986838E-01  0.00000000000E+00 0. -1.
     999901    1    3    3    0    0 -0.15872277409E-01 -0.28083501511E-01  0.13547854480E+00  0.89095176544E+00  0.88000000000E+00 0. -1.
        -11    1    4    4    0    0  0.18248771986E-01  0.17642042153E-01 -0.44273183849E-01  0.51035627354E-01  0.51100000000E-03 0. -1.
         11    1    4    4    0    0  0.38468460555E-02  0.24705741395E-01 -0.76677324991E-01  0.80652620362E-01  0.51100000000E-03 0.  1.
</event>
<event>
 8    1  0.1216166E+005  0.1043930E+01  0.7957747E-01            NaN
         13   -1    0    0    0    0  0.00000000000E+00  0.00000000000E+00  0.74505805969E-08  0.10566000000E+00  0.10566000000E+00 0. -1.
     999900   -1    0    0    0    0 -0.00000000000E+00 -0.00000000000E+00 -0.74505805969E-08  0.93827000000E+00  0.93827000000E+00 0. -1.
     999902    2    1    2    0    0  0.21964332041E-01 -0.59101031325E-02 -0.36725461032E-02  0.10208898438E+01  0.10206298175E+01 0.  0.
     999903    2    3    3    0    0 -0.34596387571E-01  0.56050615383E-01  0.10982021924E+00  0.12964416871E+00  0.20212580485E-01 0.  0.
         14    1    1    2    0    0 -0.21964332041E-01  0.59101031325E-02  0.36725461032E-02  0.23040156161E-01  0.00000000000E+00 0.  1.
     999901    1    3    3    0    0  0.56560719612E-01 -0.61960718515E-01 -0.11349276534E+00  0.89124567512E+00  0.88000000000E+00 0. -1.
        -11    1    4    4    0    0 -0.16982117381E-01  0.11667255761E-01  0.40861004740E-01  0.45764615120E-01  0.51100000000E-03 0.  1.
         11    1    4    4    0    0 -0.17614270190E-01  0.44383359622E-01  0.68959214501E-01  0.83879553595E-01  0.51100000000E-03 0. -1.
</event>
<event>
 8    1  0.1161093E+005  0.1043930E+01  0.7957747E-01            NaN
         13   -1    0    0    0    0  0.00000000000E+00  0.00000000000E+00  0.74505805969E-08  0.10566000000E+00  0.10566000000E+00 0.  1.
     999900   -1    0    0    0    0 -0.00000000000E+00 -0.00000000000E+00 -0.74505805969E-08  0.93827000000E+00  0.93827000000E+00 0.  1.
     999902    2    1    2    0    0  0.21712702593E-01  0.10061742905E-01 -0.68965398239E-02  0.10190253341E+01  0.10187209574E+01 0.  0.
     999903    2    3    3    0    0  0.57058520518E-01 -0.11452799440E+00 -0.91314125370E-02  0.12954406717E+00  0.18053985117E-01 0.  0.
         14    1    1    2    0    0 -0.21712702593E-01 -0.10061742905E-01  0.68965398239E-02  0.24904665942E-01  0.00000000000E+00 0.  1.
     999901    1    3    3    0    0 -0.35345817925E-01  0.12458973731E+00  0.22348727131E-02  0.88948126689E+00  0.88000000000E+00 0. -1.
        -11    1    4    4    0    0  0.30799043514E-01 -0.58078069140E-01 -0.13562958024E-01  0.67125689179E-01  0.51100000000E-03 0.  1.
         11    1    4    4    0    0  0.26259477004E-01 -0.56449925263E-01  0.44315454874E-02  0.62418377992E-01  0.51100000000E-03 0. -1.
</event>
<event>
 8    1  0.1161093E+005  0.1043930E+01  0.7957747E-01            NaN
         13   -1    0    0    0    0  0.00000000000E+00  0.00000000000E+00  0.74505805969E-08  0.10566000000E+00  0.10566000000E+00 0.  1.
     999900   -1    0    0    0    0 -0.00000000000E+00 -0.00000000000E+00 -0.74505805969E-08  0.93827000000E+00  0.93827000000E+00 0. -1.
     999902    2    1    2    0    0 -0.18535169801E-01 -0.93777545808E-02  0.12018566024E-01  0.10199312348E+01  0.10196488528E+01 0.  0.
     999903    2    3    3    0    0 -0.46391900623E-01  0.26628912101E-01  0.11915618126E+00  0.13226522438E+00  0.20846741865E-01 0.  0.
         14    1    1    2    0    0  0.18535169801E-01  0.93777545808E-02 -0.12018566024E-01  0.23998765173E-01  0.00000000000E+00 0. -1.
     999901    1    3    3    0    0  0.27856730821E-01 -0.36006666682E-01 -0.10713761523E+00  0.88766601044E+00  0.88000000000E+00 0. -1.
        -11    1    4    4    0    0 -0.33948002134E-01  0.27181977304E-01  0.10339223066E+00  0.11216746953E+00  0.51100000000E-03 0. -1.
         11    1    4    4    0    0 -0.12443898489E-01 -0.55306520256E-03  0.15763950599E-01  0.20097754854E-01  0.51100000000E-03 0.  1.
</event>
<event>
 7    1  0.1161093E+005  0.1043930E+01  0.7957747E-01            NaN
         13   -1    0    0    0    0  0.00000000000E+00  0.00000000000E+00  0.74505805969E-08  0.10566000000E+00  0.10566000000E+00 0. -1.
     999900   -1    0    0    0    0 -0.00000000000E+00 -0.00000000000E+00 -0.74505805969E-08  0.93827000000E+00  0.93827000000E+00 0.  1.
     999903    2    1    2    0    0  0.63582346536E-01  0.51290902822E-02  0.94507541602E-01  0.11577698905E+00  0.20090132278E-01 0.  0.
         14    1    1    2    0    0 -0.45647904613E-02  0.77100708365E-02 -0.43712584711E-01  0.44621436175E-01  0.00000000000E+00 0.  1.
     999901    1    1    2    0    0 -0.59017556075E-01 -0.12839161119E-01 -0.50794956892E-01  0.88353157478E+00  0.88000000000E+00 0.  1.
        -11    1    3    3    0    0  0.20402489611E-01  0.10534897666E-01  0.38759801369E-01  0.45053623321E-01  0.51100000000E-03 0.  1.
         11    1    3    3    0    0  0.43179856925E-01 -0.54058073843E-02  0.55747740233E-01  0.70723365726E-01  0.51100000000E-03 0. -1.
</event>
<event>
 8    1  0.1161093E+005  0.1043930E+01  0.7957747E-01            NaN
         13   -1    0    0    0    0  0.00000000000E+00  0.00000000000E+00  0.74505805969E-08  0.10566000000E+00  0.10566000000E+00 0.  1.
     999900   -1    0    0    0    0 -0.00000000000E+00 -0.00000000000E+00 -0.74505805969E-08  0.93827000000E+00  0.93827000000E+00 0. -1.
     999902    2    1    2    0    0  0.12611078217E-01  0.15497638583E-01  0.12324083046E-01  0.10204544996E+01  0.10201844376E+01 0.  0.
     999903    2    3    3    0    0  0.39650035733E-01  0.11869471978E+00 -0.39580385376E-01  0.13249345507E+00  0.18092730327E-01 0.  0.
         14    1    1    2    0    0 -0.12611078217E-01 -0.15497638583E-01 -0.12324083046E-01  0.23475500386E-01  0.00000000000E+00 0. -1.
     999901    1    3    3    0    0 -0.27038957517E-01 -0.10319708120E+00  0.51904468422E-01  0.88796104455E+00  0.88000000000E+00 0.  1.
        -11    1    4    4    0    0  0.20281284227E-01  0.66584680202E-01 -0.12760296228E-01  0.70766774749E-01  0.51100000000E-03 0. -1.
         11    1    4    4    0    0  0.19368751506E-01  0.52110039582E-01 -0.26820089148E-01  0.61726680318E-01  0.51100000000E-03 0.  1.
</event>
<event>
 8    1  0.1161093E+005  0.1043930E+01  0.7957747E-01            NaN
         13   -1    0    0    0    0  0.00000000000E+00  0.00000000000E+00  0.74505805969E-08  0.10566000000E+00  0.10566000000E+00 0.  1.
     999900   -1    0    0    0    0 -0.00000000000E+00 -0.00000000000E+00 -0.74505805969E-08  0.93827000000E+00  0.93827000000E+00 0. -1.
     999902    2    1    2    0    0 -0.55921049586E-02  0.10412067812E-01 -0.20317691271E-01  0.10204248650E+01  0.10201541127E+01 0.  0.
     999903    2    3    3    0    0  0.10585982451E+00  0.68341003998E-01  0.26384180219E-01  0.13027973128E+00  0.19997203425E-01 0.  0.
         14    1    1    2    0    0  0.55921049586E-02 -0.10412067812E-01  0.20317691271E-01  0.23505135026E-01  0.00000000000E+00 0.  1.
     999901    1    3    3    0    0 -0.11145192947E+00 -0.57928936186E-01 -0.46701871490E-01  0.89014513369E+00  0.88000000000E+00 0.  1.
        -11    1    4    4    0    0  0.30573934633E-01  0.21887627282E-01  0.17159712672E-01  0.41334617054E-01  0.51100000000E-03 0.  1.
         11    1    4    4    0    0  0.75285889878E-01  0.46453376715E-01  0.92244675466E-02  0.88945114231E-01  0.51100000000E-03 0. -1.
</event>
<event>
 8    1  0.1161093E+005  0.1043930E+01  0.7957747E-01            NaN
         13   -1    0    0    0    0  0.00000000000E+00  0.00000000000E+00  0.74505805969E-08  0.10566000000E+00  0.10566000000E+00 0. -1.
     999900   -1    0    0    0    0 -0.00000000000E+00 -0.00000000000E+00 -0.74505805969E-08  0.93827000000E+00  0.93827000000E+00 0. -1.
     999902    2    1    2    0    0  0.11636277216E-01  0.22264593421E-02 -0.19336077892E-01  0.10212530519E+01  0.10210012497E+01 0.  0.
     999903    2    3    3    0    0  0.27116251290E-01  0.34606015116E-01 -0.12520484616E+00  0.13418131783E+00  0.19887312136E-01 0.  0.
         14    1    1    2    0    0 -0.11636277216E-01 -0.22264593421E-02  0.19336077892E-01  0.22676948139E-01  0.00000000000E+00 0. -1.
     999901    1    3    3    0    0 -0.15479974074E-01 -0.32379555774E-01  0.10586876827E+00  0.88707173404E+00  0.88000000000E+00 0.  1.
        -11    1    4    4    0    0  0.20066545441E-01  0.17085774803E-01 -0.48678364088E-01  0.55357331925E-01  0.51100000000E-03 0.  1.
         11    1    4    4    0    0  0.70497058486E-02  0.17520240313E-01 -0.76526482077E-01  0.78823985900E-01  0.51100000000E-03 0. -1.
</event>
<event>
 8    1  0.1161093E+005  0.1043930E+01  0.7957747E-01            NaN
         13   -1    0    0    0    0  0.00000000000E+00  0.00000000000E+00  0.74505805969E-08  0.10566000000E+00  0.10566000000E+00 0. -1.
     999900   -1    0    0    0    0 -0.00000000000E+00 -0.00000000000E+00 -0.74505805969E-08  0.93827000000E+00  0.93827000000E+00 0.  1.
     999902    2    1    2    0    0  0.23056318678E-01  0.42156606038E-02  0.38477464743E-02  0.10201777206E+01  0.10199011770E+01 0.  0.
     999903    2    3    3    0    0 -0.81450445410E-01  0.95979652010E-01 -0.22673254847E-01  0.12886090968E+00  0.15645731070E-01 0.  0.
         14    1    1    2    0    0 -0.23056318678E-01 -0.42156606038E-02 -0.38477464743E-02  0.23752279433E-01  0.00000000000E+00 0.  1.
     999901    1    3    3    0    0  0.10450676409E+00 -0.91763991406E-01  0.26521001321E-01  0.89131681089E+00  0.88000000000E+00 0.  1.
        -11    1    4    4    0    0 -0.31206800826E-01  0.46634693613E-01 -0.55822665882E-02  0.56392214777E-01  0.51100000000E-03 0.  1.
         11    1    4    4    0    0 -0.50243644584E-01  0.49344958397E-01 -0.17090988258E-01  0.72468694903E-01  0.51100000000E-03 0. -1.
</event>
<event>
 8    1  0.1161093E+005  0.1043930E+01  0.7957747E-01            NaN
         13   -1    0    0    0    0  0.00000000000E+00  0.00000000000E+00  0.74505805969E-08  0.10566000000E+00  0.10566000000E+00 0.  1.
     999900   -1    0    0    0    0 -0.00000000000E+00 -0.00000000000E+00 -0.74505805969E-08  0.93827000000E+00  0.93827000000E+00 0.  1.
     999902    2    1    2    0    0  0.19984278397E-02  0.42274716431E-02  0.22791502638E-01  0.10206637622E+01  0.10203985484E+01 0.  0.
     999903    2    3    3    0    0 -0.19435770868E-01 -0.12582628775E+00  0.21825798847E-01  0.13084673728E+00  0.20844646353E-01 0.  0.
         14    1    1    2    0    0 -0.19984278397E-02 -0.42274716431E-02 -0.22791502638E-01  0.23266237831E-01  0.00000000000E+00 0. -1.
     999901    1    3    3    0    0  0.21434198708E-01  0.13005375940E+00  0.96570379142E-03  0.88981702489E+00  0.88000000000E+00 0. -1.
        -11    1    4    4    0    0 -0.21889361240E-01 -0.11237606591E+00  0.14725537520E-01  0.11543234772E+00  0.51100000000E-03 0. -1.
         11    1    4    4    0    0  0.24535903724E-02 -0.13450221843E-01  0.71002613267E-02  0.15414389552E-01  0.51100000000E-03 0.  1.
</event>
<event>
 8    1  0.1161093E+005  0.1043930E+01  0.7957747E-01            NaN
         13   -1    0    0    0    0  0.00000000000E+00  0.00000000000E+00  0.74505805969E-08  0.10566000000E+00  0.10566000000E+00 0.  1.
     999900   -1    0    0    0    0 -0.00000000000E+00 -0.00000000000E+00 -0.74505805969E-08  0.93827000000E+00  0.93827000000E+00 0.  1.
     999902    2    1    2    0    0  0.16090688518E-01 -0.15698541630E-01 -0.67464518565E-02  0.10204593997E+01  0.10201894517E+01 0.  0.
     999903    2    3    3    0    0  0.11776744861E+00 -0.22731812803E-01 -0.53827134536E-01  0.13332681595E+00  0.22198472318E-01 0.  0.
         14    1    1    2    0    0 -0.16090688518E-01  0.15698541630E-01  0.67464518565E-02  0.23470600311E-01  0.00000000000E+00 0.  1.
     999901    1    3    3    0    0 -0.10167676009E+00  0.70332711732E-02  0.47080682680E-01  0.88713258374E+00  0.88000000000E+00 0. -1.
        -11    1    4    4    0    0  0.76359096254E-01 -0.21801873475E-01 -0.26561354295E-01  0.83736491034E-01  0.51100000000E-03 0. -1.
         11    1    4    4    0    0  0.41408352359E-01 -0.92993932880E-03 -0.27265780242E-01  0.49590324918E-01  0.51100000000E-03 0.  1.
</event>
<event>
 8    1  0.1161093E+005  0.1043930E+01  0.7957747E-01            NaN
         13   -1    0    0    0    0  0.00000000000E+00  0.00000000000E+00  0.74505805969E-08  0.10566000000E+00  0.10566000000E+00 0. -1.
     999900   -1    0    0    0    0 -0.00000000000E+00 -0.00000000000E+00 -0.74505805969E-08  0.93827000000E+00  0.93827000000E+00 0. -1.
     999902    2    1    2    0    0 -0.98913375646E-02 -0.10405495258E-01 -0.18012752843E-01  0.10208958481E+01  0.10206359588E+01 0.  0.
     999903    2    3    3    0    0 -0.53132861957E-01 -0.11724677004E+00 -0.28052192171E-01  0.13332293401E+00  0.20449282186E-01 0.  0.
         14    1    1    2    0    0  0.98913375646E-02  0.10405495258E-01  0.18012752843E-01  0.23034151935E-01  0.00000000000E+00 0. -1.
     999901    1    3    3    0    0  0.43241524392E-01  0.10684127478E+00  0.10039439328E-01  0.88757291406E+00  0.88000000000E+00 0.  1.
        -11    1    4    4    0    0 -0.94247432299E-02 -0.22332506514E-01  0.27024709063E-02  0.24395309019E-01  0.51100000000E-03 0. -1.
         11    1    4    4    0    0 -0.43708118727E-01 -0.94914263526E-01 -0.30754663077E-01  0.10892762499E+00  0.51100000000E-03 0.  1.
</event>
<event>
 8    1  0.1161093E+005  0.1043930E+01  0.7957747E-01            NaN
         13   -1    0    0    0    0  0.00000000000E+00  0.00000000000E+00  0.74505805969E-08  0.10566000000E+00  0.10566000000E+00 0.  1.
     999900   -1    0    0    0    0 -0.00000000000E+00 -0.00000000000E+00 -0.74505805969E-08  0.93827000000E+00  0.93827000000E+00 0.  1.
     999902    2    1    2    0    0  0.19346151016E-01  0.42165657357E-02  0.10533593263E-01  0.10215021251E+01  0.10212558847E+01 0.  0.
     999903    2    3    3    0    0 -0.55501666926E-01  0.38815406843E-01 -0.10853141371E+00  0.12966371398E+00  0.21131495969E-01 0.  0.
         14    1    1    2    0    0 -0.19346151016E-01 -0.42165657357E-02 -0.10533593263E-01  0.22427874905E-01  0.00000000000E+00 0. -1.
     999901    1    3    3    0    0  0.74847817943E-01 -0.34598841107E-01  0.11906500697E+00  0.89183841112E+00  0.88000000000E+00 0. -1.
        -11    1    4    4    0    0 -0.38346715895E-01  0.25142609164E-01 -0.53766197327E-01  0.70666020912E-01  0.51100000000E-03 0. -1.
         11    1    4    4    0    0 -0.17154951032E-01  0.13672797678E-01 -0.54765216378E-01  0.58997693067E-01  0.51100000000E-03 0.  1.
</event>
<event>
 8    1  0.1161093E+005  0.1043930E+01  0.7957747E-01            NaN
         13   -1    0    0    0    0  0.00000000000E+00  0.00000000000E+00  0.74505805969E-08  0.10566000000E+00  0.10566000000E+00 0. -1.
     999900   -1    0    0    0    0 -0.00000000000E+00 -0.00000000000E+00 -0.74505805969E-08  0.93827000000E+00  0.93827000000E+00 0. -1.
     999902    2    1    2    0    0 -0.14891132928E-01  0.13289191968E-01 -0.14293458757E-01  0.10193810402E+01  0.10190854006E+01 0.  0.
     999903    2    3    3    0    0  0.10564601843E+00 -0.23445126452E-01  0.63589345335E-01  0.12699976174E+00  0.19354055816E-01 0.  0.
         14    1    1    2    0    0  0.14891132928E-01 -0.13289191968E-01  0.14293458757E-01  0.24548959780E-01  0.00000000000E+00 0. -1.
     999901    1    3    3    0    0 -0.12053715136E+00  0.36734318420E-01 -0.77882804092E-01  0.89238127848E+00  0.88000000000E+00 0.  1.
        -11    1    4    4    0    0  0.24552135451E-01 -0.13100980164E-01  0.20644504345E-01  0.34654000016E-01  0.51100000000E-03 0. -1.
         11    1    4    4    0    0  0.81093882984E-01 -0.10344146288E-01  0.42944840990E-01  0.92345761725E-01  0.51100000000E-03 0.  1.
</event>
<event>
 8    1  0.1161093E+005  0.1043930E+01  0.7957747E-01            NaN
         13   -1    0    0    0    0  0.00000000000E+00  0.00000000000E+00  0.74505805969E-08  0.10566000000E+00  0.10566000000E+00 0.  1.
     999900   -1    0    0    0    0 -0.00000000000E+00 -0.00000000000E+00 -0.74505805969E-08  0.93827000000E+00  0.93827000000E+00 0. -1.
     999902    2    1    2    0    0 -0.18023456395E-01 -0.11945094420E-01  0.72069069919E-02  0.10211381205E+01  0.10208837306E+01 0.  0.
     999903    2    3    3    0    0 -0.10525259506E+00  0.41763656024E-01  0.66560856313E-01  0.13320994562E+00  0.22186263506E-01 0.  0.
         14    1    1    2    0    0  0.18023456395E-01  0.11945094420E-01 -0.72069069919E-02  0.22791879464E-01  0.00000000000E+00 0. -1.
     999901    1    3    3    0    0  0.87229138664E-01 -0.53708750443E-01 -0.59353949321E-01  0.88792817491E+00  0.88000000000E+00 0. -1.
        -11    1    4    4    0    0 -0.53604875622E-01  0.27174508521E-01  0.24018561060E-01  0.64723172050E-01  0.51100000000E-03 0.  1.
         11    1    4    4    0    0 -0.51647719437E-01  0.14589147502E-01  0.42542295254E-01  0.68486773572E-01  0.51100000000E-03 0. -1.
</event>
<event>
 8    1  0.1161093E+005  0.1043930E+01  0.7957747E-01            NaN
         13   -1    0    0    0    0  0.00000000000E+00  0.00000000000E+00  0.74505805969E-08  0.10566000000E+00  0.10566000000E+00 0. -1.
     999900   -1    0    0    0    0 -0.00000000000E+00 -0.00000000000E+00 -0.74505805969E-08  0.93827000000E+00  0.93827000000E+00 0.  1.
     999902    2    1    2    0    0 -0.12206724157E-01  0.20450718585E-01 -0.89567657751E-03  0.10200964471E+01  0.10198179853E+01 0.  0.
     999903    2    3    3    0    0 -0.89055872752E-01 -0.63936790687E-01 -0.66979157258E-01  0.13026833465E+00  0.21558521068E-01 0.  0.
         14    1    1    2    0    0  0.12206724157E-01 -0.20450718585E-01  0.89567657751E-03  0.23833552858E-01  0.00000000000E+00 0.  1.
     999901    1    3    3    0    0  0.76849148594E-01  0.84387509272E-01  0.66083480681E-01  0.88982811249E+00  0.88000000000E+00 0. -1.
        -11    1    4    4    0    0 -0.16991072143E-01 -0.19631574470E-01 -0.81124487542E-02  0.27206032319E-01  0.51100000000E-03 0.  1.
         11    1    4    4    0    0 -0.72064800608E-01 -0.44305216217E-01 -0.58866708504E-01  0.10306230233E+00  0.51100000000E-03 0. -1.
</event>
<event>
 7    1  0.1161093E+005  0.1043930E+01  0.7957747E-01            NaN
         13   -1    0    0    0    0  0.00000000000E+00  0.00000000000E+00  0.74505805969E-08  0.10566000000E+00  0.10566000000E+00 0.  1.
     999900   -1    0    0    0    0 -0.00000000000E+00 -0.00000000000E+00 -0.74505805969E-08  0.93827000000E+00  0.93827000000E+00 0. -1.
     999903    2    1    2    0    0 -0.18659118404E-01 -0.51707994913E-01 -0.57856695106E-01  0.82391576055E-01  0.20471814738E-01 0.  0.
         14    1    1    2    0    0  0.18772273639E-01 -0.34080826309E-01 -0.57964997106E-01  0.69812906178E-01  0.00000000000E+00 0.  1.
     999901    1    1    2    0    0 -0.11315523452E-03  0.85788821222E-01  0.11582169221E+00  0.89172551777E+00  0.88000000000E+00 0.  1.
        -11    1    3    3    0    0 -0.75323328084E-02 -0.34146554913E-01 -0.47972511414E-01  0.59366204379E-01  0.51100000000E-03 0. -1.
         11    1    3    3    0    0 -0.11126785596E-01 -0.17561440000E-01 -0.98841836918E-02  0.23025371676E-01  0.51100000000E-03 0.  1.
</event>
<event>
 8    1  0.1161093E+005  0.1043930E+01  0.7957747E-01            NaN
         13   -1    0    0    0    0  0.00000000000E+00  0.00000000000E+00  0.74505805969E-08  0.10566000000E+00  0.10566000000E+00 0.  1.
     999900   -1    0    0    0    0 -0.00000000000E+00 -0.00000000000E+00 -0.74505805969E-08  0.93827000000E+00  0.93827000000E+00 0. -1.
     999902    2    1    2    0    0  0.20581385326E-02  0.24992363372E-01 -0.62290111747E-03  0.10188453001E+01  0.10185364517E+01 0.  0.
     999903    2    3    3    0    0  0.59106796777E-01  0.35422184015E-01  0.10857664844E+00  0.13020146137E+00  0.20376148057E-01 0.  0.
         14    1    1    2    0    0 -0.20581385326E-02 -0.24992363372E-01  0.62290111747E-03  0.25084699857E-01  0.00000000000E+00 0. -1.
     999901    1    3    3    0    0 -0.57048658245E-01 -0.10429820643E-01 -0.10919954956E+00  0.88864383877E+00  0.88000000000E+00 0. -1.
        -11    1    4    4    0    0  0.20651272213E-01  0.15654634819E-01  0.24545772418E-01  0.35697320627E-01  0.51100000000E-03 0.  1.
         11    1    4    4    0    0  0.38455524564E-01  0.19767549196E-01  0.84030876026E-01  0.94504140742E-01  0.51100000000E-03 0. -1.
</event>
<event>
 8    1  0.1161093E+005  0.1043930E+01  0.7957747E-01            NaN
         13   -1    0    0    0    0  0.00000000000E+00  0.00000000000E+00  0.74505805969E-08  0.10566000000E+00  0.10566000000E+00 0. -1.
     999900   -1    0    0    0    0 -0.00000000000E+00 -0.00000000000E+00 -0.74505805969E-08  0.93827000000E+00  0.93827000000E+00 0.  1.
     999902    2    1    2    0    0 -0.22570855248E-01 -0.84284765190E-03  0.80541650721E-02  0.10199503529E+01  0.10196684260E+01 0.  0.
     999903    2    3    3    0    0 -0.10917816908E+00  0.51421711177E-01  0.52011532928E-01  0.13306554580E+00  0.20908728776E-01 0.  0.
         14    1    1    2    0    0  0.22570855248E-01  0.84284765190E-03 -0.80541650721E-02  0.23979647074E-01  0.00000000000E+00 0.  1.
     999901    1    3    3    0    0  0.86607313827E-01 -0.52264558829E-01 -0.43957367856E-01  0.88688480712E+00  0.88000000000E+00 0.  1.
        -11    1    4    4    0    0 -0.75474320439E-01  0.25185592538E-01  0.30215176134E-01  0.85111133861E-01  0.51100000000E-03 0. -1.
         11    1    4    4    0    0 -0.33703848636E-01  0.26236118640E-01  0.21796356794E-01  0.47954411941E-01  0.51100000000E-03 0.  1.
</event>
<event>
 8    1  0.1161093E+005  0.1043930E+01  0.7957747E-01            NaN
         13   -1    0    0    0    0  0.00000000000E+00  0.00000000000E+00  0.74505805969E-08  0.10566000000E+00  0.10566000000E+00 0.  1.
     999900   -1    0    0    0    0 -0.00000000000E+00 -0.00000000000E+00 -0.74505805969E-08  0.93827000000E+00  0.93827000000E+00 0. -1.
     999902    2    1    2    0    0  0.15693036884E-01 -0.17595558552E-01  0.40413167492E-02  0.10200091445E+01  0.10197286146E+01 0.  0.
     999903    2    3    3    0    0  0.84880149734E-02  0.11263355597E+00  0.58376884886E-01  0.12873820444E+00  0.20181681400E-01 0.  0.
         14    1    1    2    0    0 -0.15693036884E-01  0.17595558552E-01 -0.40413167492E-02  0.23920855513E-01  0.00000000000E+00 0. -1.
     999901    1    3    3    0    0  0.72050219109E-02 -0.13022911452E+00 -0.54335568137E-01  0.89127094005E+00  0.88000000000E+00 0.  1.
        -11    1    4    4    0    0  0.12821403423E-01  0.41731366358E-01  0.23994002228E-01  0.49818355932E-01  0.51100000000E-03 0.  1.
         11    1    4    4    0    0 -0.43333884501E-02  0.70902189613E-01  0.34382882658E-01  0.78919848506E-01  0.51100000000E-03 0. -1.
</event>
<event>
 8    1  0.1161093E+005  0.1043930E+01  0.7957747E-01            NaN
         13   -1    0    0    0    0  0.00000000000E+00  0.00000000000E+00  0.74505805969E-08  0.10566000000E+00  0.10566000000E+00 0.  1.
     999900   -1    0    0    0    0 -0.00000000000E+00 -0.00000000000E+00 -0.74505805969E-08  0.93827000000E+00  0.93827000000E+00 0.  1.
     999902    2    1    2    0    0 -0.11862804734E-01 -0.13914127850E-01  0.15253602527E-01  0.10201182071E+01  0.10198402596E+01 0.  0.
     999903    2    3    3    0    0  0.80629905430E-01  0.85599855566E-01  0.49014315875E-01  0.12905271004E+00  0.20583534315E-01 0.  0.
         14    1    1    2    0    0  0.11862804734E-01  0.13914127850E-01 -0.15253602527E-01  0.23811792877E-01  0.00000000000E+00 0. -1.
     999901    1    3    3    0    0 -0.92492710164E-01 -0.99513983416E-01 -0.33760713348E-01  0.89106549708E+00  0.88000000000E+00 0. -1.
        -11    1    4    4    0    0  0.72204361577E-01  0.84035814304E-01  0.45676643254E-01  0.11984199922E+00  0.51100000000E-03 0.  1.
         11    1    4    4    0    0  0.84255438533E-02  0.15640412614E-02  0.33376726212E-02  0.92107108205E-02  0.51100000000E-03 0. -1.
</event>
<event>
 8    1  0.1161093E+005  0.1043930E+01  0.7957747E-01            NaN
         13   -1    0    0    0    0  0.00000000000E+00  0.00000000000E+00  0.74505805969E-08  0.10566000000E+00  0.10566000000E+00 0. -1.
     999900   -1    0    0    0    0 -0.00000000000E+00 -0.00000000000E+00 -0.74505805969E-08  0.93827000000E+00  0.93827000000E+00 0.  1.
     999902    2    1    2    0    0  0.10843986407E-01  0.17385594232E-01 -0.11832883301E-01  0.10202684689E+01  0.10199940591E+01 0.  0.
     999903    2    3    3    0    0 -0.84309653943E-01 -0.94227254558E-01 -0.30720145294E-02  0.12808665102E+00  0.20244990663E-01 0.  0.
         14    1    1    2    0    0 -0.10843986407E-01 -0.17385594232E-01  0.11832883301E-01  0.23661531126E-01  0.00000000000E+00 0. -1.
     999901    1    3    3    0    0  0.95153640350E-01  0.11161284879E+00 -0.87608687712E-02  0.89218181785E+00  0.88000000000E+00 0. -1.
        -11    1    4    4    0    0 -0.34056082836E-01 -0.39274978778E-01  0.86523693223E-02  0.52701663655E-01  0.51100000000E-03 0. -1.
         11    1    4    4    0    0 -0.50253571107E-01 -0.54952275780E-01 -0.11724383852E-01  0.75384987365E-01  0.51100000000E-03 0.  1.
</event>
<event>
 8    1  0.1161093E+005  0.1043930E+01  0.7957747E-01            NaN
         13   -1    0    0    0    0  0.00000000000E+00  0.00000000000E+00  0.74505805969E-08  0.10566000000E+00  0.10566000000E+00 0. -1.
     999900   -1    0    0    0    0 -0.00000000000E+00 -0.00000000000E+00 -0.74505805969E-08  0.93827000000E+00  0.93827000000E+00 0. -1.
     999902    2    1    2    0    0 -0.38595114698E-02 -0.23145232408E-01  0.41130621978E-02  0.10201074289E+01  0.10198292267E+01 0.  0.
     999903    2    3    3    0    0  0.10591554238E+00 -0.55772156110E-01 -0.51640294030E-01  0.13093730160E+00  0.12215623869E-01 0.  0.
         14    1    1    2    0    0  0.38595114698E-02  0.23145232408E-01 -0.41130621978E-02  0.23822571075E-01  0.00000000000E+00 0. -1.
     999901    1    3    3    0    0 -0.10977505385E+00  0.32626923703E-01  0.55753356227E-01  0.88917012733E+00  0.88000000000E+00 0. -1.
        -11    1    4    4    0    0  0.47398373146E-01 -0.20563926542E-01 -0.17251866461E-01  0.54473561194E-01  0.51100000000E-03 0.  1.
         11    1    4    4    0    0  0.58517169239E-01 -0.35208229568E-01 -0.34388427568E-01  0.76463740405E-01  0.51100000000E-03 0. -1.
</event>
<event>
 8    1  0.1161093E+005  0.1043930E+01  0.7957747E-01            NaN
         13   -1    0    0    0    0  0.00000000000E+00  0.00000000000E+00  0.74505805969E-08  0.10566000000E+00  0.10566000000E+00 0.  1.
     999900   -1    0    0    0    0 -0.00000000000E+00 -0.00000000000E+00 -0.74505805969E-08  0.93827000000E+00  0.93827000000E+00 0.  1.
     999902    2    1    2    0    0 -0.12490743421E-01 -0.14742366411E-01 -0.15009712093E-01  0.10194627260E+01  0.10191690744E+01 0.  0.
     999903    2    3    3    0    0  0.50876210246E-01  0.67226529420E-01  0.92611893380E-01  0.12687285343E+00  0.20296874502E-01 0.  0.
         14    1    1    2    0    0  0.12490743421E-01  0.14742366411E-01  0.15009712093E-01  0.24467273974E-01  0.00000000000E+00 0.  1.
     999901    1    3    3    0    0 -0.63366953667E-01 -0.81968895831E-01 -0.10762160547E+00  0.89258987260E+00  0.88000000000E+00 0. -1.
        -11    1    4    4    0    0  0.43277050574E-01  0.41856289075E-01  0.63091101814E-01  0.87210092826E-01  0.51100000000E-03 0.  1.
         11    1    4    4    0    0  0.75991596714E-02  0.25370240345E-01  0.29520791565E-01  0.39662760601E-01  0.51100000000E-03 0. -1.
</event>
<event>
 8    1  0.1161093E+005  0.1043930E+01  0.7957747E-01            NaN
         13   -1    0    0    0    0  0.00000000000E+00  0.00000000000E+00  0.74505805969E-08  0.10566000000E+00  0.10566000000E+00 0.  1.
     999900   -1    0    0    0    0 -0.00000000000E+00 -0.00000000000E+00 -0.74505805969E-08  0.93827000000E+00  0.93827000000E+00 0. -1.
     999902    2    1    2    0    0  0.12741212570E-01 -0.69298598427E-02 -0.17652482977E-01  0.10210833020E+01  0.10208276730E+01 0.  0.
     999903    2    3    3    0    0 -0.10780842763E+00 -0.70506289745E-01 -0.70954418114E-02  0.13052974979E+00  0.19846317681E-01 0.  0.
         14    1    1    2    0    0 -0.12741212570E-01  0.69298598427E-02  0.17652482977E-01  0.22846698021E-01  0.00000000000E+00 0.  1.
     999901    1    3    3    0    0  0.12054964020E+00  0.63576429902E-01 -0.10557041166E-01  0.89055355218E+00  0.88000000000E+00 0.  1.
        -11    1    4    4    0    0 -0.44501228430E-01 -0.29624880242E-01  0.68148643989E-02  0.53895235030E-01  0.51100000000E-03 0. -1.
         11    1    4    4    0    0 -0.63307199198E-01 -0.40881409503E-01 -0.13910306210E-01  0.76634514764E-01  0.51100000000E-03 0.  1.
</event>
<event>
 8    1  0.1161093E+005  0.1043930E+01  0.7957747E-01            NaN
         13   -1    0    0    0    0  0.00000000000E+00  0.00000000000E+00  0.74505805969E-08  0.10566000000E+00  0.10566000000E+00 0.  1.
     999900   -1    0    0    0    0 -0.00000000000E+00 -0.00000000000E+00 -0.74505805969E-08  0.93827000000E+00  0.93827000000E+00 0.  1.
     999902    2    1    2    0    0 -0.35984963498E-02  0.30906309076E-01  0.18940021915E-01  0.10075037245E+01  0.10068450136E+01 0.  0.
     999903    2    3    3    0    0 -0.11377463972E+00  0.34435729019E-01  0.53318807000E-02  0.12052208947E+00  0.19148290319E-01 0.  0.
         14    1    1    2    0    0  0.35984963498E-02 -0.30906309076E-01 -0.18940021915E-01  0.36426275500E-01  0.00000000000E+00 0. -1.
     999901    1    3    3    0    0  0.11017614337E+00 -0.35294199428E-02  0.13608141215E-01  0.88698163503E+00  0.88000000000E+00 0.  1.
        -11    1    4    4    0    0 -0.72567379304E-01  0.12721949809E-01  0.36224259753E-03  0.73676759475E-01  0.51100000000E-03 0. -1.
         11    1    4    4    0    0 -0.41207260414E-01  0.21713779210E-01  0.49696381025E-02  0.46845329995E-01  0.51100000000E-03 0.  1.
</event>
<event>
 8    1  0.1161093E+005  0.1043930E+01  0.7957747E-01            NaN
         13   -1    0    0    0    0  0.00000000000E+00  0.00000000000E+00  0.74505805969E-08  0.10566000000E+00  0.10566000000E+00 0.  1.
     999900   -1    0    0    0    0 -0.00000000000E+00 -0.00000000000E+00 -0.74505805969E-08  0.93827000000E+00  0.93827000000E+00 0. -1.
     999902    2    1    2    0    0 -0.70701094550E-02  0.84539756604E-03  0.22759624135E-01  0.10200825340E+01  0.10198037431E+01 0.  0.
     999903    2    3    3    0    0  0.11932327002E+00 -0.41152379579E-01  0.23770465443E-01  0.13005999412E+00  0.20469634327E-01 0.  0.
         14    1    1    2    0    0  0.70701094550E-02 -0.84539756604E-03 -0.22759624135E-01  0.23847466019E-01  0.00000000000E+00 0. -1.
     999901    1    3    3    0    0 -0.12639337948E+00  0.41997777145E-01 -0.10108413079E-02  0.89002253986E+00  0.88000000000E+00 0. -1.
        -11    1    4    4    0    0  0.88084255163E-01 -0.38607101188E-01  0.13763294676E-01  0.97154689393E-01  0.51100000000E-03 0. -1.
         11    1    4    4    0    0  0.31239014858E-01 -0.25452783916E-02  0.10007170767E-01  0.32905304727E-01  0.51100000000E-03 0.  1.
</event>
<event>
 8    1  0.1161093E+005  0.1043930E+01  0.7957747E-01            NaN
         13   -1    0    0    0    0  0.00000000000E+00  0.00000000000E+00  0.74505805969E-08  0.10566000000E+00  0.10566000000E+00 0.  1.
     999900   -1    0    0    0    0 -0.00000000000E+00 -0.00000000000E+00 -0.74505805969E-08  0.93827000000E+00  0.93827000000E+00 0. -1.
     999902    2    1    2    0    0 -0.92000906661E-02  0.18018714325E-01 -0.12392807320E-01  0.10202045409E+01  0.10199286289E+01 0.  0.
     999903    2    3    3    0    0  0.65442507242E-01  0.87247211087E-01  0.69543586665E-01  0.13055423051E+00  0.17700255999E-01 0.  0.
         14    1    1    2    0    0  0.92000906661E-02 -0.18018714325E-01  0.12392807320E-01  0.23725459057E-01  0.00000000000E+00 0.  1.
     999901    1    3    3    0    0 -0.74642597908E-01 -0.69228496762E-01 -0.81936393985E-01  0.88965031043E+00  0.88000000000E+00 0. -1.
        -11    1    4    4    0    0  0.48373133449E-01  0.56326727698E-01  0.39059790674E-01  0.83896297066E-01  0.51100000000E-03 0. -1.
         11    1    4    4    0    0  0.17069373793E-01  0.30920483389E-01  0.30483795991E-01  0.46657933449E-01  0.51100000000E-03 0.  1.
</event>
<event>
 8    1  0.1161093E+005  0.1043930E+01  0.7957747E-01            NaN
         13   -1    0    0    0    0  0.00000000000E+00  0.00000000000E+00  0.74505805969E-08  0.10566000000E+00  0.10566000000E+00 0. -1.
     999900   -1    0    0    0    0 -0.00000000000E+00 -0.00000000000E+00 -0.74505805969E-08  0.93827000000E+00  0.93827000000E+00 0.  1.
     999902    2    1    2    0    0  0.13382920222E-01 -0.18653114160E-01 -0.96635613854E-02  0.10190216552E+01  0.10187171875E+01 0.  0.
     999903    2    3    3    0    0  0.10098071779E+00 -0.34852002940E-01  0.72584894834E-01  0.13070831709E+00  0.20107951730E-01 0.  0.
         14    1    1    2    0    0 -0.13382920222E-01  0.18653114160E-01  0.96635613854E-02  0.24908344790E-01  0.00000000000E+00 0.  1.
     999901    1    3    3    0    0 -0.87597797571E-01  0.16198888780E-01 -0.82248456219E-01  0.88831333812E+00  0.88000000000E+00 0.  1.
        -11    1    4    4    0    0  0.45873743468E-01 -0.54740322678E-02  0.28929148704E-01  0.54511669712E-01  0.51100000000E-03 0. -1.
         11    1    4    4    0    0  0.55106974324E-01 -0.29377970672E-01  0.43655746129E-01  0.76196647375E-01  0.51100000000E-03 0.  1.
</event>
<event>
 8    1  0.1161093E+005  0.1043930E+01  0.7957747E-01            NaN
         13   -1    0    0    0    0  0.00000000000E+00  0.00000000000E+00  0.74505805969E-08  0.10566000000E+00  0.10566000000E+00 0.  1.
     999900   -1    0    0    0    0 -0.00000000000E+00 -0.00000000000E+00 -0.74505805969E-08  0.93827000000E+00  0.93827000000E+00 0. -1.
     999902    2    1    2    0    0  0.81362130120E-02 -0.13576848497E-01  0.16896975153E-01  0.10207775369E+01  0.10205149403E+01 0.  0.
     999903    2    3    3    0    0  0.29301887839E-01 -0.12782849286E+00 -0.70881539324E-02  0.13281542599E+00  0.19772992602E-01 0.  0.
         14    1    1    2    0    0 -0.81362130120E-02  0.13576848497E-01 -0.16896975153E-01  0.23152463079E-01  0.00000000000E+00 0. -1.
     999901    1    3    3    0    0 -0.21165674827E-01  0.11425164436E+00  0.23985129086E-01  0.88796211093E+00  0.88000000000E+00 0. -1.
        -11    1    4    4    0    0  0.12014341020E-01 -0.76843899188E-01 -0.12220028899E-01  0.78733217004E-01  0.51100000000E-03 0.  1.
         11    1    4    4    0    0  0.17287546818E-01 -0.50984593674E-01  0.51318749661E-02  0.54082208986E-01  0.51100000000E-03 0. -1.
</event>
<event>
 8    1  0.1161093E+005  0.1043930E+01  0.7957747E-01            NaN
         13   -1    0    0    0    0  0.00000000000E+00  0.00000000000E+00  0.74505805969E-08  0.10566000000E+00  0.10566000000E+00 0.  1.
     999900   -1    0    0    0    0 -0.00000000000E+00 -0.00000000000E+00 -0.74505805969E-08  0.93827000000E+00  0.93827000000E+00 0. -1.
     999902    2    1    2    0    0  0.23302345480E-01 -0.29761979409E-02  0.63398073288E-02  0.10195979180E+01  0.10193075415E+01 0.  0.
     999903    2    3    3    0    0  0.95188697056E-01  0.27734044030E-01  0.85546087995E-01  0.13258923627E+00  0.20777563829E-01 0.  0.
         14    1    1    2    0    0 -0.23302345480E-01  0.29761979409E-02 -0.63398073288E-02  0.24332082032E-01  0.00000000000E+00 0. -1.
     999901    1    3    3    0    0 -0.71886351576E-01 -0.30710241971E-01 -0.79206280666E-01  0.88700868169E+00  0.88000000000E+00 0. -1.
        -11    1    4    4    0    0  0.21396783058E-01  0.12712871343E-01  0.30167217044E-01  0.39112165987E-01  0.51100000000E-03 0. -1.
         11    1    4    4    0    0  0.73791913998E-01  0.15021172687E-01  0.55378870952E-01  0.93477070286E-01  0.51100000000E-03 0.  1.
</event>
<event>
 8    1  0.1161093E+005  0.1043930E+01  0.7957747E-01            NaN
         13   -1    0    0    0    0  0.00000000000E+00  0.00000000000E+00  0.74505805969E-08  0.10566000000E+00  0.10566000000E+00 0. -1.
     999900   -1    0    0    0    0 -0.00000000000E+00 -0.00000000000E+00 -0.74505805969E-08  0.93827000000E+00  0.93827000000E+00 0. -1.
     999902    2    1    2    0    0  0.21715844591E-01  0.75160435974E-03  0.97401659746E-02  0.10201179516E+01  0.10198399980E+01 0.  0.
     999903    2    3    3    0    0 -0.59407510191E-01  0.11303300802E+00  0.17448230943E-02  0.12924644695E+00  0.19896896045E-01 0.  0.
         14    1    1    2    0    0 -0.21715844591E-01 -0.75160435974E-03 -0.97401659746E-02  0.23812048392E-01  0.00000000000E+00 0.  1.
     999901    1    3    3    0    0  0.81123354782E-01 -0.11228140366E+00  0.79953428804E-02  0.89087150466E+00  0.88000000000E+00 0. -1.
        -11    1    4    4    0    0 -0.33833570284E-02  0.16681993133E-01  0.49824790443E-02  0.17743230205E-01  0.51100000000E-03 0.  1.
         11    1    4    4    0    0 -0.56024153163E-01  0.96351014890E-01 -0.32376559500E-02  0.11150321675E+00  0.51100000000E-03 0. -1.
</event>
<event>
 8    1  0.1161093E+005  0.1043930E+01  0.7957747E-01            NaN
         13   -1    0    0    0    0  0.00000000000E+00  0.00000000000E+00  0.74505805969E-08  0.10566000000E+00  0.10566000000E+00 0. -1.
     999900   -1    0    0    0    0 -0.00000000000E+00 -0.00000000000E+00 -0.74505805969E-08  0.93827000000E+00  0.93827000000E+00 0.  1.
     999902    2    1    2    0    0 -0.10263173538E-01  0.50794886312E-02 -0.20259731120E-01  0.10206578999E+01  0.10203925510E+01 0.  0.
     999903    2    3    3    0    0 -0.11518830279E+00 -0.61059308337E-01  0.54787025672E-02  0.13158754830E+00  0.16990657789E-01 0.  0.
         14    1    1    2    0    0  0.10263173538E-01 -0.50794886312E-02  0.20259731120E-01  0.23272100053E-01  0.00000000000E+00 0. -1.
     999901    1    3    3    0    0  0.10492512925E+00  0.66138796968E-01 -0.25738433687E-01  0.88907035165E+00  0.88000000000E+00 0.  1.
        -11    1    4    4    0    0 -0.96701804247E-01 -0.44045496709E-01  0.62642130596E-02  0.10644597790E+00  0.51100000000E-03 0. -1.
         11    1    4    4    0    0 -0.18486498539E-01 -0.17013811627E-01 -0.78551049231E-03  0.25141570398E-01  0.51100000000E-03 0.  1.
</event>
<event>
 8    1  0.1161093E+005  0.1043930E+01  0.7957747E-01            NaN
         13   -1    0    0    0    0  0.00000000000E+00  0.00000000000E+00  0.74505805969E-08  0.10566000000E+00  0.10566000000E+00 0.  1.
     999900   -1    0    0    0    0 -0.00000000000E+00 -0.00000000000E+00 -0.74505805969E-08  0.93827000000E+00  0.93827000000E+00 0. -1.
     999902    2    1    2    0    0 -0.16438838406E-01  0.14608978052E-01  0.21721199937E-02  0.10218307748E+01  0.10215917759E+01 0.  0.
     999903    2    3    3    0    0 -0.80946403110E-01  0.14427591996E-01  0.10344932872E+00  0.13367632215E+00  0.20177212468E-01 0.  0.
         14    1    1    2    0    0  0.16438838406E-01 -0.14608978052E-01 -0.21721199937E-02  0.22099225171E-01  0.00000000000E+00 0. -1.
     999901    1    3    3    0    0  0.64507564703E-01  0.18138605620E-03 -0.10127720873E+00  0.88815445268E+00  0.88000000000E+00 0. -1.
        -11    1    4    4    0    0 -0.66404577280E-01  0.56111201692E-02  0.73367409121E-01  0.99116549553E-01  0.51100000000E-03 0. -1.
         11    1    4    4    0    0 -0.14541825830E-01  0.88164718264E-02  0.30081919604E-01  0.34559772597E-01  0.51100000000E-03 0.  1.
</event>
<event>
 8    1  0.1161093E+005  0.1043930E+01  0.7957747E-01            NaN
         13   -1    0    0    0    0  0.00000000000E+00  0.00000000000E+00  0.74505805969E-08  0.10566000000E+00  0.10566000000E+00 0. -1.
     999900   -1    0    0    0    0 -0.00000000000E+00 -0.00000000000E+00 -0.74505805969E-08  0.93827000000E+00  0.93827000000E+00 0.  1.
     999902    2    1    2    0    0 -0.62469438875E-02 -0.15563033690E-01  0.19251677961E-01  0.10183984621E+01  0.10180783703E+01 0.  0.
     999903    2    3    3    0    0  0.85017708368E-01 -0.96006090912E-01  0.77041133874E-02  0.12995394018E+00  0.19582976693E-01 0.  0.
         14    1    1    2    0    0  0.62469438875E-02  0.15563033690E-01 -0.19251677961E-01  0.25531537946E-01  0.00000000000E+00 0.  1.
     999901    1    3    3    0    0 -0.91264652255E-01  0.80443057221E-01  0.11547564573E-01  0.88844452188E+00  0.88000000000E+00 0. -1.
        -11    1    4    4    0    0  0.24313397007E-01 -0.32256508406E-01  0.10982589045E-01  0.41862895166E-01  0.51100000000E-03 0.  1.
         11    1    4    4    0    0  0.60704311360E-01 -0.63749582506E-01 -0.32784756576E-02  0.88091045010E-01  0.51100000000E-03 0. -1.
</event>
<event>
 8    1  0.1161093E+005  0.1043930E+01  0.7957747E-01            NaN
         13   -1    0    0    0    0  0.00000000000E+00  0.00000000000E+00  0.74505805969E-08  0.10566000000E+00  0.10566000000E+00 0. -1.
     999900   -1    0    0    0    0 -0.00000000000E+00 -0.00000000000E+00 -0.74505805969E-08  0.93827000000E+00  0.93827000000E+00 0.  1.
     999902    2    1    2    0    0  0.12979857461E-01  0.47553250448E-02  0.72932199340E-02  0.10283005127E+01  0.10281817269E+01 0.  0.
     999903    2    3    3    0    0 -0.10373093333E+00  0.41670174173E-01  0.76943548194E-01  0.13710172288E+00  0.19495200979E-01 0.  0.
         14    1    1    2    0    0 -0.12979857461E-01 -0.47553250448E-02 -0.72932199340E-02  0.15629487291E-01  0.00000000000E+00 0.  1.
     999901    1    3    3    0    0  0.11671079079E+00 -0.36914849128E-01 -0.69650328260E-01  0.89119878983E+00  0.88000000000E+00 0. -1.
        -11    1    4    4    0    0 -0.43532286522E-01  0.11116968944E-01  0.39928473670E-01  0.60109825312E-01  0.51100000000E-03 0.  1.
         11    1    4    4    0    0 -0.60198646809E-01  0.30553205229E-01  0.37015074523E-01  0.76991897563E-01  0.51100000000E-03 0. -1.
</event>
<event>
 8    1  0.1161093E+005  0.1043930E+01  0.7957747E-01            NaN
         13   -1    0    0    0    0  0.00000000000E+00  0.00000000000E+00  0.74505805969E-08  0.10566000000E+00  0.10566000000E+00 0. -1.
     999900   -1    0    0    0    0 -0.00000000000E+00 -0.00000000000E+00 -0.74505805969E-08  0.93827000000E+00  0.93827000000E+00 0. -1.
     999902    2    1    2    0    0  0.13236868748E-01 -0.11607833654E-01 -0.14538858520E-01  0.10210972406E+01  0.10208419269E+01 0.  0.
     999903    2    3    3    0    0 -0.11035345872E+00  0.62922375527E-01  0.92289332192E-02  0.12902424521E+00  0.20614835686E-01 0.  0.
         14    1    1    2    0    0 -0.13236868748E-01  0.11607833654E-01  0.14538858520E-01  0.22832759436E-01  0.00000000000E+00 0. -1.
     999901    1    3    3    0    0  0.12359032746E+00 -0.74530209181E-01 -0.23767791739E-01  0.89207299536E+00  0.88000000000E+00 0. -1.
        -11    1    4    4    0    0 -0.41334694712E-01  0.22641548168E-01 -0.64929996247E-02  0.47577482652E-01  0.51100000000E-03 0. -1.
         11    1    4    4    0    0 -0.69018764003E-01  0.40280827359E-01  0.15721932844E-01  0.81446762555E-01  0.51100000000E-03 0.  1.
</event>
<event>
 8    1  0.1161093E+005  0.1043930E+01  0.7957747E-01            NaN
         13   -1    0    0    0    0  0.00000000000E+00  0.00000000000E+00  0.74505805969E-08  0.10566000000E+00  0.10566000000E+00 0.  1.
     999900   -1    0    0    0    0 -0.00000000000E+00 -0.00000000000E+00 -0.74505805969E-08  0.93827000000E+00  0.93827000000E+00 0. -1.
     999902    2    1    2    0    0 -0.16685396330E-01 -0.15373303767E-01 -0.33499599179E-02  0.10209961135E+01  0.10207385075E+01 0.  0.
     999903    2    3    3    0    0 -0.96039571439E-01 -0.76786939947E-01 -0.48245838469E-01  0.13415657911E+00  0.23462594905E-01 0.  0.
         14    1    1    2    0    0  0.16685396330E-01  0.15373303767E-01  0.33499599179E-02  0.22933886519E-01  0.00000000000E+00 0.  1.
     999901    1    3    3    0    0  0.79354175109E-01  0.61413636180E-01  0.44895878551E-01  0.88683953437E+00  0.88000000000E+00 0.  1.
        -11    1    4    4    0    0 -0.78023753660E-01 -0.72673236963E-01 -0.42661352025E-01  0.11484492842E+00  0.51100000000E-03 0. -1.
         11    1    4    4    0    0 -0.18015817779E-01 -0.41137029839E-02 -0.55844864438E-02  0.19311650689E-01  0.51100000000E-03 0.  1.
</event>
<event>
 8    1  0.1161093E+005  0.1043930E+01  0.7957747E-01            NaN
         13   -1    0    0    0    0  0.00000000000E+00  0.00000000000E+00  0.74505805969E-08  0.10566000000E+00  0.10566000000E+00 0. -1.
     999900   -1    0    0    0    0 -0.00000000000E+00 -0.00000000000E+00 -0.74505805969E-08  0.93827000000E+00  0.93827000000E+00 0.  1.
     999902    2    1    2    0    0  0.19634796321E-01  0.44256818901E-02  0.10601354576E-01  0.10211813604E+01  0.10209279456E+01 0.  0.
     999903    2    3    3    0    0 -0.25037492476E-01  0.89634322780E-01  0.91700146937E-01  0.13223077681E+00  0.20368444650E-01 0.  0.
         14    1    1    2    0    0 -0.19634796321E-01 -0.44256818901E-02 -0.10601354576E-01  0.22748639643E-01  0.00000000000E+00 0.  1.
     999901    1    3    3    0    0  0.44672288797E-01 -0.85208640890E-01 -0.81098792362E-01  0.88895058355E+00  0.88000000000E+00 0.  1.
        -11    1    4    4    0    0 -0.28227989718E-01  0.72066265309E-01  0.73898640422E-01  0.10701231787E+00  0.51100000000E-03 0. -1.
         11    1    4    4    0    0  0.31904972415E-02  0.17568057471E-01  0.17801506515E-01  0.25218458937E-01  0.51100000000E-03 0.  1.
</event>
<event>
 8    1  0.1161093E+005  0.1043930E+01  0.7957747E-01            NaN
         13   -1    0    0    0    0  0.00000000000E+00  0.00000000000E+00  0.74505805969E-08  0.10566000000E+00  0.10566000000E+00 0. -1.
     999900   -1    0    0    0    0 -0.00000000000E+00 -0.00000000000E+00 -0.74505805969E-08  0.93827000000E+00  0.93827000000E+00 0. -1.
     999902    2    1    2    0    0 -0.20131738600E-01  0.36592406614E-02 -0.11909947788E-01  0.10202546162E+01  0.10199798812E+01 0.  0.
     999903    2    3    3    0    0 -0.11428684401E+00 -0.14407038415E-01  0.61360326119E-01  0.13202035243E+00  0.19880602733E-01 0.  0.
         14    1    1    2    0    0  0.20131738600E-01 -0.36592406614E-02  0.11909947788E-01  0.23675383790E-01  0.00000000000E+00 0. -1.
     999901    1    3    3    0    0  0.94155105409E-01  0.18066279076E-01 -0.73270273907E-01  0.88823426378E+00  0.88000000000E+00 0. -1.
        -11    1    4    4    0    0 -0.44701248024E-01 -0.17007236715E-02  0.13938636380E-01  0.46857664699E-01  0.51100000000E-03 0. -1.
         11    1    4    4    0    0 -0.69585595984E-01 -0.12706314744E-01  0.47421689739E-01  0.85162687731E-01  0.51100000000E-03 0.  1.
</event>
<event>
 8    1  0.1161093E+005  0.1043930E+01  0.7957747E-01            NaN
         13   -1    0    0    0    0  0.00000000000E+00  0.00000000000E+00  0.74505805969E-08  0.10566000000E+00  0.10566000000E+00 0.  1.
     999900   -1    0    0    0    0 -0.00000000000E+00 -0.00000000000E+00 -0.74505805969E-08  0.93827000000E+00  0.93827000000E+00 0. -1.
     999902    2    1    2    0    0 -0.23633155762E-02 -0.93618121711E-02 -0.21727450506E-01  0.10201537326E+01  0.10198766235E+01 0.  0.
     999903    2    3    3    0    0  0.10647354588E+00  0.63316283927E-02 -0.74719305459E-01  0.13172822461E+00  0.19815273455E-01 0.  0.
         14    1    1    2    0    0  0.23633155762E-02  0.93618121711E-02  0.21727450506E-01  0.23776267435E-01  0.00000000000E+00 0.  1.
     999901    1    3    3    0    0 -0.10883686145E+00 -0.15693440564E-01  0.52991854953E-01  0.88842550795E+00  0.88000000000E+00 0.  1.
        -11    1    4    4    0    0  0.77679995913E-01 -0.35763310846E-02 -0.57773708972E-01  0.96876387621E-01  0.51100000000E-03 0.  1.
         11    1    4    4    0    0  0.28793549963E-01  0.99079594773E-02 -0.16945596487E-01  0.34851836993E-01  0.51100000000E-03 0. -1.
</event>
<event>
 8    1  0.1161093E+005  0.1043930E+01  0.7957747E-01            NaN
         13   -1    0    0    0    0  0.00000000000E+00  0.00000000000E+00  0.74505805969E-08  0.10566000000E+00  0.10566000000E+00 0. -1.
     999900   -1    0    0    0    0 -0.00000000000E+00 -0.00000000000E+00 -0.74505805969E-08  0.93827000000E+00  0.93827000000E+00 0.  1.
     999902    2    1    2    0    0 -0.81331468134E-02 -0.19308455629E-01  0.11631143363E-01  0.10199665271E+01  0.10196849849E+01 0.  0.
     999903    2    3    3    0    0  0.45209883351E-01 -0.11770457148E+00  0.36185289093E-01  0.13253755502E+00  0.18934852619E-01 0.  0.
         14    1    1    2    0    0  0.81331468134E-02  0.19308455629E-01 -0.11631143363E-01  0.23963472866E-01  0.00000000000E+00 0. -1.
     999901    1    3    3    0    0 -0.53343030164E-01  0.98396115849E-01 -0.24554145730E-01  0.88742897212E+00  0.88000000000E+00 0.  1.
        -11    1    4    4    0    0  0.24444493555E-01 -0.70322482400E-01  0.30625760360E-01  0.80504553378E-01  0.51100000000E-03 0. -1.
         11    1    4    4    0    0  0.20765389796E-01 -0.47382089078E-01  0.55595287333E-02  0.52033001638E-01  0.51100000000E-03 0.  1.
</event>
<event>
 8    1  0.1161093E+005  0.1043930E+01  0.7957747E-01            NaN
         13   -1    0    0    0    0  0.00000000000E+00  0.00000000000E+00  0.74505805969E-08  0.10566000000E+00  0.10566000000E+00 0. -1.
     999900   -1    0    0    0    0 -0.00000000000E+00 -0.00000000000E+00 -0.74505805969E-08  0.93827000000E+00  0.93827000000E+00 0.  1.
     999902    2    1    2    0    0 -0.11189619464E-01  0.18390348434E-01  0.10799344589E-01  0.10198460148E+01  0.10195615997E+01 0.  0.
     999903    2    3    3    0    0 -0.12744410273E+00  0.28501382439E-01 -0.39966669304E-03  0.13207196937E+00  0.19710840655E-01 0.  0.
         14    1    1    2    0    0  0.11189619464E-01 -0.18390348434E-01 -0.10799344589E-01  0.24083985194E-01  0.00000000000E+00 0.  1.
     999901    1    3    3    0    0  0.11625448327E+00 -0.10111034005E-01  0.11199011282E-01  0.88777404543E+00  0.88000000000E+00 0.  1.
        -11    1    4    4    0    0 -0.57714439199E-01  0.32131910051E-02  0.22430457396E-02  0.57849576175E-01  0.51100000000E-03 0. -1.
         11    1    4    4    0    0 -0.69729663531E-01  0.25288191434E-01 -0.26427124326E-02  0.74222393199E-01  0.51100000000E-03 0.  1.
</event>
<event>
 8    1  0.1161093E+005  0.1043930E+01  0.7957747E-01            NaN
         13   -1    0    0    0    0  0.00000000000E+00  0.00000000000E+00  0.74505805969E-08  0.10566000000E+00  0.10566000000E+00 0.  1.
     999900   -1    0    0    0    0 -0.00000000000E+00 -0.00000000000E+00 -0.74505805969E-08  0.93827000000E+00  0.93827000000E+00 0.  1.
     999902    2    1    2    0    0  0.11144950729E-01  0.79961843533E-02 -0.19441375871E-01  0.10201368080E+01  0.10198592996E+01 0.  0.
     999903    2    3    3    0    0 -0.22938176505E-01  0.25257434182E-01 -0.12679821297E+00  0.13278958125E+00  0.19778477015E-01 0.  0.
         14    1    1    2    0    0 -0.11144950729E-01 -0.79961843533E-02  0.19441375871E-01  0.23793192025E-01  0.00000000000E+00 0.  1.
     999901    1    3    3    0    0  0.34083127234E-01 -0.17261249829E-01  0.10735683710E+00  0.88734722673E+00  0.88000000000E+00 0. -1.
        -11    1    4    4    0    0 -0.11496914704E-01  0.24235610635E-01 -0.10176152788E+00  0.10523884049E+00  0.51100000000E-03 0. -1.
         11    1    4    4    0    0 -0.11441261801E-01  0.10218235469E-02 -0.25036685087E-01  0.27550740754E-01  0.51100000000E-03 0.  1.
</event>
<event>
 8    1  0.1161093E+005  0.1043930E+01  0.7957747E-01            NaN
         13   -1    0    0    0    0  0.00000000000E+00  0.00000000000E+00  0.74505805969E-08  0.10566000000E+00  0.10566000000E+00 0. -1.
     999900   -1    0    0    0    0 -0.00000000000E+00 -0.00000000000E+00 -0.74505805969E-08  0.93827000000E+00  0.93827000000E+00 0. -1.
     999902    2    1    2    0    0  0.13716372946E-01  0.39923748003E-02  0.18072968125E-01  0.10208928535E+01  0.10206328959E+01 0.  0.
     999903    2    3    3    0    0 -0.35614217568E-01  0.12197096159E+00 -0.12485634176E-01  0.13112530952E+00  0.29877546255E-01 0.  0.
         14    1    1    2    0    0 -0.13716372946E-01 -0.39923748003E-02 -0.18072968125E-01  0.23037146529E-01  0.00000000000E+00 0.  1.
     999901    1    3    3    0    0  0.49330590514E-01 -0.11797858679E+00  0.30558602301E-01  0.88976754396E+00  0.88000000000E+00 0.  1.
        -11    1    4    4    0    0 -0.27824994458E-01  0.77452356305E-01 -0.21444101363E-01  0.85048271106E-01  0.51100000000E-03 0. -1.
         11    1    4    4    0    0 -0.77892231100E-02  0.44518605287E-01  0.89584671864E-02  0.46077038410E-01  0.51100000000E-03 0.  1.
</event>
<event>
 8    1  0.1161093E+005  0.1043930E+01  0.7957747E-01            NaN
         13   -1    0    0    0    0  0.00000000000E+00  0.00000000000E+00  0.74505805969E-08  0.10566000000E+00  0.10566000000E+00 0. -1.
     999900   -1    0    0    0    0 -0.00000000000E+00 -0.00000000000E+00 -0.74505805969E-08  0.93827000000E+00  0.93827000000E+00 0.  1.
     999902    2    1    2    0    0 -0.10678575904E-01  0.12219232613E-01  0.17058902349E-01  0.10203854087E+01  0.10201137361E+01 0.  0.
     999903    2    3    3    0    0 -0.31940658103E-01  0.11121429472E+00  0.63280934977E-01  0.13337437454E+00  0.19885222202E-01 0.  0.
         14    1    1    2    0    0  0.10678575904E-01 -0.12219232613E-01 -0.17058902349E-01  0.23544591276E-01  0.00000000000E+00 0.  1.
     999901    1    3    3    0    0  0.21262082199E-01 -0.98995062110E-01 -0.46222032628E-01  0.88701103418E+00  0.88000000000E+00 0. -1.
        -11    1    4    4    0    0 -0.16156948914E-01  0.54424828130E-01  0.42327552790E-01  0.70816606537E-01  0.51100000000E-03 0.  1.
         11    1    4    4    0    0 -0.15783709189E-01  0.56789466593E-01  0.20953382187E-01  0.62557768005E-01  0.51100000000E-03 0. -1.
</event>
<event>
 8    1  0.1161093E+005  0.1043930E+01  0.7957747E-01            NaN
         13   -1    0    0    0    0  0.00000000000E+00  0.00000000000E+00  0.74505805969E-08  0.10566000000E+00  0.10566000000E+00 0.  1.
     999900   -1    0    0    0    0 -0.00000000000E+00 -0.00000000000E+00 -0.74505805969E-08  0.93827000000E+00  0.93827000000E+00 0. -1.
     999902    2    1    2    0    0  0.20486913031E-01  0.24353471655E-02  0.95594633337E-02  0.10211917534E+01  0.10209385727E+01 0.  0.
     999903    2    3    3    0    0  0.76225581481E-01  0.62687343175E-01  0.88417709086E-01  0.13386107930E+00  0.19001447476E-01 0.  0.
         14    1    1    2    0    0 -0.20486913031E-01 -0.24353471655E-02 -0.95594633337E-02  0.22738246647E-01  0.00000000000E+00 0. -1.
     999901    1    3    3    0    0 -0.55738668450E-01 -0.60251996009E-01 -0.78858245753E-01  0.88733067405E+00  0.88000000000E+00 0. -1.
        -11    1    4    4    0    0  0.49555572225E-01  0.33527086033E-01  0.43154518504E-01  0.73772581795E-01  0.51100000000E-03 0.  1.
         11    1    4    4    0    0  0.26670009256E-01  0.29160257141E-01  0.45263190582E-01  0.60088497509E-01  0.51100000000E-03 0. -1.
</event>
<event>
 8    1  0.1161093E+005  0.1043930E+01  0.7957747E-01            NaN
         13   -1    0    0    0    0  0.00000000000E+00  0.00000000000E+00  0.74505805969E-08  0.10566000000E+00  0.10566000000E+00 0. -1.
     999900   -1    0    0    0    0 -0.00000000000E+00 -0.00000000000E+00 -0.74505805969E-08  0.93827000000E+00  0.93827000000E+00 0. -1.
     999902    2    1    2    0    0  0.10512222012E-01 -0.62314797033E-03 -0.20883544689E-01  0.10205415934E+01  0.10202735546E+01 0.  0.
     999903    2    3    3    0    0 -0.10753042592E+00  0.38299924084E-01 -0.60551131720E-01  0.13092224236E+00  0.21083579132E-01 0.  0.
         14    1    1    2    0    0 -0.10512222012E-01  0.62314797033E-03  0.20883544689E-01  0.23388406611E-01  0.00000000000E+00 0. -1.
     999901    1    3    3    0    0  0.11804264793E+00 -0.38923072055E-01  0.39667587031E-01  0.88961935103E+00  0.88000000000E+00 0.  1.
        -11    1    4    4    0    0 -0.67396715171E-01  0.34082923414E-01 -0.43039919745E-01  0.86929044036E-01  0.51100000000E-03 0. -1.
         11    1    4    4    0    0 -0.40133710745E-01  0.42170006699E-02 -0.17511211974E-01  0.43993198322E-01  0.51100000000E-03 0.  1.
</event>
<event>
 8    1  0.1161093E+005  0.1043930E+01  0.7957747E-01            NaN
         13   -1    0    0    0    0  0.00000000000E+00  0.00000000000E+00  0.74505805969E-08  0.10566000000E+00  0.10566000000E+00 0.  1.
     999900   -1    0    0    0    0 -0.00000000000E+00 -0.00000000000E+00 -0.74505805969E-08  0.93827000000E+00  0.93827000000E+00 0.  1.
     999902    2    1    2    0    0 -0.98206052366E-02  0.10523371625E-01  0.18625859380E-01  0.10203904954E+01  0.10201189415E+01 0.  0.
     999903    2    3    3    0    0 -0.64632209876E-01  0.75924684305E-01 -0.82625721199E-01  0.13048402491E+00  0.16037166641E-01 0.  0.
         14    1    1    2    0    0  0.98206052366E-02 -0.10523371625E-01 -0.18625859380E-01  0.23539504566E-01  0.00000000000E+00 0. -1.
     999901    1    3    3    0    0  0.54811604639E-01 -0.65401312680E-01  0.10125158058E+00  0.88990647052E+00  0.88000000000E+00 0. -1.
        -11    1    4    4    0    0 -0.36680526563E-01  0.36238698240E-01 -0.51133570783E-01  0.72619607965E-01  0.51100000000E-03 0.  1.
         11    1    4    4    0    0 -0.27951683313E-01  0.39685986065E-01 -0.31492150417E-01  0.57864416949E-01  0.51100000000E-03 0. -1.
</event>
<event>
 8    1  0.1161093E+005  0.1043930E+01  0.7957747E-01            NaN
         13   -1    0    0    0    0  0.00000000000E+00  0.00000000000E+00  0.74505805969E-08  0.10566000000E+00  0.10566000000E+00 0.  1.
     999900   -1    0    0    0    0 -0.00000000000E+00 -0.00000000000E+00 -0.74505805969E-08  0.93827000000E+00  0.93827000000E+00 0. -1.
     999902    2    1    2    0    0 -0.10298771430E-01  0.33429355685E-02 -0.19828003039E-01  0.10213381958E+01  0.10210883021E+01 0.  0.
     999903    2    3    3    0    0  0.10627376483E+00  0.27537357670E-01 -0.70241100487E-01  0.13189117286E+00  0.20224987594E-01 0.  0.
         14    1    1    2    0    0  0.10298771430E-01 -0.33429355685E-02  0.19828003039E-01  0.22591804171E-01  0.00000000000E+00 0.  1.
     999901    1    3    3    0    0 -0.11657253626E+00 -0.24194422101E-01  0.50413097448E-01  0.88944702297E+00  0.88000000000E+00 0.  1.
        -11    1    4    4    0    0  0.31735961223E-01  0.17285457814E-01 -0.18731315608E-01  0.40707267066E-01  0.51100000000E-03 0.  1.
         11    1    4    4    0    0  0.74537803606E-01  0.10251899855E-01 -0.51509784879E-01  0.91183905797E-01  0.51100000000E-03 0. -1.
</event>
<event>
 8    1  0.1161093E+005  0.1043930E+01  0.7957747E-01            NaN
         13   -1    0    0    0    0  0.00000000000E+00  0.00000000000E+00  0.74505805969E-08  0.10566000000E+00  0.10566000000E+00 0. -1.
     999900   -1    0    0    0    0 -0.00000000000E+00 -0.00000000000E+00 -0.74505805969E-08  0.93827000000E+00  0.93827000000E+00 0.  1.
     999902    2    1    2    0    0  0.19829054415E-02 -0.20408155245E-01  0.10324364904E-01  0.10209731443E+01  0.10207150161E+01 0.  0.
     999903    2    3    3    0    0 -0.21607602994E-01 -0.11772883538E+00  0.55673518166E-01  0.13413360265E+00  0.23776365319E-01 0.  0.
         14    1    1    2    0    0 -0.19829054415E-02  0.20408155245E-01 -0.10324364904E-01  0.22956855733E-01  0.00000000000E+00 0. -1.
     999901    1    3    3    0    0  0.23590508435E-01  0.97320680137E-01 -0.45349153263E-01  0.88683954162E+00  0.88000000000E+00 0. -1.
        -11    1    4    4    0    0 -0.15723937462E-01 -0.10599304164E+00  0.41778162392E-01  0.11501062150E+00  0.51100000000E-03 0.  1.
         11    1    4    4    0    0 -0.58836655316E-02 -0.11735793746E-01  0.13895355774E-01  0.19122981149E-01  0.51100000000E-03 0. -1.
</event>
<event>
 8    1  0.1161093E+005  0.1043930E+01  0.7957747E-01            NaN
         13   -1    0    0    0    0  0.00000000000E+00  0.00000000000E+00  0.74505805969E-08  0.10566000000E+00  0.10566000000E+00 0. -1.
     999900   -1    0    0    0    0 -0.00000000000E+00 -0.00000000000E+00 -0.74505805969E-08  0.93827000000E+00  0.93827000000E+00 0.  1.
     999902    2    1    2    0    0 -0.19460912596E-01  0.32154738361E-02 -0.13734987250E-01  0.10198942711E+01  0.10196110081E+01 0.  0.
     999903    2    3    3    0    0  0.41279088673E-01 -0.11848053681E+00 -0.73197530690E-02  0.12942224904E+00  0.30902087252E-01 0.  0.
         14    1    1    2    0    0  0.19460912596E-01 -0.32154738361E-02  0.13734987250E-01  0.24035728943E-01  0.00000000000E+00 0. -1.
     999901    1    3    3    0    0 -0.60740001270E-01  0.12169601065E+00 -0.64152341813E-02  0.89047202202E+00  0.88000000000E+00 0. -1.
        -11    1    4    4    0    0  0.10651824507E-01 -0.65811466968E-01  0.63729701917E-02  0.66973774120E-01  0.51100000000E-03 0. -1.
         11    1    4    4    0    0  0.30627264166E-01 -0.52669069846E-01 -0.13692723261E-01  0.62448474922E-01  0.51100000000E-03 0.  1.
</event>
<event>
 8    1  0.1161093E+005  0.1043930E+01  0.7957747E-01            NaN
         13   -1    0    0    0    0  0.00000000000E+00  0.00000000000E+00  0.74505805969E-08  0.10566000000E+00  0.10566000000E+00 0. -1.
     999900   -1    0    0    0    0 -0.00000000000E+00 -0.00000000000E+00 -0.74505805969E-08  0.93827000000E+00  0.93827000000E+00 0. -1.
     999902    2    1    2    0    0  0.16969697793E-01  0.22153939741E-02 -0.15448721139E-01  0.10208748141E+01  0.10206144445E+01 0.  0.
     999903    2    3    3    0    0 -0.78657170748E-01  0.93562583670E-01 -0.41494230694E-01  0.13061239454E+00  0.19922822425E-01 0.  0.
         14    1    1    2    0    0 -0.16969697793E-01 -0.22153939741E-02  0.15448721139E-01  0.23055185935E-01  0.00000000000E+00 0. -1.
     999901    1    3    3    0    0  0.95626868541E-01 -0.91347189696E-01  0.26045509555E-01  0.89026241953E+00  0.88000000000E+00 0. -1.
        -11    1    4    4    0    0 -0.44643852599E-01  0.38942140830E-01 -0.15708660956E-01  0.61291003070E-01  0.51100000000E-03 0.  1.
         11    1    4    4    0    0 -0.34013318149E-01  0.54620442840E-01 -0.25785569738E-01  0.69321391469E-01  0.51100000000E-03 0. -1.
</event>
<event>
 8    1  0.1161093E+005  0.1043930E+01  0.7957747E-01            NaN
         13   -1    0    0    0    0  0.00000000000E+00  0.00000000000E+00  0.74505805969E-08  0.10566000000E+00  0.10566000000E+00 0. -1.
     999900   -1    0    0    0    0 -0.00000000000E+00 -0.00000000000E+00 -0.74505805969E-08  0.93827000000E+00  0.93827000000E+00 0. -1.
     999902    2    1    2    0    0 -0.30374782729E-01 -0.60007844640E-02 -0.77635391818E-05  0.10129681380E+01  0.10124948452E+01 0.  0.
     999903    2    3    3    0    0 -0.12873653174E-01  0.10646829510E+00  0.58409062217E-01  0.12371670619E+00  0.19823623103E-01 0.  0.
         14    1    1    2    0    0  0.30374782729E-01  0.60007844640E-02  0.77635391818E-05  0.30961862029E-01  0.00000000000E+00 0.  1.
     999901    1    3    3    0    0 -0.17501129556E-01 -0.11246907957E+00 -0.58416825756E-01  0.88925143178E+00  0.88000000000E+00 0.  1.
        -11    1    4    4    0    0 -0.12519195392E-01  0.30896302784E-01  0.20857502471E-01  0.39326941266E-01  0.51100000000E-03 0.  1.
         11    1    4    4    0    0 -0.35445778121E-03  0.75571992320E-01  0.37551559746E-01  0.84389764923E-01  0.51100000000E-03 0. -1.
</event>
<event>
 8    1  0.1161093E+005  0.1043930E+01  0.7957747E-01            NaN
         13   -1    0    0    0    0  0.00000000000E+00  0.00000000000E+00  0.74505805969E-08  0.10566000000E+00  0.10566000000E+00 0.  1.
     999900   -1    0    0    0    0 -0.00000000000E+00 -0.00000000000E+00 -0.74505805969E-08  0.93827000000E+00  0.93827000000E+00 0.  1.
     999902    2    1    2    0    0  0.22268767495E-01 -0.67061794119E-02 -0.48341225950E-02  0.10201762721E+01  0.10198996944E+01 0.  0.
     999903    2    3    3    0    0  0.11207559134E+00  0.59165235976E-01 -0.33342949368E-01  0.13269835002E+00  0.20871907042E-01 0.  0.
         14    1    1    2    0    0 -0.22268767495E-01  0.67061794119E-02  0.48341225950E-02  0.23753727904E-01  0.00000000000E+00 0. -1.
     999901    1    3    3    0    0 -0.89806823840E-01 -0.65871415388E-01  0.28508826773E-01  0.88747792208E+00  0.88000000000E+00 0. -1.
        -11    1    4    4    0    0  0.63188090972E-01  0.28658061273E-01 -0.28006981808E-01  0.74824270578E-01  0.51100000000E-03 0.  1.
         11    1    4    4    0    0  0.48887500363E-01  0.30507174703E-01 -0.53359675599E-02  0.57874079439E-01  0.51100000000E-03 0. -1.
</event>
<event>
 8    1  0.1990795E+005  0.1043930E+01  0.7957747E-01            NaN
         13   -1    0    0    0    0  0.00000000000E+00  0.00000000000E+00  0.74505805969E-08  0.10566000000E+00  0.10566000000E+00 0. -1.
     999900   -1    0    0    0    0 -0.00000000000E+00 -0.00000000000E+00 -0.74505805969E-08  0.93827000000E+00  0.93827000000E+00 0.  1.
     999902    2    1    2    0    0 -0.19141128747E-01  0.13090674788E-01 -0.49221200062E-02  0.10202239704E+01  0.10199485153E+01 0.  0.
     999903    2    3    3    0    0  0.60740331885E-01  0.11333623634E+00  0.12563117632E-01  0.13076573418E+00  0.20183035590E-01 0.  0.
         14    1    1    2    0    0  0.19141128747E-01 -0.13090674788E-01  0.49221200062E-02  0.23706029644E-01  0.00000000000E+00 0.  1.
     999901    1    3    3    0    0 -0.79881460632E-01 -0.10024556155E+00 -0.17485237638E-01  0.88945823617E+00  0.88000000000E+00 0.  1.
        -11    1    4    4    0    0  0.31842329057E-01  0.52143597716E-01  0.15473029165E-01  0.63028282977E-01  0.51100000000E-03 0.  1.
         11    1    4    4    0    0  0.28898002828E-01  0.61192638627E-01 -0.29099115327E-02  0.67737451204E-01  0.51100000000E-03 0. -1.
</event>
<event>
 8    1  0.1161093E+005  0.1043930E+01  0.7957747E-01            NaN
         13   -1    0    0    0    0  0.00000000000E+00  0.00000000000E+00  0.74505805969E-08  0.10566000000E+00  0.10566000000E+00 0.  1.
     999900   -1    0    0    0    0 -0.00000000000E+00 -0.00000000000E+00 -0.74505805969E-08  0.93827000000E+00  0.93827000000E+00 0.  1.
     999902    2    1    2    0    0  0.20989016371E-01  0.16226993129E-01 -0.92361087306E-02  0.10158380115E+01  0.10154495092E+01 0.  0.
     999903    2    3    3    0    0  0.10612294082E+00 -0.62915405291E-02  0.68361377553E-01  0.12804510809E+00  0.20508771629E-01 0.  0.
         14    1    1    2    0    0 -0.20989016371E-01 -0.16226993129E-01  0.92361087306E-02  0.28091988515E-01  0.00000000000E+00 0. -1.
     999901    1    3    3    0    0 -0.85133924446E-01  0.22518533658E-01 -0.77597486284E-01  0.88779290340E+00  0.88000000000E+00 0.  1.
        -11    1    4    4    0    0  0.49971390121E-01 -0.90040525663E-02  0.22712874586E-01  0.55626869282E-01  0.51100000000E-03 0. -1.
         11    1    4    4    0    0  0.56151550696E-01  0.27125120372E-02  0.45648502967E-01  0.72418238803E-01  0.51100000000E-03 0.  1.
</event>
<event>
 8    1  0.1161093E+005  0.1043930E+01  0.7957747E-01            NaN
         13   -1    0    0    0    0  0.00000000000E+00  0.00000000000E+00  0.74505805969E-08  0.10566000000E+00  0.10566000000E+00 0. -1.
     999900   -1    0    0    0    0 -0.00000000000E+00 -0.00000000000E+00 -0.74505805969E-08  0.93827000000E+00  0.93827000000E+00 0. -1.
     999902    2    1    2    0    0  0.48118239468E-02  0.23058701165E-01  0.40384425151E-02  0.10200309128E+01  0.10197508994E+01 0.  0.
     999903    2    3    3    0    0 -0.12593163517E+00  0.13218927531E-01 -0.23774627377E-01  0.12988247572E+00  0.16453200669E-01 0.  0.
         14    1    1    2    0    0 -0.48118239468E-02 -0.23058701165E-01 -0.40384425151E-02  0.23899087159E-01  0.00000000000E+00 0.  1.
     999901    1    3    3    0    0  0.13074345911E+00  0.98397736338E-02  0.27813069892E-01  0.89014843712E+00  0.88000000000E+00 0.  1.
        -11    1    4    4    0    0 -0.13683617613E-01  0.60377505468E-02 -0.54179230953E-02  0.15915741714E-01  0.51100000000E-03 0.  1.
         11    1    4    4    0    0 -0.11224801755E+00  0.71811769842E-02 -0.18356704281E-01  0.11396673401E+00  0.51100000000E-03 0. -1.
</event>
<event>
 8    1  0.1161093E+005  0.1043930E+01  0.7957747E-01            NaN
         13   -1    0    0    0    0  0.00000000000E+00  0.00000000000E+00  0.74505805969E-08  0.10566000000E+00  0.10566000000E+00 0. -1.
     999900   -1    0    0    0    0 -0.00000000000E+00 -0.00000000000E+00 -0.74505805969E-08  0.93827000000E+00  0.93827000000E+00 0.  1.
     999902    2    1    2    0    0 -0.11168096617E-01  0.87191119129E-02  0.18057502986E-01  0.10209773812E+01  0.10207193494E+01 0.  0.
     999903    2    3    3    0    0 -0.16465349408E-01  0.79133903511E-01  0.10468543702E+00  0.13390878032E+00  0.20958012919E-01 0.  0.
         14    1    1    2    0    0  0.11168096617E-01 -0.87191119129E-02 -0.18057502986E-01  0.22952618776E-01  0.00000000000E+00 0.  1.
     999901    1    3    3    0    0  0.52972527915E-02 -0.70414791598E-01 -0.86627934034E-01  0.88706860091E+00  0.88000000000E+00 0.  1.
        -11    1    4    4    0    0 -0.70507012838E-02  0.53742115883E-01  0.83367340624E-01  0.99439941733E-01  0.51100000000E-03 0.  1.
         11    1    4    4    0    0 -0.94146481245E-02  0.25391787629E-01  0.21318096395E-01  0.34468838582E-01  0.51100000000E-03 0. -1.
</event>
<event>
 8    1  0.1161093E+005  0.1043930E+01  0.7957747E-01            NaN
         13   -1    0    0    0    0  0.00000000000E+00  0.00000000000E+00  0.74505805969E-08  0.10566000000E+00  0.10566000000E+00 0. -1.
     999900   -1    0    0    0    0 -0.00000000000E+00 -0.00000000000E+00 -0.74505805969E-08  0.93827000000E+00  0.93827000000E+00 0.  1.
     999902    2    1    2    0    0  0.18467551383E-03 -0.23466953884E-01  0.29218201883E-02  0.10202811298E+01  0.10200070170E+01 0.  0.
     999903    2    3    3    0    0  0.91632481668E-01 -0.29648334920E-01 -0.86653705478E-01  0.13099788720E+00  0.19391913740E-01 0.  0.
         14    1    1    2    0    0 -0.18467551383E-03  0.23466953884E-01 -0.29218201883E-02  0.23648870224E-01  0.00000000000E+00 0.  1.
     999901    1    3    3    0    0 -0.91447806154E-01  0.61813810360E-02  0.89575525667E-01  0.88928324257E+00  0.88000000000E+00 0. -1.
        -11    1    4    4    0    0  0.41891002185E-01 -0.87120509792E-02 -0.49729688812E-01  0.65605327274E-01  0.51100000000E-03 0.  1.
         11    1    4    4    0    0  0.49741479483E-01 -0.20936283941E-01 -0.36924016666E-01  0.65392559930E-01  0.51100000000E-03 0. -1.
</event>
<event>
 8    1  0.1161093E+005  0.1043930E+01  0.7957747E-01            NaN
         13   -1    0    0    0    0  0.00000000000E+00  0.00000000000E+00  0.74505805969E-08  0.10566000000E+00  0.10566000000E+00 0.  1.
     999900   -1    0    0    0    0 -0.00000000000E+00 -0.00000000000E+00 -0.74505805969E-08  0.93827000000E+00  0.93827000000E+00 0.  1.
     999902    2    1    2    0    0 -0.52510666287E-02 -0.35588317663E-02 -0.22802272556E-01  0.10202618227E+01  0.10199872569E+01 0.  0.
     999903    2    3    3    0    0 -0.10827654192E+00  0.65736203883E-01  0.22664875276E-01  0.13038356580E+00  0.21002848105E-01 0.  0.
         14    1    1    2    0    0  0.52510666287E-02  0.35588317663E-02  0.22802272556E-01  0.23668177328E-01  0.00000000000E+00 0.  1.
     999901    1    3    3    0    0  0.10302547529E+00 -0.69295035649E-01 -0.45467147832E-01  0.88987825687E+00  0.88000000000E+00 0.  1.
        -11    1    4    4    0    0 -0.83149717206E-01  0.47915043975E-01  0.81142646203E-02  0.96311106950E-01  0.51100000000E-03 0.  1.
         11    1    4    4    0    0 -0.25126824712E-01  0.17821159908E-01  0.14550610656E-01  0.34072458849E-01  0.51100000000E-03 0. -1.
</event>
<event>
 8    1  0.1161093E+005  0.1043930E+01  0.7957747E-01            NaN
         13   -1    0    0    0    0  0.00000000000E+00  0.00000000000E+00  0.74505805969E-08  0.10566000000E+00  0.10566000000E+00 0. -1.
     999900   -1    0    0    0    0 -0.00000000000E+00 -0.00000000000E+00 -0.74505805969E-08  0.93827000000E+00  0.93827000000E+00 0. -1.
     999902    2    1    2    0    0 -0.18349377896E-01  0.14582882696E-01 -0.27534692537E-02  0.10203303871E+01  0.10200574283E+01 0.  0.
     999903    2    3    3    0    0  0.61637905491E-01 -0.71177441551E-01  0.84622213871E-01  0.12826127052E+00  0.20605214309E-01 0.  0.
         14    1    1    2    0    0  0.18349377896E-01 -0.14582882696E-01  0.27534692537E-02  0.23599612917E-01  0.00000000000E+00 0.  1.
     999901    1    3    3    0    0 -0.79987283387E-01  0.85760324247E-01 -0.87375683125E-01  0.89206911656E+00  0.88000000000E+00 0.  1.
        -11    1    4    4    0    0  0.47118467681E-01 -0.62966641230E-01  0.76446610569E-01  0.10967813498E+00  0.51100000000E-03 0. -1.
         11    1    4    4    0    0  0.14519437810E-01 -0.82108003204E-02  0.81756033018E-02  0.18583135542E-01  0.51100000000E-03 0.  1.
</event>
<event>
 8    1  0.1161093E+005  0.1043930E+01  0.7957747E-01            NaN
         13   -1    0    0    0    0  0.00000000000E+00  0.00000000000E+00  0.74505805969E-08  0.10566000000E+00  0.10566000000E+00 0. -1.
     999900   -1    0    0    0    0 -0.00000000000E+00 -0.00000000000E+00 -0.74505805969E-08  0.93827000000E+00  0.93827000000E+00 0.  1.
     999902    2    1    2    0    0 -0.91650299005E-02  0.91348291257E-02  0.19723650289E-01  0.10203404842E+01  0.10200677617E+01 0.  0.
     999903    2    3    3    0    0 -0.38729758593E-02  0.99250737049E-01 -0.81061148213E-01  0.12999984245E+00  0.21525346461E-01 0.  0.
         14    1    1    2    0    0  0.91650299005E-02 -0.91348291257E-02 -0.19723650289E-01  0.23589515827E-01  0.00000000000E+00 0.  1.
     999901    1    3    3    0    0 -0.52920540412E-02 -0.90115907923E-01  0.10078479850E+00  0.89034064172E+00  0.88000000000E+00 0.  1.
        -11    1    4    4    0    0 -0.12402284698E-01  0.64348179747E-01 -0.55849773211E-01  0.86104373822E-01  0.51100000000E-03 0. -1.
         11    1    4    4    0    0  0.85293088388E-02  0.34902557302E-01 -0.25211375002E-01  0.43895468627E-01  0.51100000000E-03 0.  1.
</event>
<event>
 8    1  0.1161093E+005  0.1043930E+01  0.7957747E-01            NaN
         13   -1    0    0    0    0  0.00000000000E+00  0.00000000000E+00  0.74505805969E-08  0.10566000000E+00  0.10566000000E+00 0. -1.
     999900   -1    0    0    0    0 -0.00000000000E+00 -0.00000000000E+00 -0.74505805969E-08  0.93827000000E+00  0.93827000000E+00 0. -1.
     999902    2    1    2    0    0 -0.10034290206E-01  0.21741703784E-02 -0.21964113589E-01  0.10196846647E+01  0.10193963798E+01 0.  0.
     999903    2    3    3    0    0 -0.39003751083E-01 -0.48837188267E-01  0.10976281734E+00  0.12794850828E+00  0.20410319559E-01 0.  0.
         14    1    1    2    0    0  0.10034290206E-01 -0.21741703784E-02  0.21964113589E-01  0.24245335273E-01  0.00000000000E+00 0. -1.
     999901    1    3    3    0    0  0.28969460878E-01  0.51011358645E-01 -0.13172693093E+00  0.89173615644E+00  0.88000000000E+00 0. -1.
        -11    1    4    4    0    0 -0.12077115781E-01 -0.38693115115E-02  0.14944795347E-01  0.19607047869E-01  0.51100000000E-03 0. -1.
         11    1    4    4    0    0 -0.26926635303E-01 -0.44967876755E-01  0.94818021997E-01  0.10834146042E+00  0.51100000000E-03 0.  1.
</event>
<event>
 8    1  0.1161093E+005  0.1043930E+01  0.7957747E-01            NaN
         13   -1    0    0    0    0  0.00000000000E+00  0.00000000000E+00  0.74505805969E-08  0.10566000000E+00  0.10566000000E+00 0.  1.
     999900   -1    0    0    0    0 -0.00000000000E+00 -0.00000000000E+00 -0.74505805969E-08  0.93827000000E+00  0.93827000000E+00 0. -1.
     999902    2    1    2    0    0  0.14001581506E-01  0.15544440749E-01 -0.11167077671E-01  0.10202154992E+01  0.10199398450E+01 0.  0.
     999903    2    3    3    0    0  0.32387768654E-01 -0.12284715650E+00 -0.12358210009E-02  0.12915494241E+00  0.23218106636E-01 0.  0.
         14    1    1    2    0    0 -0.14001581506E-01 -0.15544440749E-01  0.11167077671E-01  0.23714500767E-01  0.00000000000E+00 0. -1.
     999901    1    3    3    0    0 -0.18386187147E-01  0.13839159725E+00 -0.99312566706E-02  0.89106055682E+00  0.88000000000E+00 0. -1.
        -11    1    4    4    0    0  0.13449116797E-01 -0.80042780776E-01  0.75898158444E-02  0.81520500014E-01  0.51100000000E-03 0.  1.
         11    1    4    4    0    0  0.18938651856E-01 -0.42804375728E-01 -0.88256368453E-02  0.47634442396E-01  0.51100000000E-03 0. -1.
</event>
<event>
 8    1  0.1161093E+005  0.1043930E+01  0.7957747E-01            NaN
         13   -1    0    0    0    0  0.00000000000E+00  0.00000000000E+00  0.74505805969E-08  0.10566000000E+00  0.10566000000E+00 0.  1.
     999900   -1    0    0    0    0 -0.00000000000E+00 -0.00000000000E+00 -0.74505805969E-08  0.93827000000E+00  0.93827000000E+00 0.  1.
     999902    2    1    2    0    0  0.85091746236E-03  0.71286470860E-02 -0.31602236365E-01  0.10115225470E+01  0.10110032740E+01 0.  0.
     999903    2    3    3    0    0  0.11126342545E+00 -0.45097181019E-01  0.94874349881E-02  0.12213690499E+00  0.20349608292E-01 0.  0.
         14    1    1    2    0    0 -0.85091746236E-03 -0.71286470860E-02  0.31602236365E-01  0.32407453048E-01  0.00000000000E+00 0.  1.
     999901    1    3    3    0    0 -0.11041250799E+00  0.52225828105E-01 -0.41089671353E-01  0.88938564197E+00  0.88000000000E+00 0.  1.
        -11    1    4    4    0    0  0.51971961561E-01 -0.16492083525E-01 -0.49067146104E-02  0.54748612556E-01  0.51100000000E-03 0.  1.
         11    1    4    4    0    0  0.59291463891E-01 -0.28605097494E-01  0.14394149598E-01  0.67388292430E-01  0.51100000000E-03 0. -1.
</event>
<event>
 8    1  0.1161093E+005  0.1043930E+01  0.7957747E-01            NaN
         13   -1    0    0    0    0  0.00000000000E+00  0.00000000000E+00  0.74505805969E-08  0.10566000000E+00  0.10566000000E+00 0. -1.
     999900   -1    0    0    0    0 -0.00000000000E+00 -0.00000000000E+00 -0.74505805969E-08  0.93827000000E+00  0.93827000000E+00 0. -1.
     999902    2    1    2    0    0  0.19714823544E-01  0.15162808142E-01  0.16441212709E-02  0.10190043475E+01  0.10186994513E+01 0.  0.
     999903    2    3    3    0    0  0.44159951436E-01 -0.14900785739E-01  0.11741581535E+00  0.13057625862E+00  0.33038627298E-01 0.  0.
         14    1    1    2    0    0 -0.19714823544E-01 -0.15162808142E-01 -0.16441212709E-02  0.24925652506E-01  0.00000000000E+00 0.  1.
     999901    1    3    3    0    0 -0.24445127892E-01  0.30063593881E-01 -0.11577169408E+00  0.88842808888E+00  0.88000000000E+00 0. -1.
        -11    1    4    4    0    0  0.21812900647E-01  0.27447830438E-02  0.83211827529E-01  0.86068611179E-01  0.51100000000E-03 0.  1.
         11    1    4    4    0    0  0.22347050789E-01 -0.17645568783E-01  0.34203987821E-01  0.44507647438E-01  0.51100000000E-03 0. -1.
</event>
<event>
 8    1  0.1161093E+005  0.1043930E+01  0.7957747E-01            NaN
         13   -1    0    0    0    0  0.00000000000E+00  0.00000000000E+00  0.74505805969E-08  0.10566000000E+00  0.10566000000E+00 0. -1.
     999900   -1    0    0    0    0 -0.00000000000E+00 -0.00000000000E+00 -0.74505805969E-08  0.93827000000E+00  0.93827000000E+00 0.  1.
     999902    2    1    2    0    0  0.20597680760E-01  0.10926405145E-01 -0.10082460766E-01  0.10185271105E+01  0.10182102769E+01 0.  0.
     999903    2    3    3    0    0  0.62301057202E-02  0.79830662387E-01 -0.98542140169E-01  0.13129583353E+00  0.33410980805E-01 0.  0.
         14    1    1    2    0    0 -0.20597680760E-01 -0.10926405145E-01  0.10082460766E-01  0.25402889544E-01  0.00000000000E+00 0. -1.
     999901    1    3    3    0    0  0.14367575040E-01 -0.68904257242E-01  0.88459679404E-01  0.88723127693E+00  0.88000000000E+00 0. -1.
        -11    1    4    4    0    0  0.13021245970E-01  0.45110914101E-01 -0.34990243165E-01  0.58558736798E-01  0.51100000000E-03 0.  1.
         11    1    4    4    0    0 -0.67911402494E-02  0.34719748287E-01 -0.63551897004E-01  0.72737096731E-01  0.51100000000E-03 0. -1.
</event>
<event>
 8    1  0.1161093E+005  0.1043930E+01  0.7957747E-01            NaN
         13   -1    0    0    0    0  0.00000000000E+00  0.00000000000E+00  0.74505805969E-08  0.10566000000E+00  0.10566000000E+00 0. -1.
     999900   -1    0    0    0    0 -0.00000000000E+00 -0.00000000000E+00 -0.74505805969E-08  0.93827000000E+00  0.93827000000E+00 0.  1.
     999902    2    1    2    0    0  0.15478524112E-01 -0.18264617308E-01  0.55530075105E-03  0.10199823631E+01  0.10197011973E+01 0.  0.
     999903    2    3    3    0    0 -0.72111521660E-01 -0.93770807462E-01  0.51933631231E-01  0.13093065835E+00  0.21276732742E-01 0.  0.
         14    1    1    2    0    0 -0.15478524112E-01  0.18264617308E-01 -0.55530075105E-03  0.23947636898E-01  0.00000000000E+00 0.  1.
     999901    1    3    3    0    0  0.87590045772E-01  0.75506190154E-01 -0.51378330480E-01  0.88905170475E+00  0.88000000000E+00 0.  1.
        -11    1    4    4    0    0 -0.46965987980E-01 -0.53074530153E-01  0.20840901410E-01  0.73873635828E-01  0.51100000000E-03 0.  1.
         11    1    4    4    0    0 -0.25145533680E-01 -0.40696277310E-01  0.31092729821E-01  0.57057022527E-01  0.51100000000E-03 0. -1.
</event>
<event>
 8    1  0.1161093E+005  0.1043930E+01  0.7957747E-01            NaN
         13   -1    0    0    0    0  0.00000000000E+00  0.00000000000E+00  0.74505805969E-08  0.10566000000E+00  0.10566000000E+00 0. -1.
     999900   -1    0    0    0    0 -0.00000000000E+00 -0.00000000000E+00 -0.74505805969E-08  0.93827000000E+00  0.93827000000E+00 0.  1.
     999902    2    1    2    0    0 -0.54580365230E-02 -0.20883035069E-01 -0.88240583164E-02  0.10206114383E+01  0.10203450164E+01 0.  0.
     999903    2    3    3    0    0 -0.83922971607E-01 -0.83578736857E-01 -0.58084187690E-01  0.13352967348E+00  0.20686479215E-01 0.  0.
         14    1    1    2    0    0  0.54580365230E-02  0.20883035069E-01  0.88240583164E-02  0.23318561739E-01  0.00000000000E+00 0. -1.
     999901    1    3    3    0    0  0.78464935084E-01  0.62695701788E-01  0.49260129373E-01  0.88708176478E+00  0.88000000000E+00 0. -1.
        -11    1    4    4    0    0 -0.44263198048E-01 -0.58300224959E-01 -0.35356829991E-01  0.81292764006E-01  0.51100000000E-03 0.  1.
         11    1    4    4    0    0 -0.39659773559E-01 -0.25278511899E-01 -0.22727357698E-01  0.52236909475E-01  0.51100000000E-03 0. -1.
</event>
<event>
 8    1  0.1161093E+005  0.1043930E+01  0.7957747E-01            NaN
         13   -1    0    0    0    0  0.00000000000E+00  0.00000000000E+00  0.74505805969E-08  0.10566000000E+00  0.10566000000E+00 0. -1.
     999900   -1    0    0    0    0 -0.00000000000E+00 -0.00000000000E+00 -0.74505805969E-08  0.93827000000E+00  0.93827000000E+00 0. -1.
     999902    2    1    2    0    0 -0.74236475941E-02 -0.10864421002E-01  0.19683895739E-01  0.10202529660E+01  0.10199781923E+01 0.  0.
     999903    2    3    3    0    0  0.29816039115E-01 -0.11455033085E+00 -0.51205529596E-01  0.13055477404E+00  0.20292074209E-01 0.  0.
         14    1    1    2    0    0  0.74236475941E-02  0.10864421002E-01 -0.19683895739E-01  0.23677033994E-01  0.00000000000E+00 0.  1.
     999901    1    3    3    0    0 -0.37239686709E-01  0.10368590985E+00  0.70889425334E-01  0.88969819197E+00  0.88000000000E+00 0.  1.
        -11    1    4    4    0    0  0.17290756125E-01 -0.88906418462E-01 -0.45832377400E-01  0.10150955339E+00  0.51100000000E-03 0.  1.
         11    1    4    4    0    0  0.12525282990E-01 -0.25643912391E-01 -0.53731521960E-02  0.29045220643E-01  0.51100000000E-03 0. -1.
</event>
<event>
 8    1  0.1161093E+005  0.1043930E+01  0.7957747E-01            NaN
         13   -1    0    0    0    0  0.00000000000E+00  0.00000000000E+00  0.74505805969E-08  0.10566000000E+00  0.10566000000E+00 0.  1.
     999900   -1    0    0    0    0 -0.00000000000E+00 -0.00000000000E+00 -0.74505805969E-08  0.93827000000E+00  0.93827000000E+00 0.  1.
     999902    2    1    2    0    0  0.91103999029E-02 -0.13947720980E-01 -0.15957235498E-01  0.10208611537E+01  0.10206004720E+01 0.  0.
     999903    2    3    3    0    0  0.10697926458E+00  0.11274235838E-01  0.71562084923E-01  0.13076335385E+00  0.20155675785E-01 0.  0.
         14    1    1    2    0    0 -0.91103999029E-02  0.13947720980E-01  0.15957235498E-01  0.23068846344E-01  0.00000000000E+00 0. -1.
     999901    1    3    3    0    0 -0.97868864679E-01 -0.25221956818E-01 -0.87519320421E-01  0.89009779981E+00  0.88000000000E+00 0. -1.
        -11    1    4    4    0    0  0.46245786799E-01  0.10406958163E-01  0.21512021196E-01  0.52057715584E-01  0.51100000000E-03 0. -1.
         11    1    4    4    0    0  0.60733477783E-01  0.86727767450E-03  0.50050063727E-01  0.78705638262E-01  0.51100000000E-03 0.  1.
</event>
<event>
 8    1  0.1161093E+005  0.1043930E+01  0.7957747E-01            NaN
         13   -1    0    0    0    0  0.00000000000E+00  0.00000000000E+00  0.74505805969E-08  0.10566000000E+00  0.10566000000E+00 0. -1.
     999900   -1    0    0    0    0 -0.00000000000E+00 -0.00000000000E+00 -0.74505805969E-08  0.93827000000E+00  0.93827000000E+00 0.  1.
     999902    2    1    2    0    0  0.17066641994E-01  0.10190166658E-01  0.11336632005E-01  0.10210470590E+01  0.10207906091E+01 0.  0.
     999903    2    3    3    0    0 -0.96075066686E-01  0.19710662219E-01  0.84282106211E-01  0.13075905596E+00  0.19378561461E-01 0.  0.
         14    1    1    2    0    0 -0.17066641994E-01 -0.10190166658E-01 -0.11336632005E-01  0.22882941041E-01  0.00000000000E+00 0.  1.
     999901    1    3    3    0    0  0.11314170868E+00 -0.95204955608E-02 -0.72945474206E-01  0.89028800300E+00  0.88000000000E+00 0.  1.
        -11    1    4    4    0    0 -0.32934723081E-01  0.12574578546E-01  0.39925027133E-01  0.53264293130E-01  0.51100000000E-03 0.  1.
         11    1    4    4    0    0 -0.63140343605E-01  0.71360836729E-02  0.44357079077E-01  0.77494762830E-01  0.51100000000E-03 0. -1.
</event>
<event>
 8    1  0.1161093E+005  0.1043930E+01  0.7957747E-01            NaN
         13   -1    0    0    0    0  0.00000000000E+00  0.00000000000E+00  0.74505805969E-08  0.10566000000E+00  0.10566000000E+00 0. -1.
     999900   -1    0    0    0    0 -0.00000000000E+00 -0.00000000000E+00 -0.74505805969E-08  0.93827000000E+00  0.93827000000E+00 0.  1.
     999902    2    1    2    0    0  0.12823053945E-01 -0.16261303394E-01  0.11272154551E-01  0.10203519982E+01  0.10200795450E+01 0.  0.
     999903    2    3    3    0    0 -0.89178134314E-01  0.69448266623E-01 -0.56193932421E-01  0.12777032368E+00  0.19791316185E-01 0.  0.
         14    1    1    2    0    0 -0.12823053945E-01  0.16261303394E-01 -0.11272154551E-01  0.23578001798E-01  0.00000000000E+00 0. -1.
     999901    1    3    3    0    0  0.10200118826E+00 -0.85709570017E-01  0.67466086972E-01  0.89258167452E+00  0.88000000000E+00 0. -1.
        -11    1    4    4    0    0 -0.53932918289E-01  0.46776365383E-01 -0.44993843307E-01  0.84388951233E-01  0.51100000000E-03 0. -1.
         11    1    4    4    0    0 -0.35245216025E-01  0.22671901239E-01 -0.11200089114E-01  0.43381372449E-01  0.51100000000E-03 0.  1.
</event>
<event>
 8    1  0.1161093E+005  0.1043930E+01  0.7957747E-01            NaN
         13   -1    0    0    0    0  0.00000000000E+00  0.00000000000E+00  0.74505805969E-08  0.10566000000E+00  0.10566000000E+00 0.  1.
     999900   -1    0    0    0    0 -0.00000000000E+00 -0.00000000000E+00 -0.74505805969E-08  0.93827000000E+00  0.93827000000E+00 0.  1.
     999902    2    1    2    0    0  0.12674750748E-01 -0.10696842726E-01 -0.15205419529E-01  0.10214294104E+01  0.10211815528E+01 0.  0.
     999903    2    3    3    0    0 -0.55859604083E-01 -0.10783029529E-01 -0.11820897694E+00  0.13277497918E+00  0.20475931592E-01 0.  0.
         14    1    1    2    0    0 -0.12674750748E-01  0.10696842726E-01  0.15205419529E-01  0.22500589635E-01  0.00000000000E+00 0. -1.
     999901    1    3    3    0    0  0.68534354831E-01  0.86186803207E-04  0.10300355741E+00  0.88865443118E+00  0.88000000000E+00 0. -1.
        -11    1    4    4    0    0 -0.35346379315E-01 -0.16524534695E-01 -0.80607669395E-01  0.89556039796E-01  0.51100000000E-03 0.  1.
         11    1    4    4    0    0 -0.20513224768E-01  0.57415051658E-02 -0.37601307542E-01  0.43218939388E-01  0.51100000000E-03 0. -1.
</event>
<event>
 8    1  0.1161093E+005  0.1043930E+01  0.7957747E-01            NaN
         13   -1    0    0    0    0  0.00000000000E+00  0.00000000000E+00  0.74505805969E-08  0.10566000000E+00  0.10566000000E+00 0.  1.
     999900   -1    0    0    0    0 -0.00000000000E+00 -0.00000000000E+00 -0.74505805969E-08  0.93827000000E+00  0.93827000000E+00 0. -1.
     999902    2    1    2    0    0 -0.15228913905E-01  0.15885337864E-01  0.93383506334E-03  0.10219042009E+01  0.10216668048E+01 0.  0.
     999903    2    3    3    0    0 -0.44851945531E-01 -0.44206252193E-01  0.11413529114E+00  0.13212721039E+00  0.21560271131E-01 0.  0.
         14    1    1    2    0    0  0.15228913905E-01 -0.15885337864E-01 -0.93383506334E-03  0.22025799094E-01  0.00000000000E+00 0. -1.
     999901    1    3    3    0    0  0.29623031626E-01  0.60091590057E-01 -0.11320145607E+00  0.88977699052E+00  0.88000000000E+00 0. -1.
        -11    1    4    4    0    0 -0.11180469271E-01 -0.13199109080E-01  0.52996052020E-01  0.55749995734E-01  0.51100000000E-03 0.  1.
         11    1    4    4    0    0 -0.33671476261E-01 -0.31007143113E-01  0.61139239117E-01  0.76377214654E-01  0.51100000000E-03 0. -1.
</event>
<event>
 8    1  0.1161093E+005  0.1043930E+01  0.7957747E-01            NaN
         13   -1    0    0    0    0  0.00000000000E+00  0.00000000000E+00  0.74505805969E-08  0.10566000000E+00  0.10566000000E+00 0.  1.
     999900   -1    0    0    0    0 -0.00000000000E+00 -0.00000000000E+00 -0.74505805969E-08  0.93827000000E+00  0.93827000000E+00 0. -1.
     999902    2    1    2    0    0 -0.18231561626E-01  0.13343146383E-01  0.29137756160E-02  0.10211501957E+01  0.10208960783E+01 0.  0.
     999903    2    3    3    0    0 -0.62208469462E-01 -0.11147286558E+00 -0.21497419897E-01  0.13092049967E+00  0.19543406495E-01 0.  0.
         14    1    1    2    0    0  0.18231561626E-01 -0.13343146383E-01 -0.29137756160E-02  0.22779804281E-01  0.00000000000E+00 0.  1.
     999901    1    3    3    0    0  0.43976907835E-01  0.12481601196E+00  0.24411195513E-01  0.89022969605E+00  0.88000000000E+00 0. -1.
        -11    1    4    4    0    0 -0.37935917613E-01 -0.61700369774E-01 -0.28512997315E-02  0.72487657615E-01  0.51100000000E-03 0. -1.
         11    1    4    4    0    0 -0.24272551849E-01 -0.49772495807E-01 -0.18646120165E-01  0.58432842052E-01  0.51100000000E-03 0.  1.
</event>
<event>
 8    1  0.1161093E+005  0.1043930E+01  0.7957747E-01            NaN
         13   -1    0    0    0    0  0.00000000000E+00  0.00000000000E+00  0.74505805969E-08  0.10566000000E+00  0.10566000000E+00 0. -1.
     999900   -1    0    0    0    0 -0.00000000000E+00 -0.00000000000E+00 -0.74505805969E-08  0.93827000000E+00  0.93827000000E+00 0.  1.
     999902    2    1    2    0    0 -0.53537102339E-02 -0.20769429770E-01 -0.90473765410E-02  0.10206515454E+01  0.10203860498E+01 0.  0.
     999903    2    3    3    0    0  0.18940873518E-01 -0.13034666122E+00 -0.79584464618E-02  0.13352213984E+00  0.20391571203E-01 0.  0.
         14    1    1    2    0    0  0.53537102339E-02  0.20769429770E-01  0.90473765410E-02  0.23278454599E-01  0.00000000000E+00 0. -1.
     999901    1    3    3    0    0 -0.24294583752E-01  0.10957723145E+00 -0.10889300793E-02  0.88712940557E+00  0.88000000000E+00 0.  1.
        -11    1    4    4    0    0 -0.37678709871E-02 -0.24330027836E-01  0.16109495678E-02  0.24677993958E-01  0.51100000000E-03 0. -1.
         11    1    4    4    0    0  0.22708744505E-01 -0.10601663338E+00 -0.95693960295E-02  0.10884414588E+00  0.51100000000E-03 0.  1.
</event>
<event>
 8    1  0.1161093E+005  0.1043930E+01  0.7957747E-01            NaN
         13   -1    0    0    0    0  0.00000000000E+00  0.00000000000E+00  0.74505805969E-08  0.10566000000E+00  0.10566000000E+00 0.  1.
     999900   -1    0    0    0    0 -0.00000000000E+00 -0.00000000000E+00 -0.74505805969E-08  0.93827000000E+00  0.93827000000E+00 0.  1.
     999902    2    1    2    0    0 -0.59795163804E-02  0.19611302512E-01  0.11197777421E-01  0.10205687496E+01  0.10203013401E+01 0.  0.
     999903    2    3    3    0    0 -0.11456863776E+00 -0.30397349589E-01 -0.50277148237E-01  0.13035999369E+00  0.20395212654E-01 0.  0.
         14    1    1    2    0    0  0.59795163804E-02 -0.19611302512E-01 -0.11197777421E-01  0.23361250427E-01  0.00000000000E+00 0.  1.
     999901    1    3    3    0    0  0.10858912138E+00  0.50008652101E-01  0.61474925659E-01  0.89020875588E+00  0.88000000000E+00 0.  1.
        -11    1    4    4    0    0 -0.38781243723E-01 -0.16360803646E-01 -0.94702069132E-02  0.43146340524E-01  0.51100000000E-03 0. -1.
         11    1    4    4    0    0 -0.75787394038E-01 -0.14036545943E-01 -0.40806941324E-01  0.87213653165E-01  0.51100000000E-03 0.  1.
</event>
<event>
 8    1  0.1161093E+005  0.1043930E+01  0.7957747E-01            NaN
         13   -1    0    0    0    0  0.00000000000E+00  0.00000000000E+00  0.74505805969E-08  0.10566000000E+00  0.10566000000E+00 0. -1.
     999900   -1    0    0    0    0 -0.00000000000E+00 -0.00000000000E+00 -0.74505805969E-08  0.93827000000E+00  0.93827000000E+00 0. -1.
     999902    2    1    2    0    0 -0.18957118647E-01 -0.76754232671E-02  0.13726665146E-01  0.10192986012E+01  0.10190009483E+01 0.  0.
     999903    2    3    3    0    0 -0.12283154820E+00 -0.28323115399E-01  0.36302483882E-01  0.13266119399E+00  0.19782162605E-01 0.  0.
         14    1    1    2    0    0  0.18957118647E-01  0.76754232671E-02 -0.13726665146E-01  0.24631398778E-01  0.00000000000E+00 0.  1.
     999901    1    3    3    0    0  0.10387442955E+00  0.20647692132E-01 -0.22575818737E-01  0.88663740723E+00  0.88000000000E+00 0.  1.
        -11    1    4    4    0    0 -0.58772844147E-01 -0.48015896972E-02  0.21965624832E-01  0.62928946186E-01  0.51100000000E-03 0.  1.
         11    1    4    4    0    0 -0.64058704051E-01 -0.23521525702E-01  0.14336859050E-01  0.69732247809E-01  0.51100000000E-03 0. -1.
</event>
<event>
 8    1  0.1161093E+005  0.1043930E+01  0.7957747E-01            NaN
         13   -1    0    0    0    0  0.00000000000E+00  0.00000000000E+00  0.74505805969E-08  0.10566000000E+00  0.10566000000E+00 0.  1.
     999900   -1    0    0    0    0 -0.00000000000E+00 -0.00000000000E+00 -0.74505805969E-08  0.93827000000E+00  0.93827000000E+00 0. -1.
     999902    2    1    2    0    0 -0.21772441853E-01  0.60207524729E-02  0.67240616417E-02  0.10203609167E+01  0.10200886719E+01 0.  0.
     999903    2    3    3    0    0 -0.60781937531E-01 -0.89990820561E-01 -0.70327563738E-01  0.13093586873E+00  0.20135634671E-01 0.  0.
         14    1    1    2    0    0  0.21772441853E-01 -0.60207524729E-02 -0.67240616417E-02  0.23569083341E-01  0.00000000000E+00 0. -1.
     999901    1    3    3    0    0  0.39009495678E-01  0.96011573034E-01  0.77051625380E-01  0.88942504793E+00  0.88000000000E+00 0. -1.
        -11    1    4    4    0    0 -0.28028471752E-01 -0.26110838752E-01 -0.19598991299E-01  0.43031996352E-01  0.51100000000E-03 0. -1.
         11    1    4    4    0    0 -0.32753465779E-01 -0.63879981808E-01 -0.50728572439E-01  0.87903872378E-01  0.51100000000E-03 0.  1.
</event>
<event>
 8    1  0.1161093E+005  0.1043930E+01  0.7957747E-01            NaN
         13   -1    0    0    0    0  0.00000000000E+00  0.00000000000E+00  0.74505805969E-08  0.10566000000E+00  0.10566000000E+00 0.  1.
     999900   -1    0    0    0    0 -0.00000000000E+00 -0.00000000000E+00 -0.74505805969E-08  0.93827000000E+00  0.93827000000E+00 0.  1.
     999902    2    1    2    0    0 -0.13982184359E-01 -0.15767619350E-01  0.10015892092E-01  0.10205968178E+01  0.10203300579E+01 0.  0.
     999903    2    3    3    0    0  0.78055913251E-01  0.10461965477E-01  0.10234563394E+00  0.13060592805E+00  0.19521817001E-01 0.  0.
         14    1    1    2    0    0  0.13982184359E-01  0.15767619350E-01 -0.10015892092E-01  0.23333182248E-01  0.00000000000E+00 0.  1.
     999901    1    3    3    0    0 -0.92038097610E-01 -0.26229584827E-01 -0.92329741848E-01  0.88999088971E+00  0.88000000000E+00 0.  1.
        -11    1    4    4    0    0  0.39580830142E-01  0.12125094493E-01  0.64255623842E-01  0.76437597735E-01  0.51100000000E-03 0. -1.
         11    1    4    4    0    0  0.38475083109E-01 -0.16631290164E-02  0.38090010098E-01  0.54168330311E-01  0.51100000000E-03 0.  1.
</event>
<event>
 8    1  0.1161093E+005  0.1043930E+01  0.7957747E-01            NaN
         13   -1    0    0    0    0  0.00000000000E+00  0.00000000000E+00  0.74505805969E-08  0.10566000000E+00  0.10566000000E+00 0. -1.
     999900   -1    0    0    0    0 -0.00000000000E+00 -0.00000000000E+00 -0.74505805969E-08  0.93827000000E+00  0.93827000000E+00 0. -1.
     999902    2    1    2    0    0  0.16087176428E-01  0.10575783563E-01  0.12472543585E-01  0.10209907588E+01  0.10207330311E+01 0.  0.
     999903    2    3    3    0    0  0.12232979992E+00 -0.29891845385E-01  0.39235552342E-01  0.13327380916E+00  0.19088668678E-01 0.  0.
         14    1    1    2    0    0 -0.16087176428E-01 -0.10575783563E-01 -0.12472543585E-01  0.22939241201E-01  0.00000000000E+00 0.  1.
     999901    1    3    3    0    0 -0.10624262349E+00  0.40467628948E-01 -0.26763008757E-01  0.88771694964E+00  0.88000000000E+00 0. -1.
        -11    1    4    4    0    0  0.37722533046E-01 -0.12920878465E-01  0.40511016987E-02  0.40082554131E-01  0.51100000000E-03 0. -1.
         11    1    4    4    0    0  0.84607266872E-01 -0.16970966920E-01  0.35184450643E-01  0.93191255029E-01  0.51100000000E-03 0.  1.
</event>
<event>
 8    1  0.1161093E+005  0.1043930E+01  0.7957747E-01            NaN
         13   -1    0    0    0    0  0.00000000000E+00  0.00000000000E+00  0.74505805969E-08  0.10566000000E+00  0.10566000000E+00 0.  1.
     999900   -1    0    0    0    0 -0.00000000000E+00 -0.00000000000E+00 -0.74505805969E-08  0.93827000000E+00  0.93827000000E+00 0. -1.
     999902    2    1    2    0    0  0.60763717833E-02  0.81933660708E-02 -0.21561424887E-01  0.10200773569E+01  0.10197984435E+01 0.  0.
     999903    2    3    3    0    0 -0.51279354893E-01 -0.61696454673E-01 -0.10248823914E+00  0.13175116920E+00  0.20457435456E-01 0.  0.
         14    1    1    2    0    0 -0.60763717833E-02 -0.81933660708E-02  0.21561424887E-01  0.23852643140E-01  0.00000000000E+00 0.  1.
     999901    1    3    3    0    0  0.57355726677E-01  0.69889820744E-01  0.80926814250E-01  0.88832618766E+00  0.88000000000E+00 0.  1.
        -11    1    4    4    0    0 -0.25383790860E-01 -0.34280339393E-01 -0.69989734276E-01  0.81965251981E-01  0.51100000000E-03 0.  1.
         11    1    4    4    0    0 -0.25895564033E-01 -0.27416115280E-01 -0.32498504861E-01  0.49785917214E-01  0.51100000000E-03 0. -1.
</event>
<event>
 8    1  0.1161093E+005  0.1043930E+01  0.7957747E-01            NaN
         13   -1    0    0    0    0  0.00000000000E+00  0.00000000000E+00  0.74505805969E-08  0.10566000000E+00  0.10566000000E+00 0.  1.
     999900   -1    0    0    0    0 -0.00000000000E+00 -0.00000000000E+00 -0.74505805969E-08  0.93827000000E+00  0.93827000000E+00 0. -1.
     999902    2    1    2    0    0  0.12848068555E-01 -0.13641675911E-01 -0.13394407707E-01  0.10208957137E+01  0.10206358214E+01 0.  0.
     999903    2    3    3    0    0  0.56429726569E-02  0.68673653064E-01 -0.11061245195E+00  0.13169434454E+00  0.18983468917E-01 0.  0.
         14    1    1    2    0    0 -0.12848068555E-01  0.13641675911E-01  0.13394407707E-01  0.23034286294E-01  0.00000000000E+00 0.  1.
     999901    1    3    3    0    0  0.72050958985E-02 -0.82315328975E-01  0.97218044247E-01  0.88920136916E+00  0.88000000000E+00 0.  1.
        -11    1    4    4    0    0  0.67778381689E-02  0.15917051597E-01 -0.17165275380E-01  0.24376206055E-01  0.51100000000E-03 0.  1.
         11    1    4    4    0    0 -0.11348655120E-02  0.52756601467E-01 -0.93447176574E-01  0.10731813849E+00  0.51100000000E-03 0. -1.
</event>
<event>
 8    1  0.1161093E+005  0.1043930E+01  0.7957747E-01            NaN
         13   -1    0    0    0    0  0.00000000000E+00  0.00000000000E+00  0.74505805969E-08  0.10566000000E+00  0.10566000000E+00 0.  1.
     999900   -1    0    0    0    0 -0.00000000000E+00 -0.00000000000E+00 -0.74505805969E-08  0.93827000000E+00  0.93827000000E+00 0.  1.
     999902    2    1    2    0    0 -0.42002130874E-02  0.99759851594E-03 -0.24339949113E-01  0.10192101676E+01  0.10189103472E+01 0.  0.
     999903    2    3    3    0    0  0.65789007581E-02 -0.12070127551E+00 -0.45067310399E-01  0.13052775594E+00  0.19858317112E-01 0.  0.
         14    1    1    2    0    0  0.42002130874E-02 -0.99759851594E-03  0.24339949113E-01  0.24719832435E-01  0.00000000000E+00 0.  1.
     999901    1    3    3    0    0 -0.10779113845E-01  0.12169887402E+00  0.20727361286E-01  0.88868241163E+00  0.88000000000E+00 0.  1.
        -11    1    4    4    0    0  0.26296800214E-02 -0.41786985346E-02  0.11762882915E-02  0.51011286597E-02  0.51100000000E-03 0. -1.
         11    1    4    4    0    0  0.39492207367E-02 -0.11652257697E+00 -0.46243598690E-01  0.12542662728E+00  0.51100000000E-03 0.  1.
</event>
<event>
 8    1  0.1161093E+005  0.1043930E+01  0.7957747E-01            NaN
         13   -1    0    0    0    0  0.00000000000E+00  0.00000000000E+00  0.74505805969E-08  0.10566000000E+00  0.10566000000E+00 0. -1.
     999900   -1    0    0    0    0 -0.00000000000E+00 -0.00000000000E+00 -0.74505805969E-08  0.93827000000E+00  0.93827000000E+00 0. -1.
     999902    2    1    2    0    0  0.11740356719E-02  0.18587891538E-01 -0.15118046192E-01  0.10199415988E+01  0.10196594635E+01 0.  0.
     999903    2    3    3    0    0 -0.11396790741E+00 -0.27475891970E-01 -0.54036820845E-01  0.13039440487E+00  0.18415055090E-01 0.  0.
         14    1    1    2    0    0 -0.11740356719E-02 -0.18587891538E-01  0.15118046192E-01  0.23988401202E-01  0.00000000000E+00 0. -1.
     999901    1    3    3    0    0  0.11514194309E+00  0.46063783508E-01  0.38918774653E-01  0.88954719393E+00  0.88000000000E+00 0.  1.
        -11    1    4    4    0    0 -0.47049727225E-01 -0.67633069080E-02 -0.13313043417E-01  0.49365143555E-01  0.51100000000E-03 0.  1.
         11    1    4    4    0    0 -0.66918180189E-01 -0.20712585062E-01 -0.40723777428E-01  0.81029261312E-01  0.51100000000E-03 0. -1.
</event>
<event>
 8    1  0.1161093E+005  0.1043930E+01  0.7957747E-01            NaN
         13   -1    0    0    0    0  0.00000000000E+00  0.00000000000E+00  0.74505805969E-08  0.10566000000E+00  0.10566000000E+00 0. -1.
     999900   -1    0    0    0    0 -0.00000000000E+00 -0.00000000000E+00 -0.74505805969E-08  0.93827000000E+00  0.93827000000E+00 0.  1.
     999902    2    1    2    0    0 -0.37700456432E-02 -0.14420356922E-01  0.19536647222E-01  0.10193568333E+01  0.10190606032E+01 0.  0.
     999903    2    3    3    0    0  0.27944497507E-01  0.16789975081E-01 -0.12115407770E+00  0.12707112951E+00  0.20148528687E-01 0.  0.
         14    1    1    2    0    0  0.37700456432E-02  0.14420356922E-01 -0.19536647222E-01  0.24573166719E-01  0.00000000000E+00 0.  1.
     999901    1    3    3    0    0 -0.31714543150E-01 -0.31210332003E-01  0.14069072492E+00  0.89228570377E+00  0.88000000000E+00 0. -1.
        -11    1    4    4    0    0  0.20516424577E-03  0.94624683189E-02 -0.35189617308E-01  0.36443801755E-01  0.51100000000E-03 0.  1.
         11    1    4    4    0    0  0.27739333262E-01  0.73275067622E-02 -0.85964460391E-01  0.90627327758E-01  0.51100000000E-03 0. -1.
</event>
<event>
 8    1  0.1246369E+005  0.1043930E+01  0.7957747E-01            NaN
         13   -1    0    0    0    0  0.00000000000E+00  0.00000000000E+00  0.74505805969E-08  0.10566000000E+00  0.10566000000E+00 0.  1.
     999900   -1    0    0    0    0 -0.00000000000E+00 -0.00000000000E+00 -0.74505805969E-08  0.93827000000E+00  0.93827000000E+00 0. -1.
     999902    2    1    2    0    0  0.13385604278E-01 -0.13548383169E-01 -0.14290411459E-01  0.10201193102E+01  0.10198413887E+01 0.  0.
     999903    2    3    3    0    0  0.61149042870E-01  0.99560788779E-01 -0.56466979649E-01  0.13059477781E+00  0.14660153286E-01 0.  0.
         14    1    1    2    0    0 -0.13385604278E-01  0.13548383169E-01  0.14290411459E-01  0.23810689785E-01  0.00000000000E+00 0.  1.
     999901    1    3    3    0    0 -0.47763438592E-01 -0.11310917195E+00  0.42176568190E-01  0.88952453240E+00  0.88000000000E+00 0.  1.
        -11    1    4    4    0    0  0.24439252196E-01  0.52994313466E-01 -0.25356880650E-01  0.63631020932E-01  0.51100000000E-03 0.  1.
         11    1    4    4    0    0  0.36709790675E-01  0.46566475314E-01 -0.31110098999E-01  0.66963756878E-01  0.51100000000E-03 0. -1.
</event>
<event>
 8    1  0.1161093E+005  0.1043930E+01  0.7957747E-01            NaN
         13   -1    0    0    0    0  0.00000000000E+00  0.00000000000E+00  0.74505805969E-08  0.10566000000E+00  0.10566000000E+00 0.  1.
     999900   -1    0    0    0    0 -0.00000000000E+00 -0.00000000000E+00 -0.74505805969E-08  0.93827000000E+00  0.93827000000E+00 0. -1.
     999902    2    1    2    0    0  0.22421540362E-01 -0.15522741293E-02  0.73124485732E-02  0.10202951331E+01  0.10200213487E+01 0.  0.
     999903    2    3    3    0    0  0.11892488279E+00  0.52095874797E-01 -0.20746298882E-01  0.13295173158E+00  0.19714109092E-01 0.  0.
         14    1    1    2    0    0 -0.22421540362E-01  0.15522741293E-02 -0.73124485732E-02  0.23634866857E-01  0.00000000000E+00 0. -1.
     999901    1    3    3    0    0 -0.96503342424E-01 -0.53648148926E-01  0.28058747455E-01  0.88734340156E+00  0.88000000000E+00 0.  1.
        -11    1    4    4    0    0  0.36811466248E-02  0.34411594251E-03 -0.40735509456E-02  0.55248705471E-02  0.51100000000E-03 0.  1.
         11    1    4    4    0    0  0.11524373616E+00  0.51751758854E-01 -0.16672747936E-01  0.12742686104E+00  0.51100000000E-03 0. -1.
</event>
<event>
 8    1  0.1161093E+005  0.1043930E+01  0.7957747E-01            NaN
         13   -1    0    0    0    0  0.00000000000E+00  0.00000000000E+00  0.74505805969E-08  0.10566000000E+00  0.10566000000E+00 0.  1.
     999900   -1    0    0    0    0 -0.00000000000E+00 -0.00000000000E+00 -0.74505805969E-08  0.93827000000E+00  0.93827000000E+00 0. -1.
     999902    2    1    2    0    0  0.15865640076E-01  0.96257967408E-02 -0.14193562274E-01  0.10205669585E+01  0.10202995075E+01 0.  0.
     999903    2    3    3    0    0  0.64788678728E-01 -0.81089702426E-01  0.75836280215E-01  0.12998954018E+00  0.19313892080E-01 0.  0.
         14    1    1    2    0    0 -0.15865640076E-01 -0.96257967408E-02  0.14193562274E-01  0.23363041495E-01  0.00000000000E+00 0.  1.
     999901    1    3    3    0    0 -0.48923038652E-01  0.90715499166E-01 -0.90029842489E-01  0.89057741833E+00  0.88000000000E+00 0. -1.
        -11    1    4    4    0    0  0.26141546433E-01 -0.46996438966E-01  0.34193173044E-01  0.63729741324E-01  0.51100000000E-03 0.  1.
         11    1    4    4    0    0  0.38647132295E-01 -0.34093263460E-01  0.41643107171E-01  0.66259798851E-01  0.51100000000E-03 0. -1.
</event>
<event>
 8    1  0.1161093E+005  0.1043930E+01  0.7957747E-01            NaN
         13   -1    0    0    0    0  0.00000000000E+00  0.00000000000E+00  0.74505805969E-08  0.10566000000E+00  0.10566000000E+00 0. -1.
     999900   -1    0    0    0    0 -0.00000000000E+00 -0.00000000000E+00 -0.74505805969E-08  0.93827000000E+00  0.93827000000E+00 0. -1.
     999902    2    1    2    0    0 -0.19677655563E-01 -0.10380469735E-01 -0.89664621615E-02  0.10199433011E+01  0.10196612064E+01 0.  0.
     999903    2    3    3    0    0  0.11163750189E+00 -0.43838968304E-01 -0.42817513862E-01  0.12892756869E+00  0.20104514520E-01 0.  0.
         14    1    1    2    0    0  0.19677655563E-01  0.10380469735E-01  0.89664621615E-02  0.23986698899E-01  0.00000000000E+00 0.  1.
     999901    1    3    3    0    0 -0.13131515746E+00  0.33458498569E-01  0.33851051700E-01  0.89101573241E+00  0.88000000000E+00 0. -1.
        -11    1    4    4    0    0  0.42989019162E-01 -0.27517794116E-01 -0.17651046437E-01  0.54010233501E-01  0.51100000000E-03 0. -1.
         11    1    4    4    0    0  0.68648482730E-01 -0.16321174188E-01 -0.25166467425E-01  0.74917335188E-01  0.51100000000E-03 0.  1.
</event>
<event>
 8    1  0.1161093E+005  0.1043930E+01  0.7957747E-01            NaN
         13   -1    0    0    0    0  0.00000000000E+00  0.00000000000E+00  0.74505805969E-08  0.10566000000E+00  0.10566000000E+00 0. -1.
     999900   -1    0    0    0    0 -0.00000000000E+00 -0.00000000000E+00 -0.74505805969E-08  0.93827000000E+00  0.93827000000E+00 0.  1.
     999902    2    1    2    0    0  0.11570389721E-01 -0.33796814500E-02 -0.19540199717E-01  0.10209710024E+01  0.10207128255E+01 0.  0.
     999903    2    3    3    0    0 -0.36456831545E-01  0.11775030944E+00 -0.40275590762E-01  0.13113447523E+00  0.19490804041E-01 0.  0.
         14    1    1    2    0    0 -0.11570389721E-01  0.33796814500E-02  0.19540199717E-01  0.22958997582E-01  0.00000000000E+00 0. -1.
     999901    1    3    3    0    0  0.48027221266E-01 -0.12112999089E+00  0.20735391045E-01  0.88983652719E+00  0.88000000000E+00 0. -1.
        -11    1    4    4    0    0 -0.22423664565E-01  0.85736198306E-01 -0.20468114534E-01  0.90954501076E-01  0.51100000000E-03 0.  1.
         11    1    4    4    0    0 -0.14033166980E-01  0.32014111138E-01 -0.19807476229E-01  0.40179974154E-01  0.51100000000E-03 0. -1.
</event>
<event>
 8    1  0.1161093E+005  0.1043930E+01  0.7957747E-01            NaN
         13   -1    0    0    0    0  0.00000000000E+00  0.00000000000E+00  0.74505805969E-08  0.10566000000E+00  0.10566000000E+00 0. -1.
     999900   -1    0    0    0    0 -0.00000000000E+00 -0.00000000000E+00 -0.74505805969E-08  0.93827000000E+00  0.93827000000E+00 0.  1.
     999902    2    1    2    0    0  0.74653082883E-02 -0.20085692481E-01 -0.90814091708E-02  0.10206568854E+01  0.10203915130E+01 0.  0.
     999903    2    3    3    0    0  0.13001373254E+00 -0.82307366300E-02 -0.16866712452E-03  0.13204105546E+00  0.21528961963E-01 0.  0.
         14    1    1    2    0    0 -0.74653082883E-02  0.20085692481E-01  0.90814091708E-02  0.23273114592E-01  0.00000000000E+00 0. -1.
     999901    1    3    3    0    0 -0.12254842425E+00 -0.11854955851E-01 -0.89127420463E-02  0.88861582995E+00  0.88000000000E+00 0. -1.
        -11    1    4    4    0    0  0.87316842927E-01  0.23751683772E-02 -0.64921691243E-02  0.87591562747E-01  0.51100000000E-03 0.  1.
         11    1    4    4    0    0  0.42696889615E-01 -0.10605905007E-01  0.63235019998E-02  0.44449492712E-01  0.51100000000E-03 0. -1.
</event>
<event>
 7    1  0.1161093E+005  0.1043930E+01  0.7957747E-01            NaN
         13   -1    0    0    0    0  0.00000000000E+00  0.00000000000E+00  0.74505805969E-08  0.10566000000E+00  0.10566000000E+00 0. -1.
     999900   -1    0    0    0    0 -0.00000000000E+00 -0.00000000000E+00 -0.74505805969E-08  0.93827000000E+00  0.93827000000E+00 0. -1.
     999903    2    1    2    0    0  0.92106158409E-01  0.79553875450E-02  0.66060940425E-01  0.11508496621E+00  0.18266608588E-01 0.  0.
         14    1    1    2    0    0 -0.10338458143E-01 -0.24024816073E-01  0.29887928589E-01  0.39716039323E-01  0.00000000000E+00 0. -1.
     999901    1    1    2    0    0 -0.81767700266E-01  0.16069428528E-01 -0.95948869015E-01  0.88912899447E+00  0.88000000000E+00 0. -1.
        -11    1    3    3    0    0  0.57058739249E-01  0.75584894181E-02  0.30455542839E-01  0.65120132813E-01  0.51100000000E-03 0. -1.
         11    1    3    3    0    0  0.35047419160E-01  0.39689812693E-03  0.35605397586E-01  0.49964833395E-01  0.51100000000E-03 0.  1.
</event>
<event>
 8    1  0.1161093E+005  0.1043930E+01  0.7957747E-01            NaN
         13   -1    0    0    0    0  0.00000000000E+00  0.00000000000E+00  0.74505805969E-08  0.10566000000E+00  0.10566000000E+00 0.  1.
     999900   -1    0    0    0    0 -0.00000000000E+00 -0.00000000000E+00 -0.74505805969E-08  0.93827000000E+00  0.93827000000E+00 0. -1.
     999902    2    1    2    0    0  0.32937832841E-01  0.76560059049E-02 -0.13721149620E-01  0.10074363676E+01  0.10067751733E+01 0.  0.
     999903    2    3    3    0    0 -0.10990248474E+00  0.27179400385E-01 -0.13892619920E-01  0.11570515885E+00  0.19426861306E-01 0.  0.
         14    1    1    2    0    0 -0.32937832841E-01 -0.76560059049E-02  0.13721149620E-01  0.36493632397E-01  0.00000000000E+00 0.  1.
     999901    1    3    3    0    0  0.14284031758E+00 -0.19523394480E-01  0.17147030040E-03  0.89173120875E+00  0.88000000000E+00 0. -1.
        -11    1    4    4    0    0 -0.98369681619E-01  0.22081610645E-01 -0.63843060582E-02  0.10102085070E+00  0.51100000000E-03 0. -1.
         11    1    4    4    0    0 -0.11532803118E-01  0.50977897396E-02 -0.75083138619E-02  0.14684308157E-01  0.51100000000E-03 0.  1.
</event>
<event>
 8    1  0.1161093E+005  0.1043930E+01  0.7957747E-01            NaN
         13   -1    0    0    0    0  0.00000000000E+00  0.00000000000E+00  0.74505805969E-08  0.10566000000E+00  0.10566000000E+00 0.  1.
     999900   -1    0    0    0    0 -0.00000000000E+00 -0.00000000000E+00 -0.74505805969E-08  0.93827000000E+00  0.93827000000E+00 0.  1.
     999902    2    1    2    0    0  0.28027664269E-02  0.12482055087E-01 -0.19700134281E-01  0.10204405877E+01  0.10201702018E+01 0.  0.
     999903    2    3    3    0    0  0.10272735214E-01 -0.11529085535E+00 -0.56765081715E-01  0.13040939309E+00  0.19667864357E-01 0.  0.
         14    1    1    2    0    0 -0.28027664269E-02 -0.12482055087E-01  0.19700134281E-01  0.23489412286E-01  0.00000000000E+00 0.  1.
     999901    1    3    3    0    0 -0.74699687870E-02  0.12777291044E+00  0.37064947434E-01  0.89003119462E+00  0.88000000000E+00 0. -1.
        -11    1    4    4    0    0  0.10247305026E-01 -0.24603114565E-01 -0.11152517081E-01  0.28895678999E-01  0.51100000000E-03 0.  1.
         11    1    4    4    0    0  0.25430188408E-04 -0.90687740784E-01 -0.45612564633E-01  0.10151371409E+00  0.51100000000E-03 0. -1.
</event>
<event>
 8    1  0.1161093E+005  0.1043930E+01  0.7957747E-01            NaN
         13   -1    0    0    0    0  0.00000000000E+00  0.00000000000E+00  0.74505805969E-08  0.10566000000E+00  0.10566000000E+00 0. -1.
     999900   -1    0    0    0    0 -0.00000000000E+00 -0.00000000000E+00 -0.74505805969E-08  0.93827000000E+00  0.93827000000E+00 0.  1.
     999902    2    1    2    0    0  0.21474846805E-01  0.36316919399E-02  0.49782434155E-02  0.10215885332E+01  0.10213442074E+01 0.  0.
     999903    2    3    3    0    0 -0.46754838064E-02 -0.12736009296E+00 -0.23540220919E-01  0.13105162194E+00  0.19440477996E-01 0.  0.
         14    1    1    2    0    0 -0.21474846805E-01 -0.36316919399E-02 -0.49782434155E-02  0.22341466808E-01  0.00000000000E+00 0. -1.
     999901    1    3    3    0    0  0.26150330611E-01  0.13099178490E+00  0.28518464335E-01  0.89053691126E+00  0.88000000000E+00 0. -1.
        -11    1    4    4    0    0  0.33167308578E-03 -0.90214253574E-01 -0.83373306580E-02  0.90600738178E-01  0.51100000000E-03 0.  1.
         11    1    4    4    0    0 -0.50071568922E-02 -0.37145839381E-01 -0.15202890261E-01  0.40450883758E-01  0.51100000000E-03 0. -1.
</event>
<event>
 8    1  0.1161093E+005  0.1043930E+01  0.7957747E-01            NaN
         13   -1    0    0    0    0  0.00000000000E+00  0.00000000000E+00  0.74505805969E-08  0.10566000000E+00  0.10566000000E+00 0. -1.
     999900   -1    0    0    0    0 -0.00000000000E+00 -0.00000000000E+00 -0.74505805969E-08  0.93827000000E+00  0.93827000000E+00 0.  1.
     999902    2    1    2    0    0  0.38445310152E-02  0.69229281444E-02  0.22584725337E-01  0.10199972364E+01  0.10197164239E+01 0.  0.
     999903    2    3    3    0    0  0.98227365109E-01  0.79313748713E-01 -0.25937674432E-01  0.13066997747E+00  0.21508000054E-01 0.  0.
         14    1    1    2    0    0 -0.38445310152E-02 -0.69229281444E-02 -0.22584725337E-01  0.23932763555E-01  0.00000000000E+00 0.  1.
     999901    1    3    3    0    0 -0.94382834094E-01 -0.72390820569E-01  0.48522399769E-01  0.88932725897E+00  0.88000000000E+00 0. -1.
        -11    1    4    4    0    0  0.31927128329E-01  0.35902747753E-01 -0.28801290996E-02  0.48134240247E-01  0.51100000000E-03 0.  1.
         11    1    4    4    0    0  0.66300236780E-01  0.43411000961E-01 -0.23057545332E-01  0.82535737224E-01  0.51100000000E-03 0. -1.
</event>
<event>
 7    1  0.1161093E+005  0.1043930E+01  0.7957747E-01            NaN
         13   -1    0    0    0    0  0.00000000000E+00  0.00000000000E+00  0.74505805969E-08  0.10566000000E+00  0.10566000000E+00 0.  1.
     999900   -1    0    0    0    0 -0.00000000000E+00 -0.00000000000E+00 -0.74505805969E-08  0.93827000000E+00  0.93827000000E+00 0.  1.
     999903    2    1    2    0    0 -0.40408164756E-01 -0.64919452197E-01 -0.34456466695E-01  0.86385938126E-01  0.20686400278E-01 0.  0.
         14    1    1    2    0    0 -0.78544431807E-02 -0.62924768457E-01 -0.16552177340E-01  0.65537724539E-01  0.00000000000E+00 0.  1.
     999901    1    1    2    0    0  0.48262607936E-01  0.12784422065E+00  0.51008644035E-01  0.89200633733E+00  0.88000000000E+00 0. -1.
        -11    1    3    3    0    0 -0.67789311911E-03 -0.74018918756E-02 -0.96858813762E-02  0.12219859306E-01  0.51100000000E-03 0.  1.
         11    1    3    3    0    0 -0.39730271637E-01 -0.57517560321E-01 -0.24770585319E-01  0.74166078821E-01  0.51100000000E-03 0. -1.
</event>
<event>
 8    1  0.1161093E+005  0.1043930E+01  0.7957747E-01            NaN
         13   -1    0    0    0    0  0.00000000000E+00  0.00000000000E+00  0.74505805969E-08  0.10566000000E+00  0.10566000000E+00 0.  1.
     999900   -1    0    0    0    0 -0.00000000000E+00 -0.00000000000E+00 -0.74505805969E-08  0.93827000000E+00  0.93827000000E+00 0.  1.
     999902    2    1    2    0    0 -0.52376306827E-02  0.22446065586E-01 -0.28276013963E-02  0.10207081576E+01  0.10204439666E+01 0.  0.
     999903    2    3    3    0    0  0.81345664729E-01  0.97679040371E-02  0.99932520038E-01  0.13041773004E+00  0.17599620105E-01 0.  0.
         14    1    1    2    0    0  0.52376306827E-02 -0.22446065586E-01  0.28276013963E-02  0.23221842414E-01  0.00000000000E+00 0. -1.
     999901    1    3    3    0    0 -0.86583295412E-01  0.12678161549E-01 -0.10276012143E+00  0.89029042755E+00  0.88000000000E+00 0.  1.
        -11    1    4    4    0    0  0.42033557400E-01  0.12218945757E-01  0.60535752950E-01  0.74705830356E-01  0.51100000000E-03 0.  1.
         11    1    4    4    0    0  0.39312107330E-01 -0.24510417195E-02  0.39396767088E-01  0.55711899682E-01  0.51100000000E-03 0. -1.
</event>
<event>
 8    1  0.1161093E+005  0.1043930E+01  0.7957747E-01            NaN
         13   -1    0    0    0    0  0.00000000000E+00  0.00000000000E+00  0.74505805969E-08  0.10566000000E+00  0.10566000000E+00 0.  1.
     999900   -1    0    0    0    0 -0.00000000000E+00 -0.00000000000E+00 -0.74505805969E-08  0.93827000000E+00  0.93827000000E+00 0.  1.
     999902    2    1    2    0    0 -0.23626887064E-01  0.32425170830E-02  0.47301970097E-02  0.10196170719E+01  0.10193271579E+01 0.  0.
     999903    2    3    3    0    0  0.34105568485E-01 -0.10274256870E+00 -0.66312512643E-01  0.12854303376E+00  0.20167721023E-01 0.  0.
         14    1    1    2    0    0  0.23626887064E-01 -0.32425170830E-02 -0.47301970097E-02  0.24312928107E-01  0.00000000000E+00 0.  1.
     999901    1    3    3    0    0 -0.57732455550E-01  0.10598508578E+00  0.71042709653E-01  0.89107403813E+00  0.88000000000E+00 0.  1.
        -11    1    4    4    0    0  0.32059155683E-01 -0.93700637779E-01 -0.53035189353E-01  0.11234140561E+00  0.51100000000E-03 0. -1.
         11    1    4    4    0    0  0.20464128023E-02 -0.90419309219E-02 -0.13277323290E-01  0.16201628156E-01  0.51100000000E-03 0.  1.
</event>
<event>
 8    1  0.1161093E+005  0.1043930E+01  0.7957747E-01            NaN
         13   -1    0    0    0    0  0.00000000000E+00  0.00000000000E+00  0.74505805969E-08  0.10566000000E+00  0.10566000000E+00 0.  1.
     999900   -1    0    0    0    0 -0.00000000000E+00 -0.00000000000E+00 -0.74505805969E-08  0.93827000000E+00  0.93827000000E+00 0.  1.
     999902    2    1    2    0    0 -0.13993830559E-01 -0.17999369311E-01 -0.77630036875E-02  0.10198453822E+01  0.10195609519E+01 0.  0.
     999903    2    3    3    0    0  0.14919263247E-02 -0.92488170534E-01 -0.92662938532E-01  0.13249179476E+00  0.20282208158E-01 0.  0.
         14    1    1    2    0    0  0.13993830559E-01  0.17999369311E-01  0.77630036875E-02  0.24084617820E-01  0.00000000000E+00 0.  1.
     999901    1    3    3    0    0 -0.15485756883E-01  0.74488801223E-01  0.84899934845E-01  0.88735358742E+00  0.88000000000E+00 0. -1.
        -11    1    4    4    0    0  0.91031649759E-02 -0.52937845477E-01 -0.60822521154E-01  0.81147540301E-01  0.51100000000E-03 0.  1.
         11    1    4    4    0    0 -0.76112386512E-02 -0.39550325056E-01 -0.31840417379E-01  0.51344254457E-01  0.51100000000E-03 0. -1.
</event>
<event>
 8    1  0.1161093E+005  0.1043930E+01  0.7957747E-01            NaN
         13   -1    0    0    0    0  0.00000000000E+00  0.00000000000E+00  0.74505805969E-08  0.10566000000E+00  0.10566000000E+00 0. -1.
     999900   -1    0    0    0    0 -0.00000000000E+00 -0.00000000000E+00 -0.74505805969E-08  0.93827000000E+00  0.93827000000E+00 0.  1.
     999902    2    1    2    0    0  0.10037988509E-01 -0.14260324248E-01  0.16362640044E-01  0.10200165299E+01  0.10197361753E+01 0.  0.
     999903    2    3    3    0    0  0.10596465371E+00  0.72010218470E-01  0.14654698009E-01  0.13060804747E+00  0.20729748879E-01 0.  0.
         14    1    1    2    0    0 -0.10037988509E-01  0.14260324248E-01 -0.16362640044E-01  0.23913470057E-01  0.00000000000E+00 0.  1.
     999901    1    3    3    0    0 -0.95926665203E-01 -0.86270542718E-01  0.17079420352E-02  0.88940848248E+00  0.88000000000E+00 0.  1.
        -11    1    4    4    0    0  0.66051741477E-01  0.54145735210E-01  0.15812167313E-01  0.86861262654E-01  0.51100000000E-03 0. -1.
         11    1    4    4    0    0  0.39912912234E-01  0.17864483260E-01 -0.11574693040E-02  0.43746784812E-01  0.51100000000E-03 0.  1.
</event>
<event>
 8    1  0.1161093E+005  0.1043930E+01  0.7957747E-01            NaN
         13   -1    0    0    0    0  0.00000000000E+00  0.00000000000E+00  0.74505805969E-08  0.10566000000E+00  0.10566000000E+00 0. -1.
     999900   -1    0    0    0    0 -0.00000000000E+00 -0.00000000000E+00 -0.74505805969E-08  0.93827000000E+00  0.93827000000E+00 0. -1.
     999902    2    1    2    0    0  0.11673697814E-01  0.15160401172E-01  0.13609642915E-01  0.10204494684E+01  0.10201792892E+01 0.  0.
     999903    2    3    3    0    0 -0.26658953132E-01 -0.37006997128E-01  0.12181971296E+00  0.13146113954E+00  0.19020281942E-01 0.  0.
         14    1    1    2    0    0 -0.11673697814E-01 -0.15160401172E-01 -0.13609642915E-01  0.23480531608E-01  0.00000000000E+00 0.  1.
     999901    1    3    3    0    0  0.38332650945E-01  0.52167398300E-01 -0.10821007005E+00  0.88898832885E+00  0.88000000000E+00 0.  1.
        -11    1    4    4    0    0 -0.10942552613E-01 -0.30162158193E-01  0.73963581645E-01  0.80624858296E-01  0.51100000000E-03 0. -1.
         11    1    4    4    0    0 -0.15716400519E-01 -0.68448389354E-02  0.47856131315E-01  0.50836281245E-01  0.51100000000E-03 0.  1.
</event>
<event>
 8    1  0.1161093E+005  0.1043930E+01  0.7957747E-01            NaN
         13   -1    0    0    0    0  0.00000000000E+00  0.00000000000E+00  0.74505805969E-08  0.10566000000E+00  0.10566000000E+00 0. -1.
     999900   -1    0    0    0    0 -0.00000000000E+00 -0.00000000000E+00 -0.74505805969E-08  0.93827000000E+00  0.93827000000E+00 0. -1.
     999902    2    1    2    0    0  0.18791012358E-01 -0.10516208556E-01 -0.93317802774E-02  0.10204614059E+01  0.10201915045E+01 0.  0.
     999903    2    3    3    0    0  0.65511958077E-01 -0.55027988742E-01 -0.10052730502E+00  0.13339840411E+00  0.19222355922E-01 0.  0.
         14    1    1    2    0    0 -0.18791012358E-01  0.10516208556E-01  0.93317802774E-02  0.23468594141E-01  0.00000000000E+00 0. -1.
     999901    1    3    3    0    0 -0.46720945720E-01  0.44511780187E-01  0.91195524744E-01  0.88706300175E+00  0.88000000000E+00 0.  1.
        -11    1    4    4    0    0  0.29805843726E-01 -0.28543034579E-01 -0.62484412420E-01  0.74884284464E-01  0.51100000000E-03 0.  1.
         11    1    4    4    0    0  0.35706114351E-01 -0.26484954164E-01 -0.38042892602E-01  0.58514119643E-01  0.51100000000E-03 0. -1.
</event>
<event>
 8    1  0.1161093E+005  0.1043930E+01  0.7957747E-01            NaN
         13   -1    0    0    0    0  0.00000000000E+00  0.00000000000E+00  0.74505805969E-08  0.10566000000E+00  0.10566000000E+00 0.  1.
     999900   -1    0    0    0    0 -0.00000000000E+00 -0.00000000000E+00 -0.74505805969E-08  0.93827000000E+00  0.93827000000E+00 0.  1.
     999902    2    1    2    0    0 -0.21027970996E-01 -0.19134404030E-01  0.79685329095E-02  0.10144037659E+01  0.10139739651E+01 0.  0.
     999903    2    3    3    0    0 -0.11136300651E+00  0.39692816231E-01  0.42966287118E-01  0.12713497729E+00  0.18438051494E-01 0.  0.
         14    1    1    2    0    0  0.21027970996E-01  0.19134404030E-01 -0.79685329095E-02  0.29526234073E-01  0.00000000000E+00 0.  1.
     999901    1    3    3    0    0  0.90335035516E-01 -0.58827220261E-01 -0.34997754208E-01  0.88726878863E+00  0.88000000000E+00 0.  1.
        -11    1    4    4    0    0 -0.44632419260E-01  0.12170547390E-01  0.25659160516E-01  0.52903957434E-01  0.51100000000E-03 0. -1.
         11    1    4    4    0    0 -0.66730587252E-01  0.27522268841E-01  0.17307126602E-01  0.74231019859E-01  0.51100000000E-03 0.  1.
</event>
<event>
 8    1  0.1161093E+005  0.1043930E+01  0.7957747E-01            NaN
         13   -1    0    0    0    0  0.00000000000E+00  0.00000000000E+00  0.74505805969E-08  0.10566000000E+00  0.10566000000E+00 0. -1.
     999900   -1    0    0    0    0 -0.00000000000E+00 -0.00000000000E+00 -0.74505805969E-08  0.93827000000E+00  0.93827000000E+00 0. -1.
     999902    2    1    2    0    0  0.15711443865E-01 -0.16102655678E-01  0.61340644018E-02  0.10206110863E+01  0.10203446564E+01 0.  0.
     999903    2    3    3    0    0  0.67181811348E-02 -0.13088639308E+00  0.12003906898E-01  0.13309171179E+00  0.19822414511E-01 0.  0.
         14    1    1    2    0    0 -0.15711443865E-01  0.16102655678E-01 -0.61340644018E-02  0.23318913660E-01  0.00000000000E+00 0.  1.
     999901    1    3    3    0    0  0.89932627299E-02  0.11478373740E+00 -0.58698424959E-02  0.88751937455E+00  0.88000000000E+00 0.  1.
        -11    1    4    4    0    0 -0.24929865845E-02 -0.66483157730E-01  0.14048947233E-01  0.67998965310E-01  0.51100000000E-03 0. -1.
         11    1    4    4    0    0  0.92111677194E-02 -0.64403235346E-01 -0.20450403349E-02  0.65092746483E-01  0.51100000000E-03 0.  1.
</event>
<event>
 8    1  0.1217073E+005  0.1043930E+01  0.7957747E-01            NaN
         13   -1    0    0    0    0  0.00000000000E+00  0.00000000000E+00  0.74505805969E-08  0.10566000000E+00  0.10566000000E+00 0. -1.
     999900   -1    0    0    0    0 -0.00000000000E+00 -0.00000000000E+00 -0.74505805969E-08  0.93827000000E+00  0.93827000000E+00 0. -1.
     999902    2    1    2    0    0 -0.23455453956E-01 -0.34063403929E-02 -0.35492000856E-02  0.10199642266E+01  0.10196826296E+01 0.  0.
     999903    2    3    3    0    0 -0.22115436416E-01  0.65992003041E-01  0.10893023605E+00  0.13009370268E+00  0.14647121203E-01 0.  0.
         14    1    1    2    0    0  0.23455453956E-01  0.34063403929E-02  0.35492000856E-02  0.23965773436E-01  0.00000000000E+00 0. -1.
     999901    1    3    3    0    0 -0.13400175400E-02 -0.69398343434E-01 -0.11247943613E+00  0.88987052388E+00  0.88000000000E+00 0. -1.
        -11    1    4    4    0    0 -0.17731460071E-01  0.30849360976E-01  0.50829357322E-01  0.62048146109E-01  0.51100000000E-03 0.  1.
         11    1    4    4    0    0 -0.43839763450E-02  0.35142642066E-01  0.58100878725E-01  0.68045556574E-01  0.51100000000E-03 0. -1.
</event>
<event>
 8    1  0.1161093E+005  0.1043930E+01  0.7957747E-01            NaN
         13   -1    0    0    0    0  0.00000000000E+00  0.00000000000E+00  0.74505805969E-08  0.10566000000E+00  0.10566000000E+00 0.  1.
     999900   -1    0    0    0    0 -0.00000000000E+00 -0.00000000000E+00 -0.74505805969E-08  0.93827000000E+00  0.93827000000E+00 0. -1.
     999902    2    1    2    0    0  0.13630366625E-01  0.19451065888E-01  0.81661077411E-03  0.10201645269E+01  0.10198876724E+01 0.  0.
     999903    2    3    3    0    0  0.11624318283E+00  0.35372652708E-01  0.49462767987E-01  0.13272476242E+00  0.20139389966E-01 0.  0.
         14    1    1    2    0    0 -0.13630366625E-01 -0.19451065888E-01 -0.81661077411E-03  0.23765473100E-01  0.00000000000E+00 0. -1.
     999901    1    3    3    0    0 -0.10261281620E+00 -0.15921586819E-01 -0.48646157213E-01  0.88743976448E+00  0.88000000000E+00 0. -1.
        -11    1    4    4    0    0  0.88709369609E-01  0.19560340092E-01  0.30962478603E-01  0.95973409668E-01  0.51100000000E-03 0. -1.
         11    1    4    4    0    0  0.27533813217E-01  0.15812312615E-01  0.18500289384E-01  0.36751352748E-01  0.51100000000E-03 0.  1.
</event>
<event>
 8    1  0.1161093E+005  0.1043930E+01  0.7957747E-01            NaN
         13   -1    0    0    0    0  0.00000000000E+00  0.00000000000E+00  0.74505805969E-08  0.10566000000E+00  0.10566000000E+00 0. -1.
     999900   -1    0    0    0    0 -0.00000000000E+00 -0.00000000000E+00 -0.74505805969E-08  0.93827000000E+00  0.93827000000E+00 0. -1.
     999902    2    1    2    0    0 -0.74414386113E-02 -0.23416879488E-01  0.35045741574E-02  0.10191105058E+01  0.10188082330E+01 0.  0.
     999903    2    3    3    0    0  0.74401728944E-01  0.54496486969E-01 -0.85562529306E-01  0.12742572646E+00  0.20270297977E-01 0.  0.
         14    1    1    2    0    0  0.74414386113E-02  0.23416879488E-01 -0.35045741574E-02  0.24819494225E-01  0.00000000000E+00 0. -1.
     999901    1    3    3    0    0 -0.81843167555E-01 -0.77913366457E-01  0.89067103463E-01  0.89168477932E+00  0.88000000000E+00 0.  1.
        -11    1    4    4    0    0  0.31799167480E-01  0.11823226305E-01 -0.26924873781E-01  0.43314959099E-01  0.51100000000E-03 0. -1.
         11    1    4    4    0    0  0.42602561464E-01  0.42673260664E-01 -0.58637655525E-01  0.84110767358E-01  0.51100000000E-03 0.  1.
</event>
<event>
 8    1  0.1161093E+005  0.1043930E+01  0.7957747E-01            NaN
         13   -1    0    0    0    0  0.00000000000E+00  0.00000000000E+00  0.74505805969E-08  0.10566000000E+00  0.10566000000E+00 0. -1.
     999900   -1    0    0    0    0 -0.00000000000E+00 -0.00000000000E+00 -0.74505805969E-08  0.93827000000E+00  0.93827000000E+00 0.  1.
     999902    2    1    2    0    0  0.18137438744E-01  0.11826438241E-01 -0.10638716518E-01  0.10198050417E+01  0.10195196464E+01 0.  0.
     999903    2    3    3    0    0  0.99985706772E-01 -0.72450689210E-01  0.37881934630E-01  0.13067286545E+00  0.19852276134E-01 0.  0.
         14    1    1    2    0    0 -0.18137438744E-01 -0.11826438241E-01  0.10638716518E-01  0.24124958338E-01  0.00000000000E+00 0. -1.
     999901    1    3    3    0    0 -0.81848268028E-01  0.84277127450E-01 -0.48520651147E-01  0.88913217621E+00  0.88000000000E+00 0.  1.
        -11    1    4    4    0    0  0.93223374381E-01 -0.65601754421E-01  0.29135758084E-01  0.11765772917E+00  0.51100000000E-03 0.  1.
         11    1    4    4    0    0  0.67623323910E-02 -0.68489347890E-02  0.87461765457E-02  0.13015136276E-01  0.51100000000E-03 0. -1.
</event>
<event>
 8    1  0.1161093E+005  0.1043930E+01  0.7957747E-01            NaN
         13   -1    0    0    0    0  0.00000000000E+00  0.00000000000E+00  0.74505805969E-08  0.10566000000E+00  0.10566000000E+00 0. -1.
     999900   -1    0    0    0    0 -0.00000000000E+00 -0.00000000000E+00 -0.74505805969E-08  0.93827000000E+00  0.93827000000E+00 0.  1.
     999902    2    1    2    0    0 -0.23066640033E-02 -0.60476742815E-03 -0.23588327252E-01  0.10202214441E+01  0.10199459296E+01 0.  0.
     999903    2    3    3    0    0  0.16453679505E-01 -0.44859962499E-01  0.11665206423E+00  0.12782139913E+00  0.21153396458E-01 0.  0.
         14    1    1    2    0    0  0.23066640033E-02  0.60476742815E-03  0.23588327252E-01  0.23708555946E-01  0.00000000000E+00 0. -1.
     999901    1    3    3    0    0 -0.18760343508E-01  0.44255195071E-01 -0.14024039148E+00  0.89240004493E+00  0.88000000000E+00 0.  1.
        -11    1    4    4    0    0  0.11351105131E-01 -0.36314191403E-01  0.65867182830E-01  0.76067831440E-01  0.51100000000E-03 0.  1.
         11    1    4    4    0    0  0.51025743737E-02 -0.85457710958E-02  0.50784881399E-01  0.51753567689E-01  0.51100000000E-03 0. -1.
</event>
<event>
 8    1  0.1161093E+005  0.1043930E+01  0.7957747E-01            NaN
         13   -1    0    0    0    0  0.00000000000E+00  0.00000000000E+00  0.74505805969E-08  0.10566000000E+00  0.10566000000E+00 0.  1.
     999900   -1    0    0    0    0 -0.00000000000E+00 -0.00000000000E+00 -0.74505805969E-08  0.93827000000E+00  0.93827000000E+00 0.  1.
     999902    2    1    2    0    0 -0.11687718911E-01 -0.28175029897E-02 -0.20235007834E-01  0.10203928668E+01  0.10201213683E+01 0.  0.
     999903    2    3    3    0    0 -0.11059914735E+00 -0.28158362250E-01 -0.66082560642E-01  0.13330345310E+00  0.19438133356E-01 0.  0.
         14    1    1    2    0    0  0.11687718911E-01  0.28175029897E-02  0.20235007834E-01  0.23537133183E-01  0.00000000000E+00 0.  1.
     999901    1    3    3    0    0  0.98911428442E-01  0.25340859261E-01  0.45847552808E-01  0.88708941371E+00  0.88000000000E+00 0.  1.
        -11    1    4    4    0    0 -0.23365918168E-01 -0.13340883573E-01 -0.20068292163E-01  0.33569968390E-01  0.51100000000E-03 0.  1.
         11    1    4    4    0    0 -0.87233229185E-01 -0.14817478677E-01 -0.46014268479E-01  0.99733484713E-01  0.51100000000E-03 0. -1.
</event>
<event>
 8    1  0.1161093E+005  0.1043930E+01  0.7957747E-01            NaN
         13   -1    0    0    0    0  0.00000000000E+00  0.00000000000E+00  0.74505805969E-08  0.10566000000E+00  0.10566000000E+00 0.  1.
     999900   -1    0    0    0    0 -0.00000000000E+00 -0.00000000000E+00 -0.74505805969E-08  0.93827000000E+00  0.93827000000E+00 0. -1.
     999902    2    1    2    0    0  0.36397468974E-02  0.22199979247E-01 -0.72276173251E-02  0.10203010921E+01  0.10200274473E+01 0.  0.
     999903    2    3    3    0    0 -0.28484856778E-02  0.11085295937E+00 -0.71375569976E-01  0.13349986980E+00  0.20766578367E-01 0.  0.
         14    1    1    2    0    0 -0.36397468974E-02 -0.22199979247E-01  0.72276173251E-02  0.23628907894E-01  0.00000000000E+00 0.  1.
     999901    1    3    3    0    0  0.64882325752E-02 -0.88652980121E-01  0.64147952651E-01  0.88680122230E+00  0.88000000000E+00 0.  1.
        -11    1    4    4    0    0 -0.10386434868E-01  0.74774881803E-01 -0.53529324822E-01  0.92546262565E-01  0.51100000000E-03 0. -1.
         11    1    4    4    0    0  0.75379491905E-02  0.36078077565E-01 -0.17846245154E-01  0.40953607239E-01  0.51100000000E-03 0.  1.
</event>
<event>
 8    1  0.1161093E+005  0.1043930E+01  0.7957747E-01            NaN
         13   -1    0    0    0    0  0.00000000000E+00  0.00000000000E+00  0.74505805969E-08  0.10566000000E+00  0.10566000000E+00 0.  1.
     999900   -1    0    0    0    0 -0.00000000000E+00 -0.00000000000E+00 -0.74505805969E-08  0.93827000000E+00  0.93827000000E+00 0.  1.
     999902    2    1    2    0    0 -0.21592882519E-01  0.85677518699E-02  0.52130133024E-02  0.10201217146E+01  0.10198438498E+01 0.  0.
     999903    2    3    3    0    0 -0.47041157408E-01 -0.10646823521E+00  0.56442105336E-01  0.13079314037E+00  0.19307478164E-01 0.  0.
         14    1    1    2    0    0  0.21592882519E-01 -0.85677518699E-02 -0.52130133024E-02  0.23808285434E-01  0.00000000000E+00 0. -1.
     999901    1    3    3    0    0  0.25448274889E-01  0.11503598708E+00 -0.51229092033E-01  0.88932857420E+00  0.88000000000E+00 0. -1.
        -11    1    4    4    0    0 -0.20045918780E-01 -0.52069289100E-01  0.16808987573E-01  0.58273947106E-01  0.51100000000E-03 0. -1.
         11    1    4    4    0    0 -0.26995238628E-01 -0.54398946111E-01  0.39633117763E-01  0.72519193260E-01  0.51100000000E-03 0.  1.
</event>
<event>
 8    1  0.1161093E+005  0.1043930E+01  0.7957747E-01            NaN
         13   -1    0    0    0    0  0.00000000000E+00  0.00000000000E+00  0.74505805969E-08  0.10566000000E+00  0.10566000000E+00 0. -1.
     999900   -1    0    0    0    0 -0.00000000000E+00 -0.00000000000E+00 -0.74505805969E-08  0.93827000000E+00  0.93827000000E+00 0. -1.
     999902    2    1    2    0    0 -0.22832801359E-01 -0.15514573291E-02  0.59389792037E-03  0.10210368449E+01  0.10207801634E+01 0.  0.
     999903    2    3    3    0    0 -0.71837038929E-01 -0.40185675602E-01 -0.10247116444E+00  0.13282717074E+00  0.19164265164E-01 0.  0.
         14    1    1    2    0    0  0.22832801359E-01  0.15514573291E-02 -0.59389792037E-03  0.22893155145E-01  0.00000000000E+00 0.  1.
     999901    1    3    3    0    0  0.49004237570E-01  0.38634218273E-01  0.10306506236E+00  0.88820967412E+00  0.88000000000E+00 0.  1.
        -11    1    4    4    0    0 -0.14586977194E-01 -0.68459155607E-04 -0.16940598951E-01  0.22361341733E-01  0.51100000000E-03 0.  1.
         11    1    4    4    0    0 -0.57250061736E-01 -0.40117216446E-01 -0.85530565484E-01  0.11046582900E+00  0.51100000000E-03 0. -1.
</event>
<event>
 8    1  0.1161093E+005  0.1043930E+01  0.7957747E-01            NaN
         13   -1    0    0    0    0  0.00000000000E+00  0.00000000000E+00  0.74505805969E-08  0.10566000000E+00  0.10566000000E+00 0.  1.
     999900   -1    0    0    0    0 -0.00000000000E+00 -0.00000000000E+00 -0.74505805969E-08  0.93827000000E+00  0.93827000000E+00 0. -1.
     999902    2    1    2    0    0  0.43555849103E-02  0.23388156158E-01 -0.86057707233E-03  0.10201241696E+01  0.10198463629E+01 0.  0.
     999903    2    3    3    0    0  0.71529347110E-04 -0.67168864236E-01  0.10802504418E+00  0.12879089546E+00  0.20150015978E-01 0.  0.
         14    1    1    2    0    0 -0.43555849103E-02 -0.23388156158E-01  0.86057707233E-03  0.23805830405E-01  0.00000000000E+00 0.  1.
     999901    1    3    3    0    0  0.42840555632E-02  0.90557020394E-01 -0.10888562125E+00  0.89133327414E+00  0.88000000000E+00 0. -1.
        -11    1    4    4    0    0  0.52003797999E-02 -0.35079285159E-01  0.72067788536E-01  0.80322023523E-01  0.51100000000E-03 0. -1.
         11    1    4    4    0    0 -0.51288504528E-02 -0.32089579077E-01  0.35957255639E-01  0.48468871932E-01  0.51100000000E-03 0.  1.
</event>
<event>
 8    1  0.1161093E+005  0.1043930E+01  0.7957747E-01            NaN
         13   -1    0    0    0    0  0.00000000000E+00  0.00000000000E+00  0.74505805969E-08  0.10566000000E+00  0.10566000000E+00 0. -1.
     999900   -1    0    0    0    0 -0.00000000000E+00 -0.00000000000E+00 -0.74505805969E-08  0.93827000000E+00  0.93827000000E+00 0. -1.
     999902    2    1    2    0    0  0.13333968033E-01  0.18944305552E-01 -0.70516518029E-02  0.10197141538E+01  0.10194265781E+01 0.  0.
     999903    2    3    3    0    0 -0.48400295062E-01 -0.47644155051E-01 -0.10804689914E+00  0.12929561042E+00  0.20752551323E-01 0.  0.
         14    1    1    2    0    0 -0.13333968033E-01 -0.18944305552E-01  0.70516518029E-02  0.24215846248E-01  0.00000000000E+00 0. -1.
     999901    1    3    3    0    0  0.61734263094E-01  0.66588460603E-01  0.10099524734E+00  0.89041854333E+00  0.88000000000E+00 0.  1.
        -11    1    4    4    0    0 -0.14576167009E-01 -0.28590683117E-02 -0.24117162472E-01  0.28329093932E-01  0.51100000000E-03 0. -1.
         11    1    4    4    0    0 -0.33824128053E-01 -0.44785086739E-01 -0.83929736672E-01  0.10096651649E+00  0.51100000000E-03 0.  1.
</event>
<event>
 8    1  0.1161093E+005  0.1043930E+01  0.7957747E-01            NaN
         13   -1    0    0    0    0  0.00000000000E+00  0.00000000000E+00  0.74505805969E-08  0.10566000000E+00  0.10566000000E+00 0. -1.
     999900   -1    0    0    0    0 -0.00000000000E+00 -0.00000000000E+00 -0.74505805969E-08  0.93827000000E+00  0.93827000000E+00 0. -1.
     999902    2    1    2    0    0 -0.95712730407E-02  0.24241703929E-01  0.41267526835E-02  0.10175425112E+01  0.10172003060E+01 0.  0.
     999903    2    3    3    0    0  0.24711788048E-01  0.52826365065E-01 -0.11291157503E+00  0.12867222749E+00  0.20154925869E-01 0.  0.
         14    1    1    2    0    0  0.95712730407E-02 -0.24241703929E-01 -0.41267526835E-02  0.26387488791E-01  0.00000000000E+00 0.  1.
     999901    1    3    3    0    0 -0.34283061088E-01 -0.28584661137E-01  0.11703832771E+00  0.88887028372E+00  0.88000000000E+00 0.  1.
        -11    1    4    4    0    0  0.22377195681E-01  0.45911628801E-01 -0.79685212826E-01  0.94649938245E-01  0.51100000000E-03 0. -1.
         11    1    4    4    0    0  0.23345923672E-02  0.69147362646E-02 -0.33226362202E-01  0.34022289243E-01  0.51100000000E-03 0.  1.
</event>
<event>
 8    1  0.1161093E+005  0.1043930E+01  0.7957747E-01            NaN
         13   -1    0    0    0    0  0.00000000000E+00  0.00000000000E+00  0.74505805969E-08  0.10566000000E+00  0.10566000000E+00 0. -1.
     999900   -1    0    0    0    0 -0.00000000000E+00 -0.00000000000E+00 -0.74505805969E-08  0.93827000000E+00  0.93827000000E+00 0. -1.
     999902    2    1    2    0    0 -0.15679215622E-01  0.11850746424E-01 -0.12852538767E-01  0.10204466922E+01  0.10201764484E+01 0.  0.
     999903    2    3    3    0    0 -0.44312021178E-01 -0.10648457597E+00 -0.58256066524E-01  0.13090491890E+00  0.20971608553E-01 0.  0.
         14    1    1    2    0    0  0.15679215622E-01 -0.11850746424E-01  0.12852538767E-01  0.23483307818E-01  0.00000000000E+00 0.  1.
     999901    1    3    3    0    0  0.28632805556E-01  0.11833532239E+00  0.45403527757E-01  0.88954177328E+00  0.88000000000E+00 0.  1.
        -11    1    4    4    0    0 -0.84366523976E-02 -0.45388142234E-01 -0.26804131596E-01  0.53385233453E-01  0.51100000000E-03 0. -1.
         11    1    4    4    0    0 -0.35875368780E-01 -0.61096433734E-01 -0.31451934928E-01  0.77519685448E-01  0.51100000000E-03 0.  1.
</event>
<event>
 8    1  0.1161093E+005  0.1043930E+01  0.7957747E-01            NaN
         13   -1    0    0    0    0  0.00000000000E+00  0.00000000000E+00  0.74505805969E-08  0.10566000000E+00  0.10566000000E+00 0. -1.
     999900   -1    0    0    0    0 -0.00000000000E+00 -0.00000000000E+00 -0.74505805969E-08  0.93827000000E+00  0.93827000000E+00 0. -1.
     999902    2    1    2    0    0  0.88732035925E-02  0.19203771351E-01  0.98454803499E-02  0.10205965035E+01  0.10203297363E+01 0.  0.
     999903    2    3    3    0    0 -0.12143936341E+00  0.43602147459E-01  0.65486276714E-02  0.13065969949E+00  0.19504007230E-01 0.  0.
         14    1    1    2    0    0 -0.88732035925E-02 -0.19203771351E-01 -0.98454803499E-02  0.23333496511E-01  0.00000000000E+00 0. -1.
     999901    1    3    3    0    0  0.13031256700E+00 -0.24398376108E-01  0.32968526786E-02  0.88993680400E+00  0.88000000000E+00 0.  1.
        -11    1    4    4    0    0 -0.80424493151E-01  0.25166636568E-01 -0.43620703112E-02  0.84384521526E-01  0.51100000000E-03 0. -1.
         11    1    4    4    0    0 -0.41014870258E-01  0.18435510891E-01  0.10910697983E-01  0.46275177964E-01  0.51100000000E-03 0.  1.
</event>
<event>
 8    1  0.1161093E+005  0.1043930E+01  0.7957747E-01            NaN
         13   -1    0    0    0    0  0.00000000000E+00  0.00000000000E+00  0.74505805969E-08  0.10566000000E+00  0.10566000000E+00 0. -1.
     999900   -1    0    0    0    0 -0.00000000000E+00 -0.00000000000E+00 -0.74505805969E-08  0.93827000000E+00  0.93827000000E+00 0.  1.
     999902    2    1    2    0    0 -0.79564019758E-02 -0.17246168436E-01 -0.11056654369E-01  0.10219530970E+01  0.10217167652E+01 0.  0.
     999903    2    3    3    0    0  0.35969518722E-01 -0.27386024492E-01 -0.12390176577E+00  0.13360275941E+00  0.21313121439E-01 0.  0.
         14    1    1    2    0    0  0.79564019758E-02  0.17246168436E-01  0.11056654369E-01  0.21976902965E-01  0.00000000000E+00 0. -1.
     999901    1    3    3    0    0 -0.43925920697E-01  0.10139856056E-01  0.11284511140E+00  0.88835033762E+00  0.88000000000E+00 0. -1.
        -11    1    4    4    0    0  0.33693711590E-01 -0.14162873824E-01 -0.90407803275E-01  0.97517614868E-01  0.51100000000E-03 0. -1.
         11    1    4    4    0    0  0.22758071316E-02 -0.13223150667E-01 -0.33493962499E-01  0.36085144541E-01  0.51100000000E-03 0.  1.
</event>
<event>
 8    1  0.1161093E+005  0.1043930E+01  0.7957747E-01            NaN
         13   -1    0    0    0    0  0.00000000000E+00  0.00000000000E+00  0.74505805969E-08  0.10566000000E+00  0.10566000000E+00 0.  1.
     999900   -1    0    0    0    0 -0.00000000000E+00 -0.00000000000E+00 -0.74505805969E-08  0.93827000000E+00  0.93827000000E+00 0.  1.
     999902    2    1    2    0    0  0.15747681292E-01  0.11597403886E-01  0.13813400078E-01  0.10199863314E+01  0.10197052599E+01 0.  0.
     999903    2    3    3    0    0 -0.43344943566E-01  0.12112687163E+00  0.15984385164E-01  0.13122688378E+00  0.20359059246E-01 0.  0.
         14    1    1    2    0    0 -0.15747681292E-01 -0.11597403886E-01 -0.13813400078E-01  0.23943668572E-01  0.00000000000E+00 0. -1.
     999901    1    3    3    0    0  0.59092624858E-01 -0.10952946774E+00 -0.21709850857E-02  0.88875944765E+00  0.88000000000E+00 0. -1.
        -11    1    4    4    0    0 -0.71869167623E-02  0.48453874002E-01  0.36519755353E-02  0.49122578563E-01  0.51100000000E-03 0.  1.
         11    1    4    4    0    0 -0.36158026804E-01  0.72672997625E-01  0.12332409628E-01  0.82104305212E-01  0.51100000000E-03 0. -1.
</event>
<event>
 8    1  0.1161093E+005  0.1043930E+01  0.7957747E-01            NaN
         13   -1    0    0    0    0  0.00000000000E+00  0.00000000000E+00  0.74505805969E-08  0.10566000000E+00  0.10566000000E+00 0. -1.
     999900   -1    0    0    0    0 -0.00000000000E+00 -0.00000000000E+00 -0.74505805969E-08  0.93827000000E+00  0.93827000000E+00 0. -1.
     999902    2    1    2    0    0  0.18657352084E-01  0.19911544883E-01 -0.18704917373E-02  0.10165792204E+01  0.10162112212E+01 0.  0.
     999903    2    3    3    0    0 -0.80085279135E-01  0.21857791395E-01  0.92779927798E-01  0.12601052735E+00  0.19471081666E-01 0.  0.
         14    1    1    2    0    0 -0.18657352084E-01 -0.19911544883E-01  0.18704917373E-02  0.27350779619E-01  0.00000000000E+00 0. -1.
     999901    1    3    3    0    0  0.98742631219E-01 -0.19462465115E-02 -0.94650419535E-01  0.89056869303E+00  0.88000000000E+00 0. -1.
        -11    1    4    4    0    0 -0.37080784161E-01  0.74942566219E-03  0.35579801550E-01  0.51397758629E-01  0.51100000000E-03 0.  1.
         11    1    4    4    0    0 -0.43004494975E-01  0.21108365732E-01  0.57200126248E-01  0.74612768717E-01  0.51100000000E-03 0. -1.
</event>
<event>
 8    1  0.1161093E+005  0.1043930E+01  0.7957747E-01            NaN
         13   -1    0    0    0    0  0.00000000000E+00  0.00000000000E+00  0.74505805969E-08  0.10566000000E+00  0.10566000000E+00 0.  1.
     999900   -1    0    0    0    0 -0.00000000000E+00 -0.00000000000E+00 -0.74505805969E-08  0.93827000000E+00  0.93827000000E+00 0.  1.
     999902    2    1    2    0    0  0.21435412434E-01 -0.45742472994E-02 -0.74495214873E-02  0.10207805720E+01  0.10205180450E+01 0.  0.
     999903    2    3    3    0    0  0.97644961974E-01  0.78493491879E-01 -0.40412444106E-01  0.13297727231E+00  0.18815484237E-01 0.  0.
         14    1    1    2    0    0 -0.21435412434E-01  0.45742472994E-02  0.74495214873E-02  0.23149427962E-01  0.00000000000E+00 0. -1.
     999901    1    3    3    0    0 -0.76209549540E-01 -0.83067739178E-01  0.32962922619E-01  0.88780329972E+00  0.88000000000E+00 0.  1.
        -11    1    4    4    0    0  0.27770851686E-01  0.12248249669E-01 -0.11208441301E-01  0.32359389684E-01  0.51100000000E-03 0. -1.
         11    1    4    4    0    0  0.69874110288E-01  0.66245242210E-01 -0.29204002806E-01  0.10061788263E+00  0.51100000000E-03 0.  1.
</event>
<event>
 8    1  0.1161093E+005  0.1043930E+01  0.7957747E-01            NaN
         13   -1    0    0    0    0  0.00000000000E+00  0.00000000000E+00  0.74505805969E-08  0.10566000000E+00  0.10566000000E+00 0.  1.
     999900   -1    0    0    0    0 -0.00000000000E+00 -0.00000000000E+00 -0.74505805969E-08  0.93827000000E+00  0.93827000000E+00 0.  1.
     999902    2    1    2    0    0 -0.14018238791E-01 -0.14898360884E-01 -0.12266591861E-01  0.10200775064E+01  0.10197985966E+01 0.  0.
     999903    2    3    3    0    0 -0.45004973078E-01 -0.61033370317E-01  0.10438838778E+00  0.13064116742E+00  0.20485585818E-01 0.  0.
         14    1    1    2    0    0  0.14018238791E-01  0.14898360884E-01  0.12266591861E-01  0.23852493616E-01  0.00000000000E+00 0. -1.
     999901    1    3    3    0    0  0.30986734287E-01  0.46135009434E-01 -0.11665497964E+00  0.88943633897E+00  0.88000000000E+00 0.  1.
        -11    1    4    4    0    0 -0.34624442026E-01 -0.30034247919E-01  0.59586396212E-01  0.75177840939E-01  0.51100000000E-03 0.  1.
         11    1    4    4    0    0 -0.10380531052E-01 -0.30999122398E-01  0.44801991571E-01  0.55463326479E-01  0.51100000000E-03 0. -1.
</event>
<event>
 8    1  0.1161093E+005  0.1043930E+01  0.7957747E-01            NaN
         13   -1    0    0    0    0  0.00000000000E+00  0.00000000000E+00  0.74505805969E-08  0.10566000000E+00  0.10566000000E+00 0.  1.
     999900   -1    0    0    0    0 -0.00000000000E+00 -0.00000000000E+00 -0.74505805969E-08  0.93827000000E+00  0.93827000000E+00 0. -1.
     999902    2    1    2    0    0  0.16856345675E-02  0.21967906843E-01  0.51549981092E-02  0.10213024880E+01  0.10210517948E+01 0.  0.
     999903    2    3    3    0    0  0.13032996085E+00  0.95078270099E-03  0.10697556284E-01  0.13168357960E+00  0.15470124145E-01 0.  0.
         14    1    1    2    0    0 -0.16856345675E-02 -0.21967906843E-01 -0.51549981092E-02  0.22627512026E-01  0.00000000000E+00 0. -1.
     999901    1    3    3    0    0 -0.12864432629E+00  0.21017124142E-01 -0.55425581750E-02  0.88961890838E+00  0.88000000000E+00 0. -1.
        -11    1    4    4    0    0  0.12196576364E+00  0.44718816855E-03  0.13773489575E-01  0.12274289231E+00  0.51100000000E-03 0. -1.
         11    1    4    4    0    0  0.83641972170E-02  0.50359453244E-03 -0.30759332905E-02  0.89406872860E-02  0.51100000000E-03 0.  1.
</event>
<event>
 8    1  0.1161093E+005  0.1043930E+01  0.7957747E-01            NaN
         13   -1    0    0    0    0  0.00000000000E+00  0.00000000000E+00  0.74505805969E-08  0.10566000000E+00  0.10566000000E+00 0. -1.
     999900   -1    0    0    0    0 -0.00000000000E+00 -0.00000000000E+00 -0.74505805969E-08  0.93827000000E+00  0.93827000000E+00 0.  1.
     999902    2    1    2    0    0 -0.22034349909E-01  0.96073895813E-02  0.40715171036E-02  0.10195498490E+01  0.10192583102E+01 0.  0.
     999903    2    3    3    0    0  0.48021293937E-01 -0.21681919758E-01 -0.11502495031E+00  0.12821894376E+00  0.20813650051E-01 0.  0.
         14    1    1    2    0    0  0.22034349909E-01 -0.96073895813E-02 -0.40715171036E-02  0.24380150984E-01  0.00000000000E+00 0.  1.
     999901    1    3    3    0    0 -0.70055643846E-01  0.31289309340E-01  0.11909646742E+00  0.89133090526E+00  0.88000000000E+00 0. -1.
        -11    1    4    4    0    0  0.17447697059E-01 -0.42865667113E-02 -0.19993316073E-01  0.26884765118E-01  0.51100000000E-03 0. -1.
         11    1    4    4    0    0  0.30573596878E-01 -0.17395353047E-01 -0.95031634240E-01  0.10133417864E+00  0.51100000000E-03 0.  1.
</event>
<event>
 8    1  0.1161093E+005  0.1043930E+01  0.7957747E-01            NaN
         13   -1    0    0    0    0  0.00000000000E+00  0.00000000000E+00  0.74505805969E-08  0.10566000000E+00  0.10566000000E+00 0.  1.
     999900   -1    0    0    0    0 -0.00000000000E+00 -0.00000000000E+00 -0.74505805969E-08  0.93827000000E+00  0.93827000000E+00 0. -1.
     999902    2    1    2    0    0 -0.19671335693E-01 -0.11077681384E-01 -0.64579622774E-02  0.10204484807E+01  0.10201782785E+01 0.  0.
     999903    2    3    3    0    0 -0.44640611623E-01 -0.12245923116E+00 -0.17171194174E-01  0.13301167295E+00  0.20204151299E-01 0.  0.
         14    1    1    2    0    0  0.19671335693E-01  0.11077681384E-01  0.64579622774E-02  0.23481519320E-01  0.00000000000E+00 0.  1.
     999901    1    3    3    0    0  0.24969275930E-01  0.11138154978E+00  0.10713231896E-01  0.88743680773E+00  0.88000000000E+00 0. -1.
        -11    1    4    4    0    0 -0.15061334701E-01 -0.31162769668E-01  0.36555438515E-02  0.34807845929E-01  0.51100000000E-03 0.  1.
         11    1    4    4    0    0 -0.29579276922E-01 -0.91296461493E-01 -0.20826738025E-01  0.98203827024E-01  0.51100000000E-03 0. -1.
</event>
<event>
 8    1  0.1161093E+005  0.1043930E+01  0.7957747E-01            NaN
         13   -1    0    0    0    0  0.00000000000E+00  0.00000000000E+00  0.74505805969E-08  0.10566000000E+00  0.10566000000E+00 0.  1.
     999900   -1    0    0    0    0 -0.00000000000E+00 -0.00000000000E+00 -0.74505805969E-08  0.93827000000E+00  0.93827000000E+00 0.  1.
     999902    2    1    2    0    0 -0.15243801625E-02  0.10059004053E-01 -0.20479910256E-01  0.10210622493E+01  0.10208061437E+01 0.  0.
     999903    2    3    3    0    0 -0.66851293605E-01 -0.89351851363E-01  0.62226129731E-01  0.12921561853E+00  0.19280457747E-01 0.  0.
         14    1    1    2    0    0  0.15243801625E-02 -0.10059004053E-01  0.20479910256E-01  0.22867750688E-01  0.00000000000E+00 0.  1.
     999901    1    3    3    0    0  0.65326913442E-01  0.99410855416E-01 -0.82706039988E-01  0.89184663079E+00  0.88000000000E+00 0.  1.
        -11    1    4    4    0    0 -0.44949504574E-01 -0.53827105873E-01  0.29084447825E-01  0.75920889842E-01  0.51100000000E-03 0.  1.
         11    1    4    4    0    0 -0.21901789031E-01 -0.35524745490E-01  0.33141681906E-01  0.53294728684E-01  0.51100000000E-03 0. -1.
</event>
<event>
 8    1  0.1161093E+005  0.1043930E+01  0.7957747E-01            NaN
         13   -1    0    0    0    0  0.00000000000E+00  0.00000000000E+00  0.74505805969E-08  0.10566000000E+00  0.10566000000E+00 0. -1.
     999900   -1    0    0    0    0 -0.00000000000E+00 -0.00000000000E+00 -0.74505805969E-08  0.93827000000E+00  0.93827000000E+00 0. -1.
     999902    2    1    2    0    0  0.18739676561E-01 -0.17467103063E-02  0.11994364147E-01  0.10216120421E+01  0.10213682359E+01 0.  0.
     999903    2    3    3    0    0 -0.61787591794E-01 -0.11264622317E+00  0.21548644108E-01  0.13095238364E+00  0.13315578254E-01 0.  0.
         14    1    1    2    0    0 -0.18739676561E-01  0.17467103063E-02 -0.11994364147E-01  0.22317957922E-01  0.00000000000E+00 0.  1.
     999901    1    3    3    0    0  0.80527268354E-01  0.11089951286E+00 -0.95542799610E-02  0.89065965844E+00  0.88000000000E+00 0. -1.
        -11    1    4    4    0    0 -0.37045914878E-01 -0.54215174174E-01  0.92046180235E-02  0.66307398032E-01  0.51100000000E-03 0.  1.
         11    1    4    4    0    0 -0.24741676916E-01 -0.58431048996E-01  0.12344026085E-01  0.64644985609E-01  0.51100000000E-03 0. -1.
</event>
<event>
 8    1  0.1161093E+005  0.1043930E+01  0.7957747E-01            NaN
         13   -1    0    0    0    0  0.00000000000E+00  0.00000000000E+00  0.74505805969E-08  0.10566000000E+00  0.10566000000E+00 0. -1.
     999900   -1    0    0    0    0 -0.00000000000E+00 -0.00000000000E+00 -0.74505805969E-08  0.93827000000E+00  0.93827000000E+00 0.  1.
     999902    2    1    2    0    0 -0.96840171342E-02 -0.19683769268E-01 -0.55912926525E-02  0.10212916804E+01  0.10210407450E+01 0.  0.
     999903    2    3    3    0    0  0.55356174700E-01 -0.94312990030E-01  0.71598628555E-01  0.13238334369E+00  0.20969976403E-01 0.  0.
         14    1    1    2    0    0  0.96840171342E-02  0.19683769268E-01  0.55912926525E-02  0.22638319593E-01  0.00000000000E+00 0.  1.
     999901    1    3    3    0    0 -0.65040191834E-01  0.74629220762E-01 -0.77189921208E-01  0.88890833671E+00  0.88000000000E+00 0.  1.
        -11    1    4    4    0    0  0.55881741245E-01 -0.83325769936E-01  0.64022951705E-01  0.11901744581E+00  0.51100000000E-03 0.  1.
         11    1    4    4    0    0 -0.52556654484E-03 -0.10987220094E-01  0.75756768499E-02  0.13365897887E-01  0.51100000000E-03 0. -1.
</event>
<event>
 8    1  0.1161093E+005  0.1043930E+01  0.7957747E-01            NaN
         13   -1    0    0    0    0  0.00000000000E+00  0.00000000000E+00  0.74505805969E-08  0.10566000000E+00  0.10566000000E+00 0.  1.
     999900   -1    0    0    0    0 -0.00000000000E+00 -0.00000000000E+00 -0.74505805969E-08  0.93827000000E+00  0.93827000000E+00 0.  1.
     999902    2    1    2    0    0  0.18207451743E-01 -0.12984076736E-01 -0.68077241214E-02  0.10205538871E+01  0.10202861333E+01 0.  0.
     999903    2    3    3    0    0 -0.46620114583E-01  0.87203079727E-01  0.79319524070E-01  0.12833307217E+00  0.19999457888E-01 0.  0.
         14    1    1    2    0    0 -0.18207451743E-01  0.12984076736E-01  0.68077241214E-02  0.23376112923E-01  0.00000000000E+00 0.  1.
     999901    1    3    3    0    0  0.64827566326E-01 -0.10018715646E+00 -0.86127248192E-01  0.89222081491E+00  0.88000000000E+00 0.  1.
        -11    1    4    4    0    0 -0.31268523139E-01  0.50039831701E-01  0.35522446016E-01  0.68875326409E-01  0.51100000000E-03 0.  1.
         11    1    4    4    0    0 -0.15351591443E-01  0.37163248026E-01  0.43797078054E-01  0.59457745760E-01  0.51100000000E-03 0. -1.
</event>
<event>
 8    1  0.1161093E+005  0.1043930E+01  0.7957747E-01            NaN
         13   -1    0    0    0    0  0.00000000000E+00  0.00000000000E+00  0.74505805969E-08  0.10566000000E+00  0.10566000000E+00 0.  1.
     999900   -1    0    0    0    0 -0.00000000000E+00 -0.00000000000E+00 -0.74505805969E-08  0.93827000000E+00  0.93827000000E+00 0.  1.
     999902    2    1    2    0    0 -0.24850081690E-01  0.30786220279E-02 -0.19261043095E-01  0.10123389846E+01  0.10118459505E+01 0.  0.
     999903    2    3    3    0    0  0.74446908182E-01  0.86354686778E-01  0.35368617040E-01  0.12117166308E+00  0.20788429383E-01 0.  0.
         14    1    1    2    0    0  0.24850081690E-01 -0.30786220279E-02  0.19261043095E-01  0.31591015411E-01  0.00000000000E+00 0.  1.
     999901    1    3    3    0    0 -0.99296989872E-01 -0.83276064750E-01 -0.54629660134E-01  0.89116732151E+00  0.88000000000E+00 0.  1.
        -11    1    4    4    0    0  0.41473097240E-01  0.39133457831E-01  0.26558129838E-01  0.62905013297E-01  0.51100000000E-03 0.  1.
         11    1    4    4    0    0  0.32973810942E-01  0.47221228947E-01  0.88104872019E-02  0.58266649784E-01  0.51100000000E-03 0. -1.
</event>
<event>
 8    1  0.1161093E+005  0.1043930E+01  0.7957747E-01            NaN
         13   -1    0    0    0    0  0.00000000000E+00  0.00000000000E+00  0.74505805969E-08  0.10566000000E+00  0.10566000000E+00 0. -1.
     999900   -1    0    0    0    0 -0.00000000000E+00 -0.00000000000E+00 -0.74505805969E-08  0.93827000000E+00  0.93827000000E+00 0. -1.
     999902    2    1    2    0    0  0.39477591195E-02 -0.23013887143E-01  0.45615916688E-02  0.10201385746E+01  0.10198611079E+01 0.  0.
     999903    2    3    3    0    0  0.11602005908E+00  0.24742402073E-01  0.51149993843E-01  0.13052554481E+00  0.18648201223E-01 0.  0.
         14    1    1    2    0    0 -0.39477591195E-02  0.23013887143E-01 -0.45615916688E-02  0.23791425389E-01  0.00000000000E+00 0. -1.
     999901    1    3    3    0    0 -0.11207229996E+00 -0.47756289216E-01 -0.46588402174E-01  0.88961302980E+00  0.88000000000E+00 0. -1.
        -11    1    4    4    0    0  0.61073789548E-01  0.22137153937E-01  0.24892033285E-01  0.69569647090E-01  0.51100000000E-03 0.  1.
         11    1    4    4    0    0  0.54946269528E-01  0.26052481359E-02  0.26257960558E-01  0.60955897718E-01  0.51100000000E-03 0. -1.
</event>
<event>
 8    1  0.1161093E+005  0.1043930E+01  0.7957747E-01            NaN
         13   -1    0    0    0    0  0.00000000000E+00  0.00000000000E+00  0.74505805969E-08  0.10566000000E+00  0.10566000000E+00 0. -1.
     999900   -1    0    0    0    0 -0.00000000000E+00 -0.00000000000E+00 -0.74505805969E-08  0.93827000000E+00  0.93827000000E+00 0.  1.
     999902    2    1    2    0    0 -0.12388181206E-01 -0.32439011427E-02 -0.20874706453E-01  0.10194403430E+01  0.10191461474E+01 0.  0.
     999903    2    3    3    0    0 -0.44001159901E-01 -0.82219665462E-01 -0.92149786219E-01  0.13246983127E+00  0.18986775242E-01 0.  0.
         14    1    1    2    0    0  0.12388181206E-01  0.32439011427E-02  0.20874706453E-01  0.24489656954E-01  0.00000000000E+00 0. -1.
     999901    1    3    3    0    0  0.31612978695E-01  0.78975764319E-01  0.71275079766E-01  0.88697051178E+00  0.88000000000E+00 0. -1.
        -11    1    4    4    0    0 -0.41616344106E-01 -0.74755794395E-01 -0.90310647390E-01  0.12440507645E+00  0.51100000000E-03 0.  1.
         11    1    4    4    0    0 -0.23848157949E-02 -0.74638710665E-02 -0.18391388283E-02  0.80647548198E-02  0.51100000000E-03 0. -1.
</event>
<event>
 8    1  0.1161093E+005  0.1043930E+01  0.7957747E-01            NaN
         13   -1    0    0    0    0  0.00000000000E+00  0.00000000000E+00  0.74505805969E-08  0.10566000000E+00  0.10566000000E+00 0. -1.
     999900   -1    0    0    0    0 -0.00000000000E+00 -0.00000000000E+00 -0.74505805969E-08  0.93827000000E+00  0.93827000000E+00 0.  1.
     999902    2    1    2    0    0 -0.97974598221E-02  0.11770247387E-02  0.21521959573E-01  0.10202536331E+01  0.10199788750E+01 0.  0.
     999903    2    3    3    0    0  0.11259263878E+00  0.60219962784E-01  0.93565735081E-02  0.12974063409E+00  0.21012863729E-01 0.  0.
         14    1    1    2    0    0  0.97974598221E-02 -0.11770247387E-02 -0.21521959573E-01  0.23676366910E-01  0.00000000000E+00 0.  1.
     999901    1    3    3    0    0 -0.12239009860E+00 -0.59042938045E-01  0.12165386065E-01  0.89051299900E+00  0.88000000000E+00 0. -1.
        -11    1    4    4    0    0  0.68275856808E-01  0.35699320039E-01  0.15894203957E-01  0.78669695020E-01  0.51100000000E-03 0. -1.
         11    1    4    4    0    0  0.44316781969E-01  0.24520642745E-01 -0.65376304490E-02  0.51070939071E-01  0.51100000000E-03 0.  1.
</event>
<event>
 8    1  0.1161093E+005  0.1043930E+01  0.7957747E-01            NaN
         13   -1    0    0    0    0  0.00000000000E+00  0.00000000000E+00  0.74505805969E-08  0.10566000000E+00  0.10566000000E+00 0. -1.
     999900   -1    0    0    0    0 -0.00000000000E+00 -0.00000000000E+00 -0.74505805969E-08  0.93827000000E+00  0.93827000000E+00 0. -1.
     999902    2    1    2    0    0 -0.47671602150E-02 -0.22047133957E-01  0.11930246452E-01  0.10184126978E+01  0.10180929674E+01 0.  0.
     999903    2    3    3    0    0  0.78964863798E-02  0.42008998383E-01  0.12044449551E+00  0.12934639076E+00  0.19912354502E-01 0.  0.
         14    1    1    2    0    0  0.47671602150E-02  0.22047133957E-01 -0.11930246452E-01  0.25517302221E-01  0.00000000000E+00 0. -1.
     999901    1    3    3    0    0 -0.12663646595E-01 -0.64056132339E-01 -0.10851424905E+00  0.88906630702E+00  0.88000000000E+00 0.  1.
        -11    1    4    4    0    0 -0.64501215025E-02  0.85191696618E-02  0.28960984393E-01  0.30873614255E-01  0.51100000000E-03 0.  1.
         11    1    4    4    0    0  0.14346607882E-01  0.33489828721E-01  0.91483511113E-01  0.98472776502E-01  0.51100000000E-03 0. -1.
</event>
<event>
 8    1  0.1161093E+005  0.1043930E+01  0.7957747E-01            NaN
         13   -1    0    0    0    0  0.00000000000E+00  0.00000000000E+00  0.74505805969E-08  0.10566000000E+00  0.10566000000E+00 0.  1.
     999900   -1    0    0    0    0 -0.00000000000E+00 -0.00000000000E+00 -0.74505805969E-08  0.93827000000E+00  0.93827000000E+00 0.  1.
     999902    2    1    2    0    0 -0.10784973884E-01 -0.16822570052E-01  0.12874382063E-01  0.10201589201E+01  0.10198819334E+01 0.  0.
     999903    2    3    3    0    0 -0.47876657693E-01  0.66814944252E-01  0.10016283756E+00  0.13111994389E+00  0.20085679727E-01 0.  0.
         14    1    1    2    0    0  0.10784973884E-01  0.16822570052E-01 -0.12874382063E-01  0.23771079873E-01  0.00000000000E+00 0. -1.
     999901    1    3    3    0    0  0.37091683809E-01 -0.83637514304E-01 -0.87288455497E-01  0.88903897624E+00  0.88000000000E+00 0.  1.
        -11    1    4    4    0    0 -0.87213605454E-02  0.24762260311E-01  0.22963187605E-01  0.34882671507E-01  0.51100000000E-03 0.  1.
         11    1    4    4    0    0 -0.39155297147E-01  0.42052683941E-01  0.77199649956E-01  0.96237272382E-01  0.51100000000E-03 0. -1.
</event>
<event>
 8    1  0.1161093E+005  0.1043930E+01  0.7957747E-01            NaN
         13   -1    0    0    0    0  0.00000000000E+00  0.00000000000E+00  0.74505805969E-08  0.10566000000E+00  0.10566000000E+00 0. -1.
     999900   -1    0    0    0    0 -0.00000000000E+00 -0.00000000000E+00 -0.74505805969E-08  0.93827000000E+00  0.93827000000E+00 0.  1.
     999902    2    1    2    0    0  0.24042623511E-01  0.29932085878E-02 -0.15155508228E-02  0.10196544169E+01  0.10193654035E+01 0.  0.
     999903    2    3    3    0    0  0.12336874057E+00  0.17512269787E-01  0.41546993220E-01  0.13290142793E+00  0.20251201330E-01 0.  0.
         14    1    1    2    0    0 -0.24042623511E-01 -0.29932085878E-02  0.15155508228E-02  0.24275583149E-01  0.00000000000E+00 0.  1.
     999901    1    3    3    0    0 -0.99326117062E-01 -0.14519061199E-01 -0.43062544043E-01  0.88675298893E+00  0.88000000000E+00 0. -1.
        -11    1    4    4    0    0  0.67196363348E-01  0.11536431599E-01  0.33067047624E-01  0.75776851748E-01  0.51100000000E-03 0.  1.
         11    1    4    4    0    0  0.56172377225E-01  0.59758381877E-02  0.84799455962E-02  0.57124576177E-01  0.51100000000E-03 0. -1.
</event>
<event>
 8    1  0.1161093E+005  0.1043930E+01  0.7957747E-01            NaN
         13   -1    0    0    0    0  0.00000000000E+00  0.00000000000E+00  0.74505805969E-08  0.10566000000E+00  0.10566000000E+00 0.  1.
     999900   -1    0    0    0    0 -0.00000000000E+00 -0.00000000000E+00 -0.74505805969E-08  0.93827000000E+00  0.93827000000E+00 0. -1.
     999902    2    1    2    0    0  0.69289229659E-02 -0.21506978437E-01  0.96751544555E-02  0.10193501565E+01  0.10190537634E+01 0.  0.
     999903    2    3    3    0    0 -0.11886146146E+00 -0.39769356920E-01  0.28445862471E-01  0.13001946725E+00  0.19653142276E-01 0.  0.
         14    1    1    2    0    0 -0.69289229659E-02  0.21506978437E-01 -0.96751544555E-02  0.24579843545E-01  0.00000000000E+00 0. -1.
     999901    1    3    3    0    0  0.12579038443E+00  0.18262378482E-01 -0.18770708016E-01  0.88933068921E+00  0.88000000000E+00 0.  1.
        -11    1    4    4    0    0 -0.45622788727E-01 -0.25408578217E-01  0.12552956900E-01  0.53711009543E-01  0.51100000000E-03 0. -1.
         11    1    4    4    0    0 -0.73238672736E-01 -0.14360778703E-01  0.15892905571E-01  0.76308457706E-01  0.51100000000E-03 0.  1.
</event>
<event>
 8    1  0.1161093E+005  0.1043930E+01  0.7957747E-01            NaN
         13   -1    0    0    0    0  0.00000000000E+00  0.00000000000E+00  0.74505805969E-08  0.10566000000E+00  0.10566000000E+00 0.  1.
     999900   -1    0    0    0    0 -0.00000000000E+00 -0.00000000000E+00 -0.74505805969E-08  0.93827000000E+00  0.93827000000E+00 0.  1.
     999902    2    1    2    0    0 -0.22970317526E-01 -0.61621824473E-02  0.17626274404E-02  0.10200822572E+01  0.10198034598E+01 0.  0.
     999903    2    3    3    0    0  0.96870647509E-01 -0.57061705603E-01 -0.58468231127E-01  0.12846553762E+00  0.21092645890E-01 0.  0.
         14    1    1    2    0    0  0.22970317526E-01  0.61621824473E-02 -0.17626274404E-02  0.23847742771E-01  0.00000000000E+00 0.  1.
     999901    1    3    3    0    0 -0.11984096503E+00  0.50899523156E-01  0.60230858567E-01  0.89161671961E+00  0.88000000000E+00 0. -1.
        -11    1    4    4    0    0  0.51035271288E-01 -0.40376919917E-01 -0.39496640091E-01  0.76125818727E-01  0.51100000000E-03 0. -1.
         11    1    4    4    0    0  0.45835376220E-01 -0.16684785686E-01 -0.18971591036E-01  0.52339718895E-01  0.51100000000E-03 0.  1.
</event>
<event>
 8    1  0.1161093E+005  0.1043930E+01  0.7957747E-01            NaN
         13   -1    0    0    0    0  0.00000000000E+00  0.00000000000E+00  0.74505805969E-08  0.10566000000E+00  0.10566000000E+00 0. -1.
     999900   -1    0    0    0    0 -0.00000000000E+00 -0.00000000000E+00 -0.74505805969E-08  0.93827000000E+00  0.93827000000E+00 0.  1.
     999902    2    1    2    0    0  0.94262620006E-02 -0.51910559091E-02 -0.20989334327E-01  0.10203428503E+01  0.10200701831E+01 0.  0.
     999903    2    3    3    0    0 -0.31231520467E-01  0.57246461847E-01  0.10793415212E+00  0.12783359864E+00  0.20954295069E-01 0.  0.
         14    1    1    2    0    0 -0.94262620006E-02  0.51910559091E-02  0.20989334327E-01  0.23587149727E-01  0.00000000000E+00 0. -1.
     999901    1    3    3    0    0  0.40657782467E-01 -0.62437517756E-01 -0.12892348645E+00  0.89250925164E+00  0.88000000000E+00 0.  1.
        -11    1    4    4    0    0 -0.14584068704E-01  0.34224162172E-01  0.42430428524E-01  0.56432178073E-01  0.51100000000E-03 0. -1.
         11    1    4    4    0    0 -0.16647451763E-01  0.23022299675E-01  0.65503723596E-01  0.71401420563E-01  0.51100000000E-03 0.  1.
</event>
<event>
 8    1  0.1161093E+005  0.1043930E+01  0.7957747E-01            NaN
         13   -1    0    0    0    0  0.00000000000E+00  0.00000000000E+00  0.74505805969E-08  0.10566000000E+00  0.10566000000E+00 0.  1.
     999900   -1    0    0    0    0 -0.00000000000E+00 -0.00000000000E+00 -0.74505805969E-08  0.93827000000E+00  0.93827000000E+00 0. -1.
     999902    2    1    2    0    0 -0.11942095803E-02 -0.11117185246E-01  0.19735926206E-01  0.10212468625E+01  0.10209949213E+01 0.  0.
     999903    2    3    3    0    0 -0.73558550781E-01 -0.59449079652E-01  0.92754596661E-01  0.13394516851E+00  0.19820179142E-01 0.  0.
         14    1    1    2    0    0  0.11942095803E-02  0.11117185246E-01 -0.19735926206E-01  0.22683137515E-01  0.00000000000E+00 0. -1.
     999901    1    3    3    0    0  0.72364341201E-01  0.48331894406E-01 -0.73018670455E-01  0.88730169397E+00  0.88000000000E+00 0. -1.
        -11    1    4    4    0    0 -0.34851546343E-01 -0.22831825591E-01  0.53242253284E-01  0.67608588198E-01  0.51100000000E-03 0. -1.
         11    1    4    4    0    0 -0.38707004438E-01 -0.36617254061E-01  0.39512343377E-01  0.66336580314E-01  0.51100000000E-03 0.  1.
</event>
<event>
 8    1  0.1161093E+005  0.1043930E+01  0.7957747E-01            NaN
         13   -1    0    0    0    0  0.00000000000E+00  0.00000000000E+00  0.74505805969E-08  0.10566000000E+00  0.10566000000E+00 0.  1.
     999900   -1    0    0    0    0 -0.00000000000E+00 -0.00000000000E+00 -0.74505805969E-08  0.93827000000E+00  0.93827000000E+00 0. -1.
     999902    2    1    2    0    0  0.11005063650E-01  0.15739368406E-01 -0.62120982579E-02  0.10237451218E+01  0.10235461128E+01 0.  0.
     999903    2    3    3    0    0 -0.10344989375E+00  0.60295011861E-01  0.54563646189E-01  0.13313924164E+00  0.20285393919E-01 0.  0.
         14    1    1    2    0    0 -0.11005063650E-01 -0.15739368406E-01  0.62120982579E-02  0.20184878214E-01  0.00000000000E+00 0. -1.
     999901    1    3    3    0    0  0.11445495740E+00 -0.44555643455E-01 -0.60775744447E-01  0.89060588015E+00  0.88000000000E+00 0.  1.
        -11    1    4    4    0    0 -0.73449118424E-01  0.39968946413E-01  0.47647367256E-01  0.96243557717E-01  0.51100000000E-03 0.  1.
         11    1    4    4    0    0 -0.30000775327E-01  0.20326065448E-01  0.69162789337E-02  0.36895683923E-01  0.51100000000E-03 0. -1.
</event>
<event>
 8    1  0.1161093E+005  0.1043930E+01  0.7957747E-01            NaN
         13   -1    0    0    0    0  0.00000000000E+00  0.00000000000E+00  0.74505805969E-08  0.10566000000E+00  0.10566000000E+00 0.  1.
     999900   -1    0    0    0    0 -0.00000000000E+00 -0.00000000000E+00 -0.74505805969E-08  0.93827000000E+00  0.93827000000E+00 0.  1.
     999902    2    1    2    0    0 -0.24884904182E-02  0.17031816490E-01  0.14888549003E-01  0.10211716115E+01  0.10209179770E+01 0.  0.
     999903    2    3    3    0    0 -0.34004081078E-01  0.12595506017E+00 -0.17686180091E-01  0.13329852456E+00  0.20850442956E-01 0.  0.
         14    1    1    2    0    0  0.24884904182E-02 -0.17031816490E-01 -0.14888549003E-01  0.22758388540E-01  0.00000000000E+00 0. -1.
     999901    1    3    3    0    0  0.31515590660E-01 -0.10892324368E+00  0.32574729095E-01  0.88787308690E+00  0.88000000000E+00 0. -1.
        -11    1    4    4    0    0 -0.35052939787E-01  0.10010388520E+00 -0.16948902300E-01  0.10741053408E+00  0.51100000000E-03 0. -1.
         11    1    4    4    0    0  0.10488587091E-02  0.25851174966E-01 -0.73727779115E-03  0.25887990483E-01  0.51100000000E-03 0.  1.
</event>
<event>
 8    1  0.1161093E+005  0.1043930E+01  0.7957747E-01            NaN
         13   -1    0    0    0    0  0.00000000000E+00  0.00000000000E+00  0.74505805969E-08  0.10566000000E+00  0.10566000000E+00 0.  1.
     999900   -1    0    0    0    0 -0.00000000000E+00 -0.00000000000E+00 -0.74505805969E-08  0.93827000000E+00  0.93827000000E+00 0.  1.
     999902    2    1    2    0    0  0.72888473184E-02  0.35747965620E-02  0.20525913200E-01  0.10218569490E+01  0.10216185221E+01 0.  0.
     999903    2    3    3    0    0  0.56181460002E-01  0.43818617830E-01 -0.10731325910E+00  0.13036779785E+00  0.20079826203E-01 0.  0.
         14    1    1    2    0    0 -0.72888473184E-02 -0.35747965620E-02 -0.20525913200E-01  0.22073050953E-01  0.00000000000E+00 0. -1.
     999901    1    3    3    0    0 -0.48892612683E-01 -0.40243821268E-01  0.12783917230E+00  0.89148915120E+00  0.88000000000E+00 0. -1.
        -11    1    4    4    0    0  0.49518544606E-01  0.28180542288E-01 -0.80799946894E-01  0.98869215444E-01  0.51100000000E-03 0. -1.
         11    1    4    4    0    0  0.66629153960E-02  0.15638075543E-01 -0.26513312210E-01  0.31498582406E-01  0.51100000000E-03 0.  1.
</event>
<event>
 8    1  0.1161093E+005  0.1043930E+01  0.7957747E-01            NaN
         13   -1    0    0    0    0  0.00000000000E+00  0.00000000000E+00  0.74505805969E-08  0.10566000000E+00  0.10566000000E+00 0.  1.
     999900   -1    0    0    0    0 -0.00000000000E+00 -0.00000000000E+00 -0.74505805969E-08  0.93827000000E+00  0.93827000000E+00 0. -1.
     999902    2    1    2    0    0  0.12794658024E-01  0.19117263373E-01 -0.63931118498E-02  0.10200543867E+01  0.10197749295E+01 0.  0.
     999903    2    3    3    0    0 -0.67399398778E-02  0.18679385110E-01 -0.12822129179E+00  0.13144654421E+00  0.21051083069E-01 0.  0.
         14    1    1    2    0    0 -0.12794658024E-01 -0.19117263373E-01  0.63931118498E-02  0.23875613332E-01  0.00000000000E+00 0. -1.
     999901    1    3    3    0    0  0.19534597902E-01  0.43787826379E-03  0.12182817994E+00  0.88860784246E+00  0.88000000000E+00 0.  1.
        -11    1    4    4    0    0 -0.33318481844E-02  0.53241484987E-02 -0.69028068996E-02  0.93465305677E-02  0.51100000000E-03 0.  1.
         11    1    4    4    0    0 -0.34080916934E-02  0.13355236611E-01 -0.12131848489E+00  0.12210001364E+00  0.51100000000E-03 0. -1.
</event>
<event>
 8    1  0.1161093E+005  0.1043930E+01  0.7957747E-01            NaN
         13   -1    0    0    0    0  0.00000000000E+00  0.00000000000E+00  0.74505805969E-08  0.10566000000E+00  0.10566000000E+00 0. -1.
     999900   -1    0    0    0    0 -0.00000000000E+00 -0.00000000000E+00 -0.74505805969E-08  0.93827000000E+00  0.93827000000E+00 0.  1.
     999902    2    1    2    0    0  0.16979284529E-02  0.66351743188E-03  0.23754540307E-01  0.10201056133E+01  0.10198273682E+01 0.  0.
     999903    2    3    3    0    0  0.50096024633E-01 -0.11859759084E+00 -0.88772647019E-03  0.13040182609E+00  0.20708644384E-01 0.  0.
         14    1    1    2    0    0 -0.16979284529E-02 -0.66351743188E-03 -0.23754540307E-01  0.23824386699E-01  0.00000000000E+00 0.  1.
     999901    1    3    3    0    0 -0.48398096180E-01  0.11926110827E+00  0.24642266777E-01  0.88970378721E+00  0.88000000000E+00 0. -1.
        -11    1    4    4    0    0  0.17361591376E-01 -0.67142342838E-01  0.14840833355E-02  0.69368455953E-01  0.51100000000E-03 0.  1.
         11    1    4    4    0    0  0.32734433257E-01 -0.51455248004E-01 -0.23718098057E-02  0.61033370140E-01  0.51100000000E-03 0. -1.
</event>
<event>
 8    1  0.1161093E+005  0.1043930E+01  0.7957747E-01            NaN
         13   -1    0    0    0    0  0.00000000000E+00  0.00000000000E+00  0.74505805969E-08  0.10566000000E+00  0.10566000000E+00 0. -1.
     999900   -1    0    0    0    0 -0.00000000000E+00 -0.00000000000E+00 -0.74505805969E-08  0.93827000000E+00  0.93827000000E+00 0. -1.
     999902    2    1    2    0    0 -0.16974047752E-01 -0.15431359819E-01  0.22158327159E-02  0.10208831981E+01  0.10206230201E+01 0.  0.
     999903    2    3    3    0    0 -0.96416913662E-01 -0.91105534128E-01 -0.88023163553E-03  0.13406453839E+00  0.19392938348E-01 0.  0.
         14    1    1    2    0    0  0.16974047752E-01  0.15431359819E-01 -0.22158327159E-02  0.23046801895E-01  0.00000000000E+00 0.  1.
     999901    1    3    3    0    0  0.79442865909E-01  0.75674174309E-01  0.30960643514E-02  0.88681865971E+00  0.88000000000E+00 0.  1.
        -11    1    4    4    0    0 -0.49497543409E-01 -0.54508166400E-01  0.73294929124E-02  0.73994118652E-01  0.51100000000E-03 0. -1.
         11    1    4    4    0    0 -0.46919370253E-01 -0.36597367728E-01 -0.82097245479E-02  0.60070419740E-01  0.51100000000E-03 0.  1.
</event>
<event>
 8    1  0.1161093E+005  0.1043930E+01  0.7957747E-01            NaN
         13   -1    0    0    0    0  0.00000000000E+00  0.00000000000E+00  0.74505805969E-08  0.10566000000E+00  0.10566000000E+00 0.  1.
     999900   -1    0    0    0    0 -0.00000000000E+00 -0.00000000000E+00 -0.74505805969E-08  0.93827000000E+00  0.93827000000E+00 0.  1.
     999902    2    1    2    0    0  0.92919958552E-02 -0.12011109443E-01  0.21719434251E-01  0.10174282687E+01  0.10170830547E+01 0.  0.
     999903    2    3    3    0    0 -0.91324964891E-01  0.34445984959E-01 -0.75795443309E-01  0.12513280993E+00  0.19659496524E-01 0.  0.
         14    1    1    2    0    0 -0.92919958552E-02  0.12011109443E-01 -0.21719434251E-01  0.26501731287E-01  0.00000000000E+00 0. -1.
     999901    1    3    3    0    0  0.10061696075E+00 -0.46457094402E-01  0.97514877560E-01  0.89229545878E+00  0.88000000000E+00 0.  1.
        -11    1    4    4    0    0 -0.50740631833E-01  0.22175133529E-01 -0.31049358351E-01  0.63487573908E-01  0.51100000000E-03 0. -1.
         11    1    4    4    0    0 -0.40584333058E-01  0.12270851430E-01 -0.44746084958E-01  0.61645236026E-01  0.51100000000E-03 0.  1.
</event>
<event>
 8    1  0.1161093E+005  0.1043930E+01  0.7957747E-01            NaN
         13   -1    0    0    0    0  0.00000000000E+00  0.00000000000E+00  0.74505805969E-08  0.10566000000E+00  0.10566000000E+00 0.  1.
     999900   -1    0    0    0    0 -0.00000000000E+00 -0.00000000000E+00 -0.74505805969E-08  0.93827000000E+00  0.93827000000E+00 0.  1.
     999902    2    1    2    0    0 -0.23656457147E-01  0.10640074992E-01 -0.11429163343E-01  0.10155845430E+01  0.10151888982E+01 0.  0.
     999903    2    3    3    0    0 -0.82912998508E-01  0.40777310725E-01 -0.89160630922E-01  0.12966029578E+00  0.18022757948E-01 0.  0.
         14    1    1    2    0    0  0.23656457147E-01 -0.10640074992E-01  0.11429163343E-01  0.28345457049E-01  0.00000000000E+00 0.  1.
     999901    1    3    3    0    0  0.59256541361E-01 -0.30137235732E-01  0.77731467578E-01  0.88592424717E+00  0.88000000000E+00 0. -1.
        -11    1    4    4    0    0 -0.81951355853E-02  0.84337757135E-02 -0.57527442016E-02  0.13101297909E-01  0.51100000000E-03 0.  1.
         11    1    4    4    0    0 -0.74717862923E-01  0.32343535011E-01 -0.83407886720E-01  0.11655899787E+00  0.51100000000E-03 0. -1.
</event>
<event>
 8    1  0.1161093E+005  0.1043930E+01  0.7957747E-01            NaN
         13   -1    0    0    0    0  0.00000000000E+00  0.00000000000E+00  0.74505805969E-08  0.10566000000E+00  0.10566000000E+00 0.  1.
     999900   -1    0    0    0    0 -0.00000000000E+00 -0.00000000000E+00 -0.74505805969E-08  0.93827000000E+00  0.93827000000E+00 0.  1.
     999902    2    1    2    0    0 -0.14478152270E-01 -0.23168792009E-01 -0.20159285882E-02  0.10165352234E+01  0.10161660232E+01 0.  0.
     999903    2    3    3    0    0  0.30585038881E-01 -0.11614217281E+00 -0.43988758903E-01  0.12949719761E+00  0.20250046209E-01 0.  0.
         14    1    1    2    0    0  0.14478152270E-01  0.23168792009E-01  0.20159285882E-02  0.27394776589E-01  0.00000000000E+00 0.  1.
     999901    1    3    3    0    0 -0.45063191151E-01  0.92973380797E-01  0.41972830315E-01  0.88703802580E+00  0.88000000000E+00 0. -1.
        -11    1    4    4    0    0  0.26758320308E-01 -0.68363954742E-01 -0.21158689737E-01  0.76404118254E-01  0.51100000000E-03 0.  1.
         11    1    4    4    0    0  0.38267185728E-02 -0.47778218063E-01 -0.22830069166E-01  0.53093079356E-01  0.51100000000E-03 0. -1.
</event>
<event>
 8    1  0.1161093E+005  0.1043930E+01  0.7957747E-01            NaN
         13   -1    0    0    0    0  0.00000000000E+00  0.00000000000E+00  0.74505805969E-08  0.10566000000E+00  0.10566000000E+00 0.  1.
     999900   -1    0    0    0    0 -0.00000000000E+00 -0.00000000000E+00 -0.74505805969E-08  0.93827000000E+00  0.93827000000E+00 0. -1.
     999902    2    1    2    0    0 -0.95692173637E-02  0.10548121874E-01 -0.18084456190E-01  0.10209108699E+01  0.10206513234E+01 0.  0.
     999903    2    3    3    0    0  0.36589984795E-01 -0.84805525663E-01 -0.91420464351E-01  0.13152840989E+00  0.20278489462E-01 0.  0.
         14    1    1    2    0    0  0.95692173637E-02 -0.10548121874E-01  0.18084456190E-01  0.23019130125E-01  0.00000000000E+00 0.  1.
     999901    1    3    3    0    0 -0.46159202159E-01  0.95353647536E-01  0.73336008161E-01  0.88938245999E+00  0.88000000000E+00 0.  1.
        -11    1    4    4    0    0  0.19518971477E-01 -0.33046947277E-01 -0.50197346268E-01  0.63191183445E-01  0.51100000000E-03 0. -1.
         11    1    4    4    0    0  0.17071013319E-01 -0.51758578385E-01 -0.41223118083E-01  0.68337226441E-01  0.51100000000E-03 0.  1.
</event>
<event>
 8    1  0.1161093E+005  0.1043930E+01  0.7957747E-01            NaN
         13   -1    0    0    0    0  0.00000000000E+00  0.00000000000E+00  0.74505805969E-08  0.10566000000E+00  0.10566000000E+00 0. -1.
     999900   -1    0    0    0    0 -0.00000000000E+00 -0.00000000000E+00 -0.74505805969E-08  0.93827000000E+00  0.93827000000E+00 0. -1.
     999902    2    1    2    0    0  0.23032425745E-01 -0.60611186974E-02 -0.47241485233E-03  0.10201087286E+01  0.10198305571E+01 0.  0.
     999903    2    3    3    0    0  0.30296422787E-01  0.18274445483E-01 -0.12457140437E+00  0.13103868381E+00  0.20031806580E-01 0.  0.
         14    1    1    2    0    0 -0.23032425745E-01  0.60611186974E-02  0.47241485233E-03  0.23821271405E-01  0.00000000000E+00 0.  1.
     999901    1    3    3    0    0 -0.72639970422E-02 -0.24335564180E-01  0.12409898952E+00  0.88907004479E+00  0.88000000000E+00 0.  1.
        -11    1    4    4    0    0  0.19327151173E-01  0.63736316061E-02 -0.39472747824E-01  0.44413071207E-01  0.51100000000E-03 0.  1.
         11    1    4    4    0    0  0.10969271614E-01  0.11900813877E-01 -0.85098656551E-01  0.86625612600E-01  0.51100000000E-03 0. -1.
</event>
<event>
 8    1  0.1161093E+005  0.1043930E+01  0.7957747E-01            NaN
         13   -1    0    0    0    0  0.00000000000E+00  0.00000000000E+00  0.74505805969E-08  0.10566000000E+00  0.10566000000E+00 0.  1.
     999900   -1    0    0    0    0 -0.00000000000E+00 -0.00000000000E+00 -0.74505805969E-08  0.93827000000E+00  0.93827000000E+00 0. -1.
     999902    2    1    2    0    0  0.26541379424E-02  0.81459918844E-02 -0.21612389181E-01  0.10206814087E+01  0.10204166017E+01 0.  0.
     999903    2    3    3    0    0  0.66930962706E-01 -0.33985237688E-01 -0.10824193737E+00  0.13309410068E+00  0.19051836694E-01 0.  0.
         14    1    1    2    0    0 -0.26541379424E-02 -0.81459918844E-02  0.21612389181E-01  0.23248591314E-01  0.00000000000E+00 0.  1.
     999901    1    3    3    0    0 -0.64276824763E-01  0.42131229572E-01  0.86629548190E-01  0.88758730800E+00  0.88000000000E+00 0.  1.
        -11    1    4    4    0    0  0.61862307120E-02 -0.80846018091E-02 -0.75741079725E-02  0.12698758578E-01  0.51100000000E-03 0. -1.
         11    1    4    4    0    0  0.60744731994E-01 -0.25900635879E-01 -0.10066782940E+00  0.12039534211E+00  0.51100000000E-03 0.  1.
</event>
<event>
 8    1  0.1161093E+005  0.1043930E+01  0.7957747E-01            NaN
         13   -1    0    0    0    0  0.00000000000E+00  0.00000000000E+00  0.74505805969E-08  0.10566000000E+00  0.10566000000E+00 0. -1.
     999900   -1    0    0    0    0 -0.00000000000E+00 -0.00000000000E+00 -0.74505805969E-08  0.93827000000E+00  0.93827000000E+00 0.  1.
     999902    2    1    2    0    0 -0.36043771032E-02 -0.13769116747E-01  0.18960512652E-01  0.10202217493E+01  0.10199462420E+01 0.  0.
     999903    2    3    3    0    0  0.55974283229E-01 -0.58095407446E-01  0.10385641751E+00  0.13302292635E+00  0.20018659476E-01 0.  0.
         14    1    1    2    0    0  0.36043771032E-02  0.13769116747E-01 -0.18960512652E-01  0.23708250680E-01  0.00000000000E+00 0.  1.
     999901    1    3    3    0    0 -0.59578660332E-01  0.44326290699E-01 -0.84895904861E-01  0.88719882297E+00  0.88000000000E+00 0. -1.
        -11    1    4    4    0    0  0.44368575879E-01 -0.33993486364E-01  0.76634012912E-01  0.94853364182E-01  0.51100000000E-03 0.  1.
         11    1    4    4    0    0  0.11605707350E-01 -0.24101921082E-01  0.27222404601E-01  0.38169562170E-01  0.51100000000E-03 0. -1.
</event>
<event>
 8    1  0.1161093E+005  0.1043930E+01  0.7957747E-01            NaN
         13   -1    0    0    0    0  0.00000000000E+00  0.00000000000E+00  0.74505805969E-08  0.10566000000E+00  0.10566000000E+00 0. -1.
     999900   -1    0    0    0    0 -0.00000000000E+00 -0.00000000000E+00 -0.74505805969E-08  0.93827000000E+00  0.93827000000E+00 0. -1.
     999902    2    1    2    0    0 -0.37519273284E-02  0.16143261977E-02 -0.22340908554E-01  0.10212187868E+01  0.10209662146E+01 0.  0.
     999903    2    3    3    0    0 -0.34113057642E-02  0.53943866836E-02 -0.13263379561E+00  0.13432593773E+00  0.20273070693E-01 0.  0.
         14    1    1    2    0    0  0.37519273284E-02 -0.16143261977E-02  0.22340908554E-01  0.22711213150E-01  0.00000000000E+00 0. -1.
     999901    1    3    3    0    0 -0.34062156422E-03 -0.37800604859E-02  0.11029288705E+00  0.88689284912E+00  0.88000000000E+00 0.  1.
        -11    1    4    4    0    0 -0.10083609900E-01  0.75929151300E-02 -0.10695902112E+00  0.10770248311E+00  0.51100000000E-03 0.  1.
         11    1    4    4    0    0  0.66723041356E-02 -0.21985284463E-02 -0.25674774491E-01  0.26623454621E-01  0.51100000000E-03 0. -1.
</event>
<event>
 8    1  0.1161093E+005  0.1043930E+01  0.7957747E-01            NaN
         13   -1    0    0    0    0  0.00000000000E+00  0.00000000000E+00  0.74505805969E-08  0.10566000000E+00  0.10566000000E+00 0.  1.
     999900   -1    0    0    0    0 -0.00000000000E+00 -0.00000000000E+00 -0.74505805969E-08  0.93827000000E+00  0.93827000000E+00 0.  1.
     999902    2    1    2    0    0 -0.19213282063E-01 -0.13938533708E-01 -0.44295974718E-03  0.10201891251E+01  0.10199128501E+01 0.  0.
     999903    2    3    3    0    0  0.64187272055E-01 -0.10794196317E+00  0.29223892666E-01  0.13076660493E+00  0.21780628002E-01 0.  0.
         14    1    1    2    0    0  0.19213282063E-01  0.13938533708E-01  0.44295974718E-03  0.23740874939E-01  0.00000000000E+00 0.  1.
     999901    1    3    3    0    0 -0.83400554118E-01  0.94003429463E-01 -0.29666852413E-01  0.88942252013E+00  0.88000000000E+00 0.  1.
        -11    1    4    4    0    0  0.44078739513E-01 -0.54232500847E-01  0.12238448575E-01  0.70951674890E-01  0.51100000000E-03 0. -1.
         11    1    4    4    0    0  0.20108532542E-01 -0.53709462323E-01  0.16985444091E-01  0.59814930043E-01  0.51100000000E-03 0.  1.
</event>
<event>
 8    1  0.1161093E+005  0.1043930E+01  0.7957747E-01            NaN
         13   -1    0    0    0    0  0.00000000000E+00  0.00000000000E+00  0.74505805969E-08  0.10566000000E+00  0.10566000000E+00 0.  1.
     999900   -1    0    0    0    0 -0.00000000000E+00 -0.00000000000E+00 -0.74505805969E-08  0.93827000000E+00  0.93827000000E+00 0. -1.
     999902    2    1    2    0    0  0.11330559921E-01  0.85261105482E-02 -0.18859505643E-01  0.10203342991E+01  0.10200614319E+01 0.  0.
     999903    2    3    3    0    0 -0.73957394847E-01  0.96301777694E-01  0.41240130841E-01  0.12983411980E+00  0.20308166676E-01 0.  0.
         14    1    1    2    0    0 -0.11330559921E-01 -0.85261105482E-02  0.18859505643E-01  0.23595700928E-01  0.00000000000E+00 0.  1.
     999901    1    3    3    0    0  0.85287954768E-01 -0.87775667146E-01 -0.60099636484E-01  0.89050017927E+00  0.88000000000E+00 0. -1.
        -11    1    4    4    0    0 -0.48008102779E-01  0.65952216118E-01  0.17687746794E-01  0.83472092647E-01  0.51100000000E-03 0. -1.
         11    1    4    4    0    0 -0.25949292068E-01  0.30349561576E-01  0.23552384048E-01  0.46362027156E-01  0.51100000000E-03 0.  1.
</event>
<event>
 8    1  0.1161093E+005  0.1043930E+01  0.7957747E-01            NaN
         13   -1    0    0    0    0  0.00000000000E+00  0.00000000000E+00  0.74505805969E-08  0.10566000000E+00  0.10566000000E+00 0. -1.
     999900   -1    0    0    0    0 -0.00000000000E+00 -0.00000000000E+00 -0.74505805969E-08  0.93827000000E+00  0.93827000000E+00 0.  1.
     999902    2    1    2    0    0  0.24735883550E-02 -0.21503311435E-02 -0.23092429863E-01  0.10206061307E+01  0.10203395862E+01 0.  0.
     999903    2    3    3    0    0 -0.10763905914E+00  0.67808642979E-01  0.17522494874E-01  0.13006212541E+00  0.20614061344E-01 0.  0.
         14    1    1    2    0    0 -0.24735883550E-02  0.21503311435E-02  0.23092429863E-01  0.23323869326E-01  0.00000000000E+00 0. -1.
     999901    1    3    3    0    0  0.11011264749E+00 -0.69958974122E-01 -0.40614924737E-01  0.89054400526E+00  0.88000000000E+00 0.  1.
        -11    1    4    4    0    0 -0.59801665954E-01  0.41126287765E-01  0.99832282523E-04  0.72580175556E-01  0.51100000000E-03 0.  1.
         11    1    4    4    0    0 -0.47837393184E-01  0.26682355213E-01  0.17422662592E-01  0.57481949855E-01  0.51100000000E-03 0. -1.
</event>
<event>
 8    1  0.1161093E+005  0.1043930E+01  0.7957747E-01            NaN
         13   -1    0    0    0    0  0.00000000000E+00  0.00000000000E+00  0.74505805969E-08  0.10566000000E+00  0.10566000000E+00 0.  1.
     999900   -1    0    0    0    0 -0.00000000000E+00 -0.00000000000E+00 -0.74505805969E-08  0.93827000000E+00  0.93827000000E+00 0.  1.
     999902    2    1    2    0    0 -0.36542000583E-02 -0.28145270821E-02  0.20816806309E-01  0.10226083170E+01  0.10223860112E+01 0.  0.
     999903    2    3    3    0    0 -0.11306483133E+00 -0.14626129279E-02  0.70109873956E-01  0.13446287823E+00  0.19469870975E-01 0.  0.
         14    1    1    2    0    0  0.36542000583E-02  0.28145270821E-02 -0.20816806309E-01  0.21321682993E-01  0.00000000000E+00 0. -1.
     999901    1    3    3    0    0  0.10941063127E+00 -0.13519141541E-02 -0.49293067647E-01  0.88814543878E+00  0.88000000000E+00 0.  1.
        -11    1    4    4    0    0 -0.54399771961E-01  0.63098908222E-02  0.25838586656E-01  0.60556119369E-01  0.51100000000E-03 0.  1.
         11    1    4    4    0    0 -0.58665059365E-01 -0.77725037502E-02  0.44271287300E-01  0.73906758859E-01  0.51100000000E-03 0. -1.
</event>
<event>
 8    1  0.1161093E+005  0.1043930E+01  0.7957747E-01            NaN
         13   -1    0    0    0    0  0.00000000000E+00  0.00000000000E+00  0.74505805969E-08  0.10566000000E+00  0.10566000000E+00 0.  1.
     999900   -1    0    0    0    0 -0.00000000000E+00 -0.00000000000E+00 -0.74505805969E-08  0.93827000000E+00  0.93827000000E+00 0.  1.
     999902    2    1    2    0    0 -0.68213436170E-02  0.22696403435E-01 -0.37989883678E-03  0.10202276419E+01  0.10199522731E+01 0.  0.
     999903    2    3    3    0    0 -0.13034948340E-01 -0.88814984682E-01 -0.90017081018E-01  0.12865138434E+00  0.19750757863E-01 0.  0.
         14    1    1    2    0    0  0.68213436170E-02 -0.22696403435E-01  0.37989883678E-03  0.23702358126E-01  0.00000000000E+00 0. -1.
     999901    1    3    3    0    0  0.62136047228E-02  0.11151138812E+00  0.89637182181E-01  0.89157625753E+00  0.88000000000E+00 0. -1.
        -11    1    4    4    0    0 -0.10934356327E-01 -0.75746052500E-01 -0.65285251302E-01  0.10059547592E+00  0.51100000000E-03 0. -1.
         11    1    4    4    0    0 -0.21005920130E-02 -0.13068932182E-01 -0.24731829716E-01  0.28055908420E-01  0.51100000000E-03 0.  1.
</event>
<event>
 8    1  0.1161093E+005  0.1043930E+01  0.7957747E-01            NaN
         13   -1    0    0    0    0  0.00000000000E+00  0.00000000000E+00  0.74505805969E-08  0.10566000000E+00  0.10566000000E+00 0. -1.
     999900   -1    0    0    0    0 -0.00000000000E+00 -0.00000000000E+00 -0.74505805969E-08  0.93827000000E+00  0.93827000000E+00 0. -1.
     999902    2    1    2    0    0  0.10153308944E-02  0.26192552257E-02 -0.23927104796E-01  0.10198385547E+01  0.10195539612E+01 0.  0.
     999903    2    3    3    0    0 -0.97846239638E-01 -0.44789465101E-01 -0.72585741996E-01  0.13170069381E+00  0.22280036235E-01 0.  0.
         14    1    1    2    0    0 -0.10153308944E-02 -0.26192552257E-02  0.23927104796E-01  0.24091445342E-01  0.00000000000E+00 0. -1.
     999901    1    3    3    0    0  0.98861570532E-01  0.47408720326E-01  0.48658637200E-01  0.88813786084E+00  0.88000000000E+00 0.  1.
        -11    1    4    4    0    0 -0.54086171115E-01 -0.15927847438E-01 -0.46810044810E-01  0.73283365411E-01  0.51100000000E-03 0.  1.
         11    1    4    4    0    0 -0.43760068523E-01 -0.28861617663E-01 -0.25775697186E-01  0.58417328403E-01  0.51100000000E-03 0. -1.
</event>
<event>
 8    1  0.1161093E+005  0.1043930E+01  0.7957747E-01            NaN
         13   -1    0    0    0    0  0.00000000000E+00  0.00000000000E+00  0.74505805969E-08  0.10566000000E+00  0.10566000000E+00 0.  1.
     999900   -1    0    0    0    0 -0.00000000000E+00 -0.00000000000E+00 -0.74505805969E-08  0.93827000000E+00  0.93827000000E+00 0. -1.
     999902    2    1    2    0    0 -0.19720391594E-02 -0.22674390463E-01  0.62428726203E-02  0.10203293564E+01  0.10200563735E+01 0.  0.
     999903    2    3    3    0    0  0.82702488112E-01  0.43116913844E-01 -0.86775847590E-01  0.12895359183E+00  0.20005282358E-01 0.  0.
         14    1    1    2    0    0  0.19720391594E-02  0.22674390463E-01 -0.62428726203E-02  0.23600643632E-01  0.00000000000E+00 0. -1.
     999901    1    3    3    0    0 -0.84674527271E-01 -0.65791304307E-01  0.93018720210E-01  0.89137576454E+00  0.88000000000E+00 0.  1.
        -11    1    4    4    0    0  0.67899687173E-01  0.27528643770E-01 -0.60638233967E-01  0.95107572179E-01  0.51100000000E-03 0. -1.
         11    1    4    4    0    0  0.14802800939E-01  0.15588270074E-01 -0.26137613622E-01  0.33846019654E-01  0.51100000000E-03 0.  1.
</event>
<event>
 8    1  0.1161093E+005  0.1043930E+01  0.7957747E-01            NaN
         13   -1    0    0    0    0  0.00000000000E+00  0.00000000000E+00  0.74505805969E-08  0.10566000000E+00  0.10566000000E+00 0. -1.
     999900   -1    0    0    0    0 -0.00000000000E+00 -0.00000000000E+00 -0.74505805969E-08  0.93827000000E+00  0.93827000000E+00 0. -1.
     999902    2    1    2    0    0  0.21627433001E-01  0.12182215125E-01 -0.11460123398E-01  0.10165897979E+01  0.10162220872E+01 0.  0.
     999903    2    3    3    0    0 -0.10283385625E+00 -0.11016164180E-01 -0.68987569495E-01  0.12566994493E+00  0.18370967566E-01 0.  0.
         14    1    1    2    0    0 -0.21627433001E-01 -0.12182215125E-01  0.11460123398E-01  0.27340202118E-01  0.00000000000E+00 0. -1.
     999901    1    3    3    0    0  0.12446128925E+00  0.23198379305E-01  0.57527446098E-01  0.89091985295E+00  0.88000000000E+00 0.  1.
        -11    1    4    4    0    0 -0.45159027794E-01 -0.13608138310E-01 -0.34235098250E-01  0.58282263964E-01  0.51100000000E-03 0.  1.
         11    1    4    4    0    0 -0.57674828459E-01  0.25919741292E-02 -0.34752471245E-01  0.67387680968E-01  0.51100000000E-03 0. -1.
</event>
<event>
 8    1  0.1161093E+005  0.1043930E+01  0.7957747E-01            NaN
         13   -1    0    0    0    0  0.00000000000E+00  0.00000000000E+00  0.74505805969E-08  0.10566000000E+00  0.10566000000E+00 0.  1.
     999900   -1    0    0    0    0 -0.00000000000E+00 -0.00000000000E+00 -0.74505805969E-08  0.93827000000E+00  0.93827000000E+00 0.  1.
     999902    2    1    2    0    0 -0.70995534941E-02 -0.37509223851E-03 -0.22560228616E-01  0.10202760729E+01  0.10200018415E+01 0.  0.
     999903    2    3    3    0    0 -0.97296922965E-01 -0.61364738548E-01 -0.62848403779E-01  0.13265090452E+00  0.20347438561E-01 0.  0.
         14    1    1    2    0    0  0.70995534941E-02  0.37509223851E-03  0.22560228616E-01  0.23653927142E-01  0.00000000000E+00 0.  1.
     999901    1    3    3    0    0  0.90197369471E-01  0.60989646310E-01  0.40288175162E-01  0.88762516834E+00  0.88000000000E+00 0.  1.
        -11    1    4    4    0    0 -0.49594529364E-01 -0.38328377452E-01 -0.24716331896E-01  0.67378335126E-01  0.51100000000E-03 0.  1.
         11    1    4    4    0    0 -0.47702393601E-01 -0.23036361097E-01 -0.38132071882E-01  0.65272569391E-01  0.51100000000E-03 0. -1.
</event>
<event>
 8    1  0.1161093E+005  0.1043930E+01  0.7957747E-01            NaN
         13   -1    0    0    0    0  0.00000000000E+00  0.00000000000E+00  0.74505805969E-08  0.10566000000E+00  0.10566000000E+00 0.  1.
     999900   -1    0    0    0    0 -0.00000000000E+00 -0.00000000000E+00 -0.74505805969E-08  0.93827000000E+00  0.93827000000E+00 0. -1.
     999902    2    1    2    0    0  0.53388788677E-02 -0.77224249816E-02  0.21829217389E-01  0.10201675463E+01  0.10198907629E+01 0.  0.
     999903    2    3    3    0    0 -0.22284853976E-01  0.12648002644E+00  0.35344553880E-02  0.12937684869E+00  0.15233673114E-01 0.  0.
         14    1    1    2    0    0 -0.53388788677E-02  0.77224249816E-02 -0.21829217389E-01  0.23762453724E-01  0.00000000000E+00 0. -1.
     999901    1    3    3    0    0  0.27623732844E-01 -0.13420245143E+00  0.18294762001E-01  0.89079069758E+00  0.88000000000E+00 0.  1.
        -11    1    4    4    0    0 -0.11302746489E-01  0.72741212939E-01 -0.53504061410E-02  0.73810054227E-01  0.51100000000E-03 0.  1.
         11    1    4    4    0    0 -0.10982107487E-01  0.53738813505E-01  0.88848615290E-02  0.55566794466E-01  0.51100000000E-03 0. -1.
</event>
<event>
 8    1  0.1161093E+005  0.1043930E+01  0.7957747E-01            NaN
         13   -1    0    0    0    0  0.00000000000E+00  0.00000000000E+00  0.74505805969E-08  0.10566000000E+00  0.10566000000E+00 0. -1.
     999900   -1    0    0    0    0 -0.00000000000E+00 -0.00000000000E+00 -0.74505805969E-08  0.93827000000E+00  0.93827000000E+00 0. -1.
     999902    2    1    2    0    0  0.21339071176E-01  0.92797702727E-02  0.44134535562E-02  0.10202456451E+01  0.10199706994E+01 0.  0.
     999903    2    3    3    0    0 -0.13862218982E-01  0.32799648989E-01  0.12279360628E+00  0.13131022782E+00  0.29935398763E-01 0.  0.
         14    1    1    2    0    0 -0.21339071176E-01 -0.92797702727E-02 -0.44134535562E-02  0.23684354905E-01  0.00000000000E+00 0. -1.
     999901    1    3    3    0    0  0.35201290158E-01 -0.23519878716E-01 -0.11838015272E+00  0.88893541727E+00  0.88000000000E+00 0. -1.
        -11    1    4    4    0    0 -0.10666815700E-01 -0.16087582001E-02  0.18292331255E-01  0.21242400144E-01  0.51100000000E-03 0.  1.
         11    1    4    4    0    0 -0.31954032811E-02  0.34408407189E-01  0.10450127502E+00  0.11006782768E+00  0.51100000000E-03 0. -1.
</event>
<event>
 8    1  0.1161093E+005  0.1043930E+01  0.7957747E-01            NaN
         13   -1    0    0    0    0  0.00000000000E+00  0.00000000000E+00  0.74505805969E-08  0.10566000000E+00  0.10566000000E+00 0.  1.
     999900   -1    0    0    0    0 -0.00000000000E+00 -0.00000000000E+00 -0.74505805969E-08  0.93827000000E+00  0.93827000000E+00 0. -1.
     999902    2    1    2    0    0  0.74433529215E-02  0.12870331146E-01  0.18095922970E-01  0.10205096807E+01  0.10202409015E+01 0.  0.
     999903    2    3    3    0    0  0.87316871744E-01  0.97659821992E-01  0.73799194830E-02  0.13276880103E+00  0.20283352578E-01 0.  0.
         14    1    1    2    0    0 -0.74433529215E-02 -0.12870331146E-01 -0.18095922970E-01  0.23420319269E-01  0.00000000000E+00 0. -1.
     999901    1    3    3    0    0 -0.79873518823E-01 -0.84789490845E-01  0.10716003487E-01  0.88774087970E+00  0.88000000000E+00 0. -1.
        -11    1    4    4    0    0  0.66435627084E-01  0.61424429433E-01  0.88882886903E-02  0.90917082410E-01  0.51100000000E-03 0. -1.
         11    1    4    4    0    0  0.20881244660E-01  0.36235392559E-01 -0.15083692073E-02  0.41851718616E-01  0.51100000000E-03 0.  1.
</event>
<event>
 8    1  0.1161093E+005  0.1043930E+01  0.7957747E-01            NaN
         13   -1    0    0    0    0  0.00000000000E+00  0.00000000000E+00  0.74505805969E-08  0.10566000000E+00  0.10566000000E+00 0.  1.
     999900   -1    0    0    0    0 -0.00000000000E+00 -0.00000000000E+00 -0.74505805969E-08  0.93827000000E+00  0.93827000000E+00 0. -1.
     999902    2    1    2    0    0  0.24101640357E-01 -0.27201858455E-02  0.35528158106E-02  0.10194165143E+01  0.10191217389E+01 0.  0.
     999903    2    3    3    0    0  0.74147306849E-01  0.10131708711E+00  0.33530887807E-01  0.13136977700E+00  0.19254158488E-01 0.  0.
         14    1    1    2    0    0 -0.24101640357E-01  0.27201858455E-02 -0.35528158106E-02  0.24513485659E-01  0.00000000000E+00 0. -1.
     999901    1    3    3    0    0 -0.50045666492E-01 -0.10403727296E+00 -0.29978071996E-01  0.88804673734E+00  0.88000000000E+00 0. -1.
        -11    1    4    4    0    0  0.69085141577E-01  0.87155562009E-01  0.24714364314E-01  0.11392940665E+00  0.51100000000E-03 0.  1.
         11    1    4    4    0    0  0.50621652718E-02  0.14161525100E-01  0.88165234925E-02  0.17440370349E-01  0.51100000000E-03 0. -1.
</event>
<event>
 8    1  0.1161093E+005  0.1043930E+01  0.7957747E-01            NaN
         13   -1    0    0    0    0  0.00000000000E+00  0.00000000000E+00  0.74505805969E-08  0.10566000000E+00  0.10566000000E+00 0. -1.
     999900   -1    0    0    0    0 -0.00000000000E+00 -0.00000000000E+00 -0.74505805969E-08  0.93827000000E+00  0.93827000000E+00 0. -1.
     999902    2    1    2    0    0 -0.41573287596E-02  0.22532502276E-02  0.23825786175E-01  0.10196394956E+01  0.10193501225E+01 0.  0.
     999903    2    3    3    0    0 -0.60298783609E-01  0.77257781610E-01 -0.80722327548E-01  0.12851220344E+00  0.19864142178E-01 0.  0.
         14    1    1    2    0    0  0.41573287596E-02 -0.22532502276E-02 -0.23825786175E-01  0.24290504438E-01  0.00000000000E+00 0.  1.
     999901    1    3    3    0    0  0.56141454850E-01 -0.75004531383E-01  0.10454811372E+00  0.89112729212E+00  0.88000000000E+00 0.  1.
        -11    1    4    4    0    0 -0.53169019717E-01  0.69927244773E-01 -0.63202913575E-01  0.10822030135E+00  0.51100000000E-03 0.  1.
         11    1    4    4    0    0 -0.71297638922E-02  0.73305368375E-02 -0.17519413972E-01  0.20291902090E-01  0.51100000000E-03 0. -1.
</event>
<event>
 8    1  0.1161093E+005  0.1043930E+01  0.7957747E-01            NaN
         13   -1    0    0    0    0  0.00000000000E+00  0.00000000000E+00  0.74505805969E-08  0.10566000000E+00  0.10566000000E+00 0. -1.
     999900   -1    0    0    0    0 -0.00000000000E+00 -0.00000000000E+00 -0.74505805969E-08  0.93827000000E+00  0.93827000000E+00 0.  1.
     999902    2    1    2    0    0  0.47255190530E-02  0.97389647937E-02 -0.21549073429E-01  0.10198148485E+01  0.10195296880E+01 0.  0.
     999903    2    3    3    0    0 -0.54208368551E-01  0.53996926402E-01  0.10084993343E+00  0.12829172085E+00  0.20828856988E-01 0.  0.
         14    1    1    2    0    0 -0.47255190530E-02 -0.97389647937E-02  0.21549073429E-01  0.24115151487E-01  0.00000000000E+00 0. -1.
     999901    1    3    3    0    0  0.58933887604E-01 -0.44257961609E-01 -0.12239900686E+00  0.89152312766E+00  0.88000000000E+00 0.  1.
        -11    1    4    4    0    0 -0.97114289825E-02  0.68544570301E-02  0.57928836986E-02  0.13233066788E-01  0.51100000000E-03 0. -1.
         11    1    4    4    0    0 -0.44496939568E-01  0.47142469372E-01  0.95057049736E-01  0.11505865406E+00  0.51100000000E-03 0.  1.
</event>
<event>
 8    1  0.1161093E+005  0.1043930E+01  0.7957747E-01            NaN
         13   -1    0    0    0    0  0.00000000000E+00  0.00000000000E+00  0.74505805969E-08  0.10566000000E+00  0.10566000000E+00 0.  1.
     999900   -1    0    0    0    0 -0.00000000000E+00 -0.00000000000E+00 -0.74505805969E-08  0.93827000000E+00  0.93827000000E+00 0. -1.
     999902    2    1    2    0    0 -0.21903328496E-01 -0.39902713140E-02  0.91531324181E-02  0.10198580683E+01  0.10195739412E+01 0.  0.
     999903    2    3    3    0    0 -0.59984821918E-01 -0.95329428618E-01 -0.64005994634E-01  0.13129445227E+00  0.21344484694E-01 0.  0.
         14    1    1    2    0    0  0.21903328496E-01  0.39902713140E-02 -0.91531324181E-02  0.24071931735E-01  0.00000000000E+00 0.  1.
     999901    1    3    3    0    0  0.38081493422E-01  0.91339157304E-01  0.73159127052E-01  0.88856361599E+00  0.88000000000E+00 0.  1.
        -11    1    4    4    0    0 -0.22648254246E-01 -0.51836974887E-01 -0.39254980182E-01  0.68856589924E-01  0.51100000000E-03 0. -1.
         11    1    4    4    0    0 -0.37336567672E-01 -0.43492453731E-01 -0.24751014452E-01  0.62437862347E-01  0.51100000000E-03 0.  1.
</event>
<event>
 8    1  0.1161093E+005  0.1043930E+01  0.7957747E-01            NaN
         13   -1    0    0    0    0  0.00000000000E+00  0.00000000000E+00  0.74505805969E-08  0.10566000000E+00  0.10566000000E+00 0. -1.
     999900   -1    0    0    0    0 -0.00000000000E+00 -0.00000000000E+00 -0.74505805969E-08  0.93827000000E+00  0.93827000000E+00 0.  1.
     999902    2    1    2    0    0 -0.19470940277E-01 -0.11849804819E-01 -0.83685948912E-03  0.10211213235E+01  0.10208665543E+01 0.  0.
     999903    2    3    3    0    0 -0.12008352530E+00 -0.56559736489E-01  0.21071196761E-02  0.13425575463E+00  0.20027752131E-01 0.  0.
         14    1    1    2    0    0  0.19470940277E-01  0.11849804819E-01  0.83685948912E-03  0.22808676492E-01  0.00000000000E+00 0.  1.
     999901    1    3    3    0    0  0.10061258503E+00  0.44709931670E-01 -0.29439791652E-02  0.88686556888E+00  0.88000000000E+00 0.  1.
        -11    1    4    4    0    0 -0.44596282520E-01 -0.31821327196E-01 -0.38558940265E-04  0.54787661812E-01  0.51100000000E-03 0. -1.
         11    1    4    4    0    0 -0.75487242785E-01 -0.24738409293E-01  0.21456786164E-02  0.79468092813E-01  0.51100000000E-03 0.  1.
</event>
<event>
 8    1  0.1161093E+005  0.1043930E+01  0.7957747E-01            NaN
         13   -1    0    0    0    0  0.00000000000E+00  0.00000000000E+00  0.74505805969E-08  0.10566000000E+00  0.10566000000E+00 0.  1.
     999900   -1    0    0    0    0 -0.00000000000E+00 -0.00000000000E+00 -0.74505805969E-08  0.93827000000E+00  0.93827000000E+00 0.  1.
     999902    2    1    2    0    0 -0.14272642017E-01  0.11442833750E-01  0.13372302190E-01  0.10212702290E+01  0.10210188125E+01 0.  0.
     999903    2    3    3    0    0  0.51420863110E-01  0.76843636603E-02  0.12016530317E+00  0.13237512399E+00  0.19501762932E-01 0.  0.
         14    1    1    2    0    0  0.14272642017E-01 -0.11442833750E-01 -0.13372302190E-01  0.22659770966E-01  0.00000000000E+00 0. -1.
     999901    1    3    3    0    0 -0.65693505127E-01  0.37584700897E-02 -0.10679300098E+00  0.88889510504E+00  0.88000000000E+00 0.  1.
        -11    1    4    4    0    0  0.29953220044E-01  0.29377817581E-02  0.45639709528E-01  0.54672389370E-01  0.51100000000E-03 0.  1.
         11    1    4    4    0    0  0.21467643065E-01  0.47465819022E-02  0.74525593643E-01  0.77702734619E-01  0.51100000000E-03 0. -1.
</event>
<event>
 8    1  0.1161093E+005  0.1043930E+01  0.7957747E-01            NaN
         13   -1    0    0    0    0  0.00000000000E+00  0.00000000000E+00  0.74505805969E-08  0.10566000000E+00  0.10566000000E+00 0.  1.
     999900   -1    0    0    0    0 -0.00000000000E+00 -0.00000000000E+00 -0.74505805969E-08  0.93827000000E+00  0.93827000000E+00 0.  1.
     999902    2    1    2    0    0  0.39208314673E-02 -0.20128561071E-01  0.10226972953E-01  0.10210144405E+01  0.10207572507E+01 0.  0.
     999903    2    3    3    0    0 -0.11601706194E+00 -0.59741099230E-01 -0.13804669405E-02  0.13191996629E+00  0.19287670098E-01 0.  0.
         14    1    1    2    0    0 -0.39208314673E-02  0.20128561071E-01 -0.10226972953E-01  0.22915559473E-01  0.00000000000E+00 0.  1.
     999901    1    3    3    0    0  0.11993789341E+00  0.39612538159E-01  0.11607439894E-01  0.88909447424E+00  0.88000000000E+00 0. -1.
        -11    1    4    4    0    0 -0.86598424047E-01 -0.36426723441E-01  0.37877420846E-02  0.94025535570E-01  0.51100000000E-03 0. -1.
         11    1    4    4    0    0 -0.29418637897E-01 -0.23314375789E-01 -0.51682090250E-02  0.37894430721E-01  0.51100000000E-03 0.  1.
</event>
<event>
 8    1  0.1161093E+005  0.1043930E+01  0.7957747E-01            NaN
         13   -1    0    0    0    0  0.00000000000E+00  0.00000000000E+00  0.74505805969E-08  0.10566000000E+00  0.10566000000E+00 0. -1.
     999900   -1    0    0    0    0 -0.00000000000E+00 -0.00000000000E+00 -0.74505805969E-08  0.93827000000E+00  0.93827000000E+00 0.  1.
     999902    2    1    2    0    0 -0.54334177269E-02 -0.18893522409E-01 -0.14432129552E-01  0.10195420198E+01  0.10192502914E+01 0.  0.
     999903    2    3    3    0    0 -0.35029085715E-01  0.10085323631E+00  0.66205640415E-01  0.12728777362E+00  0.20508007511E-01 0.  0.
         14    1    1    2    0    0  0.54334177269E-02  0.18893522409E-01  0.14432129552E-01  0.24387980248E-01  0.00000000000E+00 0. -1.
     999901    1    3    3    0    0  0.29595667988E-01 -0.11974675871E+00 -0.80637769967E-01  0.89225424613E+00  0.88000000000E+00 0. -1.
        -11    1    4    4    0    0 -0.11107467811E-01  0.17459056861E-01  0.55559882863E-02  0.21431860267E-01  0.51100000000E-03 0.  1.
         11    1    4    4    0    0 -0.23921617904E-01  0.83394179445E-01  0.60649652129E-01  0.10585591336E+00  0.51100000000E-03 0. -1.
</event>
<event>
 8    1  0.1161093E+005  0.1043930E+01  0.7957747E-01            NaN
         13   -1    0    0    0    0  0.00000000000E+00  0.00000000000E+00  0.74505805969E-08  0.10566000000E+00  0.10566000000E+00 0.  1.
     999900   -1    0    0    0    0 -0.00000000000E+00 -0.00000000000E+00 -0.74505805969E-08  0.93827000000E+00  0.93827000000E+00 0. -1.
     999902    2    1    2    0    0  0.23341915449E-01 -0.33962589275E-02  0.46575152562E-02  0.10198868713E+01  0.10196034318E+01 0.  0.
     999903    2    3    3    0    0 -0.11742228641E-01 -0.70168087088E-01  0.10775375420E+00  0.13066349736E+00  0.20015934075E-01 0.  0.
         14    1    1    2    0    0 -0.23341915449E-01  0.33962589275E-02 -0.46575152562E-02  0.24043128746E-01  0.00000000000E+00 0. -1.
     999901    1    3    3    0    0  0.35084144090E-01  0.66771828161E-01 -0.10309623895E+00  0.88922337390E+00  0.88000000000E+00 0. -1.
        -11    1    4    4    0    0 -0.42135737276E-02 -0.44168866751E-01  0.82324298316E-01  0.93521089642E-01  0.51100000000E-03 0. -1.
         11    1    4    4    0    0 -0.75286549134E-02 -0.25999220337E-01  0.25429455888E-01  0.37142407713E-01  0.51100000000E-03 0.  1.
</event>
<event>
 8    1  0.1161093E+005  0.1043930E+01  0.7957747E-01            NaN
         13   -1    0    0    0    0  0.00000000000E+00  0.00000000000E+00  0.74505805969E-08  0.10566000000E+00  0.10566000000E+00 0. -1.
     999900   -1    0    0    0    0 -0.00000000000E+00 -0.00000000000E+00 -0.74505805969E-08  0.93827000000E+00  0.93827000000E+00 0. -1.
     999902    2    1    2    0    0 -0.18046703069E-01 -0.53782133998E-02 -0.13383131821E-01  0.10208276865E+01  0.10205662392E+01 0.  0.
     999903    2    3    3    0    0  0.97110872784E-01  0.68445492852E-02 -0.84498995064E-01  0.13039625782E+00  0.19640122675E-01 0.  0.
         14    1    1    2    0    0  0.18046703069E-01  0.53782133998E-02  0.13383131821E-01  0.23102313485E-01  0.00000000000E+00 0. -1.
     999901    1    3    3    0    0 -0.11515757585E+00 -0.12222762685E-01  0.71115863243E-01  0.89043142870E+00  0.88000000000E+00 0.  1.
        -11    1    4    4    0    0  0.46182491099E-01  0.12903675462E-01 -0.43260500748E-01  0.64583739212E-01  0.51100000000E-03 0. -1.
         11    1    4    4    0    0  0.50928381684E-01 -0.60591261772E-02 -0.41238494316E-01  0.65812518608E-01  0.51100000000E-03 0.  1.
</event>
<event>
 8    1  0.1161093E+005  0.1043930E+01  0.7957747E-01            NaN
         13   -1    0    0    0    0  0.00000000000E+00  0.00000000000E+00  0.74505805969E-08  0.10566000000E+00  0.10566000000E+00 0. -1.
     999900   -1    0    0    0    0 -0.00000000000E+00 -0.00000000000E+00 -0.74505805969E-08  0.93827000000E+00  0.93827000000E+00 0. -1.
     999902    2    1    2    0    0  0.18885716182E-02  0.23484302793E-01 -0.14394908081E-01  0.10163203539E+01  0.10159452589E+01 0.  0.
     999903    2    3    3    0    0  0.70466577399E-01 -0.41827563726E-01  0.92513969563E-01  0.12480586106E+00  0.17394964005E-01 0.  0.
         14    1    1    2    0    0 -0.18885716182E-02 -0.23484302793E-01  0.14394908081E-01  0.27609646124E-01  0.00000000000E+00 0. -1.
     999901    1    3    3    0    0 -0.68578005781E-01  0.65311866519E-01 -0.10690887764E+00  0.89151449282E+00  0.88000000000E+00 0. -1.
        -11    1    4    4    0    0  0.23556287031E-01 -0.64493568560E-02  0.20716030396E-01  0.32029797048E-01  0.51100000000E-03 0.  1.
         11    1    4    4    0    0  0.46910290368E-01 -0.35378206870E-01  0.71797939167E-01  0.92776064011E-01  0.51100000000E-03 0. -1.
</event>
<event>
 8    1  0.1161093E+005  0.1043930E+01  0.7957747E-01            NaN
         13   -1    0    0    0    0  0.00000000000E+00  0.00000000000E+00  0.74505805969E-08  0.10566000000E+00  0.10566000000E+00 0. -1.
     999900   -1    0    0    0    0 -0.00000000000E+00 -0.00000000000E+00 -0.74505805969E-08  0.93827000000E+00  0.93827000000E+00 0. -1.
     999902    2    1    2    0    0  0.41291295414E-02  0.11764917052E-01  0.19970414011E-01  0.10203868392E+01  0.10201152000E+01 0.  0.
     999903    2    3    3    0    0  0.23685756772E-01  0.12606590148E+00 -0.22227282591E-01  0.13177678846E+00  0.20431429089E-01 0.  0.
         14    1    1    2    0    0 -0.41291295414E-02 -0.11764917052E-01 -0.19970414011E-01  0.23543160786E-01  0.00000000000E+00 0.  1.
     999901    1    3    3    0    0 -0.19556627231E-01 -0.11430098443E+00  0.42197696602E-01  0.88861005076E+00  0.88000000000E+00 0. -1.
        -11    1    4    4    0    0  0.26632577516E-01  0.96881960570E-01 -0.19066255701E-01  0.10227018968E+00  0.51100000000E-03 0.  1.
         11    1    4    4    0    0 -0.29468207442E-02  0.29183940909E-01 -0.31610268901E-02  0.29506598779E-01  0.51100000000E-03 0. -1.
</event>
<event>
 8    1  0.1161093E+005  0.1043930E+01  0.7957747E-01            NaN
         13   -1    0    0    0    0  0.00000000000E+00  0.00000000000E+00  0.74505805969E-08  0.10566000000E+00  0.10566000000E+00 0. -1.
     999900   -1    0    0    0    0 -0.00000000000E+00 -0.00000000000E+00 -0.74505805969E-08  0.93827000000E+00  0.93827000000E+00 0.  1.
     999902    2    1    2    0    0  0.72218959148E-02 -0.24274891627E-02 -0.22842274130E-01  0.10198505903E+01  0.10195662845E+01 0.  0.
     999903    2    3    3    0    0  0.94192616653E-01  0.86380984276E-01 -0.22209322376E-01  0.13111482988E+00  0.19076717140E-01 0.  0.
         14    1    1    2    0    0 -0.72218959148E-02  0.24274891627E-02  0.22842274130E-01  0.24079409703E-01  0.00000000000E+00 0. -1.
     999901    1    3    3    0    0 -0.86970720739E-01 -0.88808473439E-01 -0.63295175351E-03  0.88873576042E+00  0.88000000000E+00 0. -1.
        -11    1    4    4    0    0  0.28525950020E-01  0.25980630634E-01 -0.15688880310E-01  0.41654832602E-01  0.51100000000E-03 0.  1.
         11    1    4    4    0    0  0.65666666633E-01  0.60400353642E-01 -0.65204420658E-02  0.89459997275E-01  0.51100000000E-03 0. -1.
</event>
<event>
 8    1  0.1161093E+005  0.1043930E+01  0.7957747E-01            NaN
         13   -1    0    0    0    0  0.00000000000E+00  0.00000000000E+00  0.74505805969E-08  0.10566000000E+00  0.10566000000E+00 0. -1.
     999900   -1    0    0    0    0 -0.00000000000E+00 -0.00000000000E+00 -0.74505805969E-08  0.93827000000E+00  0.93827000000E+00 0. -1.
     999902    2    1    2    0    0  0.21865345879E-01 -0.37037713308E-02  0.63735143384E-02  0.10208554912E+01  0.10205946800E+01 0.  0.
     999903    2    3    3    0    0 -0.12145812330E+00 -0.86530160529E-02  0.37108332153E-01  0.12871719423E+00  0.19082383840E-01 0.  0.
         14    1    1    2    0    0 -0.21865345879E-01  0.37037713308E-02 -0.63735143384E-02  0.23074508824E-01  0.00000000000E+00 0.  1.
     999901    1    3    3    0    0  0.14332346918E+00  0.49492447221E-02 -0.30734817814E-01  0.89213829694E+00  0.88000000000E+00 0. -1.
        -11    1    4    4    0    0 -0.62568927274E-01 -0.15220506325E-02  0.95760648629E-02  0.63317844544E-01  0.51100000000E-03 0.  1.
         11    1    4    4    0    0 -0.58889196031E-01 -0.71309654204E-02  0.27532267290E-01  0.65399349691E-01  0.51100000000E-03 0. -1.
</event>
<event>
 8    1  0.1161093E+005  0.1043930E+01  0.7957747E-01            NaN
         13   -1    0    0    0    0  0.00000000000E+00  0.00000000000E+00  0.74505805969E-08  0.10566000000E+00  0.10566000000E+00 0. -1.
     999900   -1    0    0    0    0 -0.00000000000E+00 -0.00000000000E+00 -0.74505805969E-08  0.93827000000E+00  0.93827000000E+00 0.  1.
     999902    2    1    2    0    0  0.19345722081E-01 -0.84551514314E-02  0.10332174859E-01  0.10204246732E+01  0.10201539165E+01 0.  0.
     999903    2    3    3    0    0  0.34856665795E-01 -0.99550511516E-01  0.78409059023E-01  0.13297134142E+00  0.20201623933E-01 0.  0.
         14    1    1    2    0    0 -0.19345722081E-01  0.84551514314E-02 -0.10332174859E-01  0.23505326755E-01  0.00000000000E+00 0.  1.
     999901    1    3    3    0    0 -0.15510943715E-01  0.91095360085E-01 -0.68076884164E-01  0.88745333182E+00  0.88000000000E+00 0.  1.
        -11    1    4    4    0    0  0.31399201094E-01 -0.73045877516E-01  0.49815615229E-01  0.93826790913E-01  0.51100000000E-03 0. -1.
         11    1    4    4    0    0  0.34574647013E-02 -0.26504634000E-01  0.28593443794E-01  0.39144550510E-01  0.51100000000E-03 0.  1.
</event>
<event>
 8    1  0.1161093E+005  0.1043930E+01  0.7957747E-01            NaN
         13   -1    0    0    0    0  0.00000000000E+00  0.00000000000E+00  0.74505805969E-08  0.10566000000E+00  0.10566000000E+00 0.  1.
     999900   -1    0    0    0    0 -0.00000000000E+00 -0.00000000000E+00 -0.74505805969E-08  0.93827000000E+00  0.93827000000E+00 0.  1.
     999902    2    1    2    0    0 -0.18021374374E-01 -0.23337389971E-02  0.14608576202E-01  0.10206141948E+01  0.10203478367E+01 0.  0.
     999903    2    3    3    0    0  0.94057020054E-01 -0.18377906606E-02 -0.84485591271E-01  0.12798803205E+00  0.19824750151E-01 0.  0.
         14    1    1    2    0    0  0.18021374374E-01  0.23337389971E-02 -0.14608576202E-01  0.23315805169E-01  0.00000000000E+00 0. -1.
     999901    1    3    3    0    0 -0.11207839443E+00 -0.49594833643E-03  0.99094167473E-01  0.89262616279E+00  0.88000000000E+00 0. -1.
        -11    1    4    4    0    0  0.77134225710E-01  0.50127974076E-02 -0.62492740281E-01  0.99400304942E-01  0.51100000000E-03 0.  1.
         11    1    4    4    0    0  0.16922794344E-01 -0.68505880683E-02 -0.21992850990E-01  0.28587727104E-01  0.51100000000E-03 0. -1.
</event>
<event>
 8    1  0.1161093E+005  0.1043930E+01  0.7957747E-01            NaN
         13   -1    0    0    0    0  0.00000000000E+00  0.00000000000E+00  0.74505805969E-08  0.10566000000E+00  0.10566000000E+00 0. -1.
     999900   -1    0    0    0    0 -0.00000000000E+00 -0.00000000000E+00 -0.74505805969E-08  0.93827000000E+00  0.93827000000E+00 0.  1.
     999902    2    1    2    0    0 -0.58513028703E-02  0.21640088099E-01 -0.44366709854E-02  0.10210779715E+01  0.10208222219E+01 0.  0.
     999903    2    3    3    0    0  0.10489720413E+00 -0.15665584755E-01  0.72567081631E-01  0.13001875743E+00  0.19749986506E-01 0.  0.
         14    1    1    2    0    0  0.58513028703E-02 -0.21640088099E-01  0.44366709854E-02  0.22852028524E-01  0.00000000000E+00 0. -1.
     999901    1    3    3    0    0 -0.11074850700E+00  0.37305672854E-01 -0.77003752616E-01  0.89105921405E+00  0.88000000000E+00 0.  1.
        -11    1    4    4    0    0  0.45797405662E-01 -0.14836324165E-01  0.39610718920E-01  0.62344118042E-01  0.51100000000E-03 0.  1.
         11    1    4    4    0    0  0.59099798463E-01 -0.82926059029E-03  0.32956362711E-01  0.67674639383E-01  0.51100000000E-03 0. -1.
</event>
<event>
 8    1  0.1161093E+005  0.1043930E+01  0.7957747E-01            NaN
         13   -1    0    0    0    0  0.00000000000E+00  0.00000000000E+00  0.74505805969E-08  0.10566000000E+00  0.10566000000E+00 0. -1.
     999900   -1    0    0    0    0 -0.00000000000E+00 -0.00000000000E+00 -0.74505805969E-08  0.93827000000E+00  0.93827000000E+00 0. -1.
     999902    2    1    2    0    0 -0.32439334446E-02 -0.18727417856E-01  0.95329385019E-02  0.10226669758E+01  0.10224459042E+01 0.  0.
     999903    2    3    3    0    0 -0.63306145072E-01  0.11021980277E+00 -0.22982968352E-01  0.13065120281E+00  0.19632805065E-01 0.  0.
         14    1    1    2    0    0  0.32439334446E-02  0.18727417856E-01 -0.95329385019E-02  0.21263024249E-01  0.00000000000E+00 0. -1.
     999901    1    3    3    0    0  0.60062211627E-01 -0.12894722063E+00  0.32515906854E-01  0.89201577294E+00  0.88000000000E+00 0.  1.
        -11    1    4    4    0    0 -0.34872698898E-02  0.13725142198E-01  0.22495530917E-02  0.14347898444E-01  0.51100000000E-03 0. -1.
         11    1    4    4    0    0 -0.59818875182E-01  0.96494660576E-01 -0.25232521444E-01  0.11630330437E+00  0.51100000000E-03 0.  1.
</event>
<event>
 8    1  0.1161093E+005  0.1043930E+01  0.7957747E-01            NaN
         13   -1    0    0    0    0  0.00000000000E+00  0.00000000000E+00  0.74505805969E-08  0.10566000000E+00  0.10566000000E+00 0.  1.
     999900   -1    0    0    0    0 -0.00000000000E+00 -0.00000000000E+00 -0.74505805969E-08  0.93827000000E+00  0.93827000000E+00 0. -1.
     999902    2    1    2    0    0  0.16265633955E-01  0.22032998755E-02  0.17058377577E-01  0.10202569431E+01  0.10199822627E+01 0.  0.
     999903    2    3    3    0    0 -0.85461553840E-01  0.93204573292E-01  0.20957915726E-01  0.12972628168E+00  0.19972587701E-01 0.  0.
         14    1    1    2    0    0 -0.16265633955E-01 -0.22032998755E-02 -0.17058377577E-01  0.23673056918E-01  0.00000000000E+00 0. -1.
     999901    1    3    3    0    0  0.10172718779E+00 -0.91001273417E-01 -0.38995381488E-02  0.89053066140E+00  0.88000000000E+00 0.  1.
        -11    1    4    4    0    0 -0.15212802659E-01  0.29259144802E-01  0.69078086265E-02  0.33697267846E-01  0.51100000000E-03 0. -1.
         11    1    4    4    0    0 -0.70248751181E-01  0.63945428491E-01  0.14050107100E-01  0.96029013833E-01  0.51100000000E-03 0.  1.
</event>
<event>
 8    1  0.1161093E+005  0.1043930E+01  0.7957747E-01            NaN
         13   -1    0    0    0    0  0.00000000000E+00  0.00000000000E+00  0.74505805969E-08  0.10566000000E+00  0.10566000000E+00 0. -1.
     999900   -1    0    0    0    0 -0.00000000000E+00 -0.00000000000E+00 -0.74505805969E-08  0.93827000000E+00  0.93827000000E+00 0.  1.
     999902    2    1    2    0    0  0.22001470091E-01 -0.77166599679E-02 -0.64443647247E-02  0.10197403046E+01  0.10194533572E+01 0.  0.
     999903    2    3    3    0    0  0.11831106980E+00 -0.34383326209E-01  0.44328171742E-01  0.13263010820E+00  0.21119574611E-01 0.  0.
         14    1    1    2    0    0 -0.22001470091E-01  0.77166599679E-02  0.64443647247E-02  0.24189695408E-01  0.00000000000E+00 0. -1.
     999901    1    3    3    0    0 -0.96309599713E-01  0.26666666241E-01 -0.50772536467E-01  0.88711019639E+00  0.88000000000E+00 0. -1.
        -11    1    4    4    0    0  0.74334289961E-01 -0.12782364867E-01  0.33053490142E-01  0.82351501791E-01  0.51100000000E-03 0. -1.
         11    1    4    4    0    0  0.43976779842E-01 -0.21600961342E-01  0.11274681599E-01  0.50278606408E-01  0.51100000000E-03 0.  1.
</event>
<event>
 8    1  0.1161093E+005  0.1043930E+01  0.7957747E-01            NaN
         13   -1    0    0    0    0  0.00000000000E+00  0.00000000000E+00  0.74505805969E-08  0.10566000000E+00  0.10566000000E+00 0. -1.
     999900   -1    0    0    0    0 -0.00000000000E+00 -0.00000000000E+00 -0.74505805969E-08  0.93827000000E+00  0.93827000000E+00 0.  1.
     999902    2    1    2    0    0 -0.18743810361E-01 -0.15341313848E-01  0.17998666366E-02  0.10196416106E+01  0.10193522886E+01 0.  0.
     999903    2    3    3    0    0 -0.12714921329E+00 -0.18296280995E-01 -0.25948564524E-01  0.13255061269E+00  0.19866066187E-01 0.  0.
         14    1    1    2    0    0  0.18743810361E-01  0.15341313848E-01 -0.17998666366E-02  0.24288389353E-01  0.00000000000E+00 0. -1.
     999901    1    3    3    0    0  0.10840540293E+00  0.29549671471E-02  0.27748431161E-01  0.88709099795E+00  0.88000000000E+00 0. -1.
        -11    1    4    4    0    0 -0.16953263328E-01 -0.89521018972E-02 -0.11572792209E-02  0.19213372479E-01  0.51100000000E-03 0. -1.
         11    1    4    4    0    0 -0.11019594996E+00 -0.93441790982E-02 -0.24791285304E-01  0.11333724022E+00  0.51100000000E-03 0.  1.
</event>
<event>
 8    1  0.1161093E+005  0.1043930E+01  0.7957747E-01            NaN
         13   -1    0    0    0    0  0.00000000000E+00  0.00000000000E+00  0.74505805969E-08  0.10566000000E+00  0.10566000000E+00 0. -1.
     999900   -1    0    0    0    0 -0.00000000000E+00 -0.00000000000E+00 -0.74505805969E-08  0.93827000000E+00  0.93827000000E+00 0. -1.
     999902    2    1    2    0    0 -0.12480286093E-01  0.14166764661E-01  0.19903964308E-01  0.10164960328E+01  0.10161257610E+01 0.  0.
     999903    2    3    3    0    0  0.35267709746E-01 -0.93918608574E-01 -0.70085921241E-01  0.12404967669E+00  0.20292105424E-01 0.  0.
         14    1    1    2    0    0  0.12480286093E-01 -0.14166764661E-01 -0.19903964308E-01  0.27433967214E-01  0.00000000000E+00 0.  1.
     999901    1    3    3    0    0 -0.47747995839E-01  0.10808537324E+00  0.89989885549E-01  0.89244635610E+00  0.88000000000E+00 0.  1.
        -11    1    4    4    0    0  0.13233317047E-01 -0.62979789560E-01 -0.43233775931E-01  0.77530607345E-01  0.51100000000E-03 0. -1.
         11    1    4    4    0    0  0.22034392699E-01 -0.30938819015E-01 -0.26852145310E-01  0.46519069342E-01  0.51100000000E-03 0.  1.
</event>
<event>
 8    1  0.1161093E+005  0.1043930E+01  0.7957747E-01            NaN
         13   -1    0    0    0    0  0.00000000000E+00  0.00000000000E+00  0.74505805969E-08  0.10566000000E+00  0.10566000000E+00 0. -1.
     999900   -1    0    0    0    0 -0.00000000000E+00 -0.00000000000E+00 -0.74505805969E-08  0.93827000000E+00  0.93827000000E+00 0.  1.
     999902    2    1    2    0    0 -0.13755537332E-01  0.59743576144E-02  0.19646033103E-01  0.10192141271E+01  0.10189144039E+01 0.  0.
     999903    2    3    3    0    0  0.19465676451E-01 -0.17814140657E-01  0.12758831271E+00  0.13167760537E+00  0.19077684568E-01 0.  0.
         14    1    1    2    0    0  0.13755537332E-01 -0.59743576144E-02 -0.19646033103E-01  0.24715872894E-01  0.00000000000E+00 0.  1.
     999901    1    3    3    0    0 -0.33221213783E-01  0.23788498271E-01 -0.10794227960E+00  0.88753652174E+00  0.88000000000E+00 0.  1.
        -11    1    4    4    0    0  0.15525396064E-01 -0.19869616913E-02  0.74921128908E-01  0.76540333273E-01  0.51100000000E-03 0.  1.
         11    1    4    4    0    0  0.39402803872E-02 -0.15827178965E-01  0.52667183800E-01  0.55137272094E-01  0.51100000000E-03 0. -1.
</event>
<event>
 8    1  0.1161093E+005  0.1043930E+01  0.7957747E-01            NaN
         13   -1    0    0    0    0  0.00000000000E+00  0.00000000000E+00  0.74505805969E-08  0.10566000000E+00  0.10566000000E+00 0. -1.
     999900   -1    0    0    0    0 -0.00000000000E+00 -0.00000000000E+00 -0.74505805969E-08  0.93827000000E+00  0.93827000000E+00 0.  1.
     999902    2    1    2    0    0 -0.12161256507E-01  0.84022053936E-02 -0.14696721346E-01  0.10230856522E+01  0.10228732888E+01 0.  0.
     999903    2    3    3    0    0 -0.12799969745E+00 -0.72437292872E-02  0.34143050172E-01  0.13401385370E+00  0.18909546490E-01 0.  0.
         14    1    1    2    0    0  0.12161256507E-01 -0.84022053936E-02  0.14696721346E-01  0.20844347762E-01  0.00000000000E+00 0. -1.
     999901    1    3    3    0    0  0.11583844094E+00  0.15645934681E-01 -0.48839771518E-01  0.88907179854E+00  0.88000000000E+00 0.  1.
        -11    1    4    4    0    0 -0.38935828199E-01  0.62983180112E-02  0.85689124062E-02  0.40365268587E-01  0.51100000000E-03 0.  1.
         11    1    4    4    0    0 -0.89063869248E-01 -0.13542047298E-01  0.25574137766E-01  0.93648585114E-01  0.51100000000E-03 0. -1.
</event>
<event>
 8    1  0.1161093E+005  0.1043930E+01  0.7957747E-01            NaN
         13   -1    0    0    0    0  0.00000000000E+00  0.00000000000E+00  0.74505805969E-08  0.10566000000E+00  0.10566000000E+00 0.  1.
     999900   -1    0    0    0    0 -0.00000000000E+00 -0.00000000000E+00 -0.74505805969E-08  0.93827000000E+00  0.93827000000E+00 0.  1.
     999902    2    1    2    0    0  0.14609090909E-02 -0.13524113945E-01  0.19660281132E-01  0.10200226252E+01  0.10197424152E+01 0.  0.
     999903    2    3    3    0    0  0.10119582354E+00 -0.65599667642E-01  0.50478407705E-01  0.13232409907E+00  0.20437378859E-01 0.  0.
         14    1    1    2    0    0 -0.14609090909E-02  0.13524113945E-01 -0.19660281132E-01  0.23907374752E-01  0.00000000000E+00 0. -1.
     999901    1    3    3    0    0 -0.99734914444E-01  0.52075553697E-01 -0.30818126573E-01  0.88769852618E+00  0.88000000000E+00 0.  1.
        -11    1    4    4    0    0  0.13131714000E-01 -0.16709927957E-01  0.12594911093E-01  0.24709441745E-01  0.51100000000E-03 0.  1.
         11    1    4    4    0    0  0.88064109535E-01 -0.48889739685E-01  0.37883496612E-01  0.10761465733E+00  0.51100000000E-03 0. -1.
</event>
<event>
 8    1  0.1161093E+005  0.1043930E+01  0.7957747E-01            NaN
         13   -1    0    0    0    0  0.00000000000E+00  0.00000000000E+00  0.74505805969E-08  0.10566000000E+00  0.10566000000E+00 0.  1.
     999900   -1    0    0    0    0 -0.00000000000E+00 -0.00000000000E+00 -0.74505805969E-08  0.93827000000E+00  0.93827000000E+00 0.  1.
     999902    2    1    2    0    0  0.23847737232E-02 -0.24087336531E-01 -0.10433620842E-02  0.10197024221E+01  0.10194145644E+01 0.  0.
     999903    2    3    3    0    0 -0.21909238303E-01  0.12082621558E+00  0.25951842690E-01  0.12711131879E+00  0.20119645429E-01 0.  0.
         14    1    1    2    0    0 -0.23847737232E-02  0.24087336531E-01  0.10433620842E-02  0.24227577908E-01  0.00000000000E+00 0.  1.
     999901    1    3    3    0    0  0.24294012026E-01 -0.14491355211E+00 -0.26995204775E-01  0.89259110330E+00  0.88000000000E+00 0.  1.
        -11    1    4    4    0    0 -0.13328589688E-01  0.84911658467E-01  0.88268888970E-02  0.86404954345E-01  0.51100000000E-03 0.  1.
         11    1    4    4    0    0 -0.85806486153E-02  0.35914557113E-01  0.17124953793E-01  0.40706364449E-01  0.51100000000E-03 0. -1.
</event>
<event>
 8    1  0.1161093E+005  0.1043930E+01  0.7957747E-01            NaN
         13   -1    0    0    0    0  0.00000000000E+00  0.00000000000E+00  0.74505805969E-08  0.10566000000E+00  0.10566000000E+00 0. -1.
     999900   -1    0    0    0    0 -0.00000000000E+00 -0.00000000000E+00 -0.74505805969E-08  0.93827000000E+00  0.93827000000E+00 0.  1.
     999902    2    1    2    0    0 -0.45083674556E-02  0.28252897572E-02 -0.23217379754E-01  0.10201107985E+01  0.10198326759E+01 0.  0.
     999903    2    3    3    0    0 -0.12899073543E+00 -0.10136845782E-01  0.35286494086E-02  0.13085311535E+00  0.19202108271E-01 0.  0.
         14    1    1    2    0    0  0.45083674556E-02 -0.28252897572E-02  0.23217379754E-01  0.23819201540E-01  0.00000000000E+00 0. -1.
     999901    1    3    3    0    0  0.12448236797E+00  0.12962135539E-01 -0.26746029163E-01  0.88925768311E+00  0.88000000000E+00 0.  1.
        -11    1    4    4    0    0 -0.91431730997E-02 -0.32523384900E-02 -0.41383439593E-02  0.10562307121E-01  0.51100000000E-03 0. -1.
         11    1    4    4    0    0 -0.11984756233E+00 -0.68845072920E-02  0.76669933679E-02  0.12029080823E+00  0.51100000000E-03 0.  1.
</event>
<event>
 8    1  0.1161093E+005  0.1043930E+01  0.7957747E-01            NaN
         13   -1    0    0    0    0  0.00000000000E+00  0.00000000000E+00  0.74505805969E-08  0.10566000000E+00  0.10566000000E+00 0.  1.
     999900   -1    0    0    0    0 -0.00000000000E+00 -0.00000000000E+00 -0.74505805969E-08  0.93827000000E+00  0.93827000000E+00 0. -1.
     999902    2    1    2    0    0  0.22202670781E-01  0.33941341316E-02 -0.58089199640E-02  0.10207303817E+01  0.10204667020E+01 0.  0.
     999903    2    3    3    0    0  0.11027569218E+00  0.11712279656E-01 -0.72062682196E-01  0.13381685176E+00  0.20396418045E-01 0.  0.
         14    1    1    2    0    0 -0.22202670781E-01 -0.33941341316E-02  0.58089199640E-02  0.23199618261E-01  0.00000000000E+00 0. -1.
     999901    1    3    3    0    0 -0.88073021404E-01 -0.83181455246E-02  0.66253762232E-01  0.88691352998E+00  0.88000000000E+00 0.  1.
        -11    1    4    4    0    0  0.59131987574E-01 -0.33779898442E-02 -0.33942142491E-01  0.68266631144E-01  0.51100000000E-03 0. -1.
         11    1    4    4    0    0  0.51143704611E-01  0.15090269500E-01 -0.38120539705E-01  0.65550220620E-01  0.51100000000E-03 0.  1.
</event>
<event>
 8    1  0.1161093E+005  0.1043930E+01  0.7957747E-01            NaN
         13   -1    0    0    0    0  0.00000000000E+00  0.00000000000E+00  0.74505805969E-08  0.10566000000E+00  0.10566000000E+00 0. -1.
     999900   -1    0    0    0    0 -0.00000000000E+00 -0.00000000000E+00 -0.74505805969E-08  0.93827000000E+00  0.93827000000E+00 0.  1.
     999902    2    1    2    0    0 -0.22367821348E-02  0.13347518153E-01 -0.15071016299E-01  0.10236742609E+01  0.10234738382E+01 0.  0.
     999903    2    3    3    0    0  0.10226189230E+00  0.84953616451E-01 -0.41875124340E-02  0.13453655673E+00  0.20197481822E-01 0.  0.
         14    1    1    2    0    0  0.22367821348E-02 -0.13347518153E-01  0.15071016299E-01  0.20255739124E-01  0.00000000000E+00 0. -1.
     999901    1    3    3    0    0 -0.10449867444E+00 -0.71606098297E-01 -0.10883503865E-01  0.88913770414E+00  0.88000000000E+00 0.  1.
        -11    1    4    4    0    0  0.87132242992E-01  0.63277834622E-01  0.48811257382E-03  0.10768756427E+00  0.51100000000E-03 0.  1.
         11    1    4    4    0    0  0.15129649310E-01  0.21675781829E-01 -0.46756250078E-02  0.26848992464E-01  0.51100000000E-03 0. -1.
</event>
<event>
 8    1  0.1161093E+005  0.1043930E+01  0.7957747E-01            NaN
         13   -1    0    0    0    0  0.00000000000E+00  0.00000000000E+00  0.74505805969E-08  0.10566000000E+00  0.10566000000E+00 0. -1.
     999900   -1    0    0    0    0 -0.00000000000E+00 -0.00000000000E+00 -0.74505805969E-08  0.93827000000E+00  0.93827000000E+00 0.  1.
     999902    2    1    2    0    0 -0.58460575480E-02  0.21660965740E-01 -0.94535125166E-02  0.10195836918E+01  0.10192929715E+01 0.  0.
     999903    2    3    3    0    0  0.61823901082E-01  0.45706970905E-02  0.11094453717E+00  0.12864767221E+00  0.19961142718E-01 0.  0.
         14    1    1    2    0    0  0.58460575480E-02 -0.21660965740E-01  0.94535125166E-02  0.24346308232E-01  0.00000000000E+00 0. -1.
     999901    1    3    3    0    0 -0.67669958630E-01  0.17090268649E-01 -0.12039804969E+00  0.89093601956E+00  0.88000000000E+00 0.  1.
        -11    1    4    4    0    0  0.50906702234E-01 -0.39468614531E-02  0.82836858705E-01  0.97310206704E-01  0.51100000000E-03 0.  1.
         11    1    4    4    0    0  0.10917198848E-01  0.85175585436E-02  0.28107678468E-01  0.31337465502E-01  0.51100000000E-03 0. -1.
</event>
<event>
 8    1  0.1161093E+005  0.1043930E+01  0.7957747E-01            NaN
         13   -1    0    0    0    0  0.00000000000E+00  0.00000000000E+00  0.74505805969E-08  0.10566000000E+00  0.10566000000E+00 0. -1.
     999900   -1    0    0    0    0 -0.00000000000E+00 -0.00000000000E+00 -0.74505805969E-08  0.93827000000E+00  0.93827000000E+00 0. -1.
     999902    2    1    2    0    0 -0.13083771693E-01  0.11751798757E-01  0.16668501837E-01  0.10196992590E+01  0.10194113252E+01 0.  0.
     999903    2    3    3    0    0 -0.81345789293E-02  0.12677709060E+00  0.30212712950E-01  0.13209644359E+00  0.19951448835E-01 0.  0.
         14    1    1    2    0    0  0.13083771693E-01 -0.11751798757E-01 -0.16668501837E-01  0.24230740996E-01  0.00000000000E+00 0.  1.
     999901    1    3    3    0    0 -0.49491927635E-02 -0.11502529184E+00 -0.13544211113E-01  0.88760281541E+00  0.88000000000E+00 0. -1.
        -11    1    4    4    0    0  0.46510811173E-02  0.38772383347E-01  0.15203295988E-01  0.41908610045E-01  0.51100000000E-03 0. -1.
         11    1    4    4    0    0 -0.12785660047E-01  0.88004707252E-01  0.15009416962E-01  0.90187833547E-01  0.51100000000E-03 0.  1.
</event>
<event>
 8    1  0.1161093E+005  0.1043930E+01  0.7957747E-01            NaN
         13   -1    0    0    0    0  0.00000000000E+00  0.00000000000E+00  0.74505805969E-08  0.10566000000E+00  0.10566000000E+00 0. -1.
     999900   -1    0    0    0    0 -0.00000000000E+00 -0.00000000000E+00 -0.74505805969E-08  0.93827000000E+00  0.93827000000E+00 0. -1.
     999902    2    1    2    0    0 -0.17716069997E-01 -0.16412442175E-01 -0.47155691596E-02  0.10193238222E+01  0.10190267859E+01 0.  0.
     999903    2    3    3    0    0 -0.62157779328E-01  0.60979428896E-01 -0.94598564020E-01  0.13025491597E+00  0.20865630569E-01 0.  0.
         14    1    1    2    0    0  0.17716069997E-01  0.16412442175E-01  0.47155691596E-02  0.24606177817E-01  0.00000000000E+00 0. -1.
     999901    1    3    3    0    0  0.44441709332E-01 -0.77391871071E-01  0.89882994861E-01  0.88906890622E+00  0.88000000000E+00 0.  1.
        -11    1    4    4    0    0 -0.58103802175E-01  0.52129343999E-01 -0.74453647471E-01  0.10787551657E+00  0.51100000000E-03 0. -1.
         11    1    4    4    0    0 -0.40539771534E-02  0.88500848967E-02 -0.20144916550E-01  0.22379399394E-01  0.51100000000E-03 0.  1.
</event>
<event>
 8    1  0.1161093E+005  0.1043930E+01  0.7957747E-01            NaN
         13   -1    0    0    0    0  0.00000000000E+00  0.00000000000E+00  0.74505805969E-08  0.10566000000E+00  0.10566000000E+00 0.  1.
     999900   -1    0    0    0    0 -0.00000000000E+00 -0.00000000000E+00 -0.74505805969E-08  0.93827000000E+00  0.93827000000E+00 0. -1.
     999902    2    1    2    0    0 -0.22644001879E-01  0.19406554457E-02  0.50716602097E-02  0.10206439805E+01  0.10203783104E+01 0.  0.
     999903    2    3    3    0    0  0.69894040681E-01 -0.48127895471E-01  0.96287594842E-01  0.12969476996E+00  0.18653717856E-01 0.  0.
         14    1    1    2    0    0  0.22644001879E-01 -0.19406554457E-02 -0.50716602097E-02  0.23286019453E-01  0.00000000000E+00 0. -1.
     999901    1    3    3    0    0 -0.92538042561E-01  0.50068550916E-01 -0.91215934632E-01  0.89094921059E+00  0.88000000000E+00 0.  1.
        -11    1    4    4    0    0  0.27929181958E-01 -0.16190563546E-01  0.50034866352E-01  0.59547649195E-01  0.51100000000E-03 0. -1.
         11    1    4    4    0    0  0.41964858723E-01 -0.31937331924E-01  0.46252728490E-01  0.70147120767E-01  0.51100000000E-03 0.  1.
</event>
<event>
 8    1  0.1161093E+005  0.1043930E+01  0.7957747E-01            NaN
         13   -1    0    0    0    0  0.00000000000E+00  0.00000000000E+00  0.74505805969E-08  0.10566000000E+00  0.10566000000E+00 0. -1.
     999900   -1    0    0    0    0 -0.00000000000E+00 -0.00000000000E+00 -0.74505805969E-08  0.93827000000E+00  0.93827000000E+00 0.  1.
     999902    2    1    2    0    0 -0.19321264917E-01  0.78662611949E-02 -0.93571697265E-02  0.10210663614E+01  0.10208103489E+01 0.  0.
     999903    2    3    3    0    0  0.12149041746E+00 -0.22164906978E-02  0.37247862317E-01  0.12859696656E+00  0.19619943778E-01 0.  0.
         14    1    1    2    0    0  0.19321264917E-01 -0.78662611949E-02  0.93571697265E-02  0.22863638566E-01  0.00000000000E+00 0. -1.
     999901    1    3    3    0    0 -0.14081168238E+00  0.10082751893E-01 -0.46605032043E-01  0.89246939488E+00  0.88000000000E+00 0. -1.
        -11    1    4    4    0    0  0.31891472434E-01 -0.92045438554E-02  0.10934074022E-01  0.34951462592E-01  0.51100000000E-03 0.  1.
         11    1    4    4    0    0  0.89598945030E-01  0.69880531576E-02  0.26313788295E-01  0.93645503965E-01  0.51100000000E-03 0. -1.
</event>
<event>
 8    1  0.1161093E+005  0.1043930E+01  0.7957747E-01            NaN
         13   -1    0    0    0    0  0.00000000000E+00  0.00000000000E+00  0.74505805969E-08  0.10566000000E+00  0.10566000000E+00 0. -1.
     999900   -1    0    0    0    0 -0.00000000000E+00 -0.00000000000E+00 -0.74505805969E-08  0.93827000000E+00  0.93827000000E+00 0.  1.
     999902    2    1    2    0    0  0.17572755014E-01  0.16053377933E-02  0.14437234836E-01  0.10211306014E+01  0.10208760417E+01 0.  0.
     999903    2    3    3    0    0 -0.51980785723E-01 -0.10964559804E+00  0.44824006852E-01  0.13088466812E+00  0.19936035305E-01 0.  0.
         14    1    1    2    0    0 -0.17572755014E-01 -0.16053377933E-02 -0.14437234836E-01  0.22799398631E-01  0.00000000000E+00 0. -1.
     999901    1    3    3    0    0  0.69553540737E-01  0.11125093584E+00 -0.30386772015E-01  0.89024593325E+00  0.88000000000E+00 0.  1.
        -11    1    4    4    0    0 -0.36753678289E-01 -0.54926324904E-01  0.21774609241E-01  0.69585406256E-01  0.51100000000E-03 0.  1.
         11    1    4    4    0    0 -0.15227107434E-01 -0.54719273140E-01  0.23049397611E-01  0.61299261863E-01  0.51100000000E-03 0. -1.
</event>
<event>
 8    1  0.1161093E+005  0.1043930E+01  0.7957747E-01            NaN
         13   -1    0    0    0    0  0.00000000000E+00  0.00000000000E+00  0.74505805969E-08  0.10566000000E+00  0.10566000000E+00 0. -1.
     999900   -1    0    0    0    0 -0.00000000000E+00 -0.00000000000E+00 -0.74505805969E-08  0.93827000000E+00  0.93827000000E+00 0.  1.
     999902    2    1    2    0    0 -0.11428363361E-01  0.58515682388E-02  0.20051864788E-01  0.10201198001E+01  0.10198418901E+01 0.  0.
     999903    2    3    3    0    0  0.12635194469E+00  0.14124950194E-01 -0.73185951075E-02  0.12894024227E+00  0.20191485760E-01 0.  0.
         14    1    1    2    0    0  0.11428363361E-01 -0.58515682388E-02 -0.20051864788E-01  0.23810199945E-01  0.00000000000E+00 0.  1.
     999901    1    3    3    0    0 -0.13778030805E+00 -0.82733819548E-02  0.27370459896E-01  0.89117955778E+00  0.88000000000E+00 0. -1.
        -11    1    4    4    0    0  0.59975422763E-01  0.59355350926E-02 -0.13530295090E-01  0.61770639617E-01  0.51100000000E-03 0.  1.
         11    1    4    4    0    0  0.66376521929E-01  0.81894151010E-02  0.62116999825E-02  0.67169602654E-01  0.51100000000E-03 0. -1.
</event>
<event>
 8    1  0.1161093E+005  0.1043930E+01  0.7957747E-01            NaN
         13   -1    0    0    0    0  0.00000000000E+00  0.00000000000E+00  0.74505805969E-08  0.10566000000E+00  0.10566000000E+00 0.  1.
     999900   -1    0    0    0    0 -0.00000000000E+00 -0.00000000000E+00 -0.74505805969E-08  0.93827000000E+00  0.93827000000E+00 0.  1.
     999902    2    1    2    0    0  0.62952203259E-02  0.17142311840E-01 -0.19873734621E-01  0.10169401133E+01  0.10165818905E+01 0.  0.
     999903    2    3    3    0    0  0.93792040037E-01  0.61091468755E-01  0.58396484628E-01  0.12805685381E+00  0.21431146990E-01 0.  0.
         14    1    1    2    0    0 -0.62952203259E-02 -0.17142311840E-01  0.19873734621E-01  0.26989886661E-01  0.00000000000E+00 0. -1.
     999901    1    3    3    0    0 -0.87496819711E-01 -0.43949156914E-01 -0.78270219249E-01  0.88888325953E+00  0.88000000000E+00 0.  1.
        -11    1    4    4    0    0  0.49028418914E-01  0.19830240825E-01  0.23409601372E-01  0.57838524097E-01  0.51100000000E-03 0.  1.
         11    1    4    4    0    0  0.44763621123E-01  0.41261227930E-01  0.34986883256E-01  0.70218329711E-01  0.51100000000E-03 0. -1.
</event>
<event>
 8    1  0.1161093E+005  0.1043930E+01  0.7957747E-01            NaN
         13   -1    0    0    0    0  0.00000000000E+00  0.00000000000E+00  0.74505805969E-08  0.10566000000E+00  0.10566000000E+00 0.  1.
     999900   -1    0    0    0    0 -0.00000000000E+00 -0.00000000000E+00 -0.74505805969E-08  0.93827000000E+00  0.93827000000E+00 0.  1.
     999902    2    1    2    0    0  0.14048975949E-01 -0.11971465065E-01  0.14552823991E-01  0.10204252263E+01  0.10201544824E+01 0.  0.
     999903    2    3    3    0    0  0.64632398842E-01 -0.19444387861E-01  0.11347733334E+00  0.13340742162E+00  0.19105071680E-01 0.  0.
         14    1    1    2    0    0 -0.14048975949E-01  0.11971465065E-01 -0.14552823991E-01  0.23504773710E-01  0.00000000000E+00 0. -1.
     999901    1    3    3    0    0 -0.50583422894E-01  0.74729227957E-02 -0.98924509345E-01  0.88701780467E+00  0.88000000000E+00 0.  1.
        -11    1    4    4    0    0  0.34878498583E-01 -0.17249223295E-01  0.50819150892E-01  0.64006972949E-01  0.51100000000E-03 0. -1.
         11    1    4    4    0    0  0.29753900259E-01 -0.21951645658E-02  0.62658182444E-01  0.69400448674E-01  0.51100000000E-03 0.  1.
</event>
<event>
 8    1  0.1161093E+005  0.1043930E+01  0.7957747E-01            NaN
         13   -1    0    0    0    0  0.00000000000E+00  0.00000000000E+00  0.74505805969E-08  0.10566000000E+00  0.10566000000E+00 0. -1.
     999900   -1    0    0    0    0 -0.00000000000E+00 -0.00000000000E+00 -0.74505805969E-08  0.93827000000E+00  0.93827000000E+00 0.  1.
     999902    2    1    2    0    0 -0.22313697189E-01 -0.32923620196E-02 -0.25143225618E-02  0.10212350105E+01  0.10209828031E+01 0.  0.
     999903    2    3    3    0    0 -0.52766396023E-01 -0.77192715675E-01 -0.92646367901E-01  0.13302759401E+00  0.19234952031E-01 0.  0.
         14    1    1    2    0    0  0.22313697189E-01  0.32923620196E-02  0.25143225618E-02  0.22694989488E-01  0.00000000000E+00 0.  1.
     999901    1    3    3    0    0  0.30452698834E-01  0.73900353655E-01  0.90132045340E-01  0.88820741650E+00  0.88000000000E+00 0. -1.
        -11    1    4    4    0    0 -0.20335248288E-01 -0.16077562907E-01 -0.30442251269E-01  0.39987524746E-01  0.51100000000E-03 0. -1.
         11    1    4    4    0    0 -0.32431147735E-01 -0.61115152768E-01 -0.62204116632E-01  0.93040069262E-01  0.51100000000E-03 0.  1.
</event>
<event>
 8    1  0.1161093E+005  0.1043930E+01  0.7957747E-01            NaN
         13   -1    0    0    0    0  0.00000000000E+00  0.00000000000E+00  0.74505805969E-08  0.10566000000E+00  0.10566000000E+00 0.  1.
     999900   -1    0    0    0    0 -0.00000000000E+00 -0.00000000000E+00 -0.74505805969E-08  0.93827000000E+00  0.93827000000E+00 0.  1.
     999902    2    1    2    0    0 -0.16842207250E-01  0.13865361864E-01  0.88618892867E-02  0.10203834230E+01  0.10201117040E+01 0.  0.
     999903    2    3    3    0    0 -0.91827545072E-01  0.91791880475E-01 -0.22085876568E-01  0.13322328676E+00  0.20065164771E-01 0.  0.
         14    1    1    2    0    0  0.16842207250E-01 -0.13865361864E-01 -0.88618892867E-02  0.23546576958E-01  0.00000000000E+00 0.  1.
     999901    1    3    3    0    0  0.74985337822E-01 -0.77926518611E-01  0.30947765854E-01  0.88716013628E+00  0.88000000000E+00 0.  1.
        -11    1    4    4    0    0 -0.87283073246E-01  0.82510426382E-01 -0.15874456208E-01  0.12115512708E+00  0.51100000000E-03 0. -1.
         11    1    4    4    0    0 -0.45444718257E-02  0.92814540930E-02 -0.62114203592E-02  0.12068159683E-01  0.51100000000E-03 0.  1.
</event>
<event>
 8    1  0.1161093E+005  0.1043930E+01  0.7957747E-01            NaN
         13   -1    0    0    0    0  0.00000000000E+00  0.00000000000E+00  0.74505805969E-08  0.10566000000E+00  0.10566000000E+00 0.  1.
     999900   -1    0    0    0    0 -0.00000000000E+00 -0.00000000000E+00 -0.74505805969E-08  0.93827000000E+00  0.93827000000E+00 0.  1.
     999902    2    1    2    0    0  0.12323782133E-01 -0.16191710571E-01  0.11237443004E-01  0.10206850603E+01  0.10204203374E+01 0.  0.
     999903    2    3    3    0    0  0.96652014414E-01 -0.86434867404E-01  0.25884325987E-01  0.13374657142E+00  0.20138243255E-01 0.  0.
         14    1    1    2    0    0 -0.12323782133E-01  0.16191710571E-01 -0.11237443004E-01  0.23244939719E-01  0.00000000000E+00 0. -1.
     999901    1    3    3    0    0 -0.84328232281E-01  0.70243156833E-01 -0.14646882983E-01  0.88693848886E+00  0.88000000000E+00 0.  1.
        -11    1    4    4    0    0  0.13646779613E-01 -0.15690889003E-01  0.11414459930E-01  0.23727402049E-01  0.51100000000E-03 0.  1.
         11    1    4    4    0    0  0.83005234801E-01 -0.70743978402E-01  0.14469866057E-01  0.11001916937E+00  0.51100000000E-03 0. -1.
</event>
<event>
 8    1  0.1161093E+005  0.1043930E+01  0.7957747E-01            NaN
         13   -1    0    0    0    0  0.00000000000E+00  0.00000000000E+00  0.74505805969E-08  0.10566000000E+00  0.10566000000E+00 0. -1.
     999900   -1    0    0    0    0 -0.00000000000E+00 -0.00000000000E+00 -0.74505805969E-08  0.93827000000E+00  0.93827000000E+00 0.  1.
     999902    2    1    2    0    0  0.15405574862E-01  0.10308555150E-01  0.15396227792E-01  0.10198334883E+01  0.10195487737E+01 0.  0.
     999903    2    3    3    0    0  0.12412533357E-01  0.34709378683E-01 -0.12192489047E+00  0.12884446030E+00  0.19401136067E-01 0.  0.
         14    1    1    2    0    0 -0.15405574862E-01 -0.10308555150E-01 -0.15396227792E-01  0.24096511704E-01  0.00000000000E+00 0.  1.
     999901    1    3    3    0    0  0.29930415047E-02 -0.24400823533E-01  0.13732111826E+00  0.89098902800E+00  0.88000000000E+00 0. -1.
        -11    1    4    4    0    0  0.46651002455E-02  0.20778523406E-02 -0.39862695786E-01  0.40191743766E-01  0.51100000000E-03 0. -1.
         11    1    4    4    0    0  0.77474331115E-02  0.32631526342E-01 -0.82062194686E-01  0.88652716534E-01  0.51100000000E-03 0.  1.
</event>
<event>
 8    1  0.1161093E+005  0.1043930E+01  0.7957747E-01            NaN
         13   -1    0    0    0    0  0.00000000000E+00  0.00000000000E+00  0.74505805969E-08  0.10566000000E+00  0.10566000000E+00 0.  1.
     999900   -1    0    0    0    0 -0.00000000000E+00 -0.00000000000E+00 -0.74505805969E-08  0.93827000000E+00  0.93827000000E+00 0.  1.
     999902    2    1    2    0    0  0.24828695163E-02  0.21607186193E-01  0.10946467095E-01  0.10195812777E+01  0.10192904991E+01 0.  0.
     999903    2    3    3    0    0  0.15969235915E-02  0.93358326646E-01 -0.89445954779E-01  0.13097132421E+00  0.20846621308E-01 0.  0.
         14    1    1    2    0    0 -0.24828695163E-02 -0.21607186193E-01 -0.10946467095E-01  0.24348722309E-01  0.00000000000E+00 0.  1.
     999901    1    3    3    0    0  0.88594592478E-03 -0.71751140453E-01  0.10039242187E+00  0.88860995348E+00  0.88000000000E+00 0. -1.
        -11    1    4    4    0    0 -0.88055751410E-02  0.49438348191E-01 -0.41797992778E-01  0.65337751313E-01  0.51100000000E-03 0. -1.
         11    1    4    4    0    0  0.10402498733E-01  0.43919978455E-01 -0.47647962001E-01  0.65633572897E-01  0.51100000000E-03 0.  1.
</event>
<event>
 8    1  0.1161093E+005  0.1043930E+01  0.7957747E-01            NaN
         13   -1    0    0    0    0  0.00000000000E+00  0.00000000000E+00  0.74505805969E-08  0.10566000000E+00  0.10566000000E+00 0. -1.
     999900   -1    0    0    0    0 -0.00000000000E+00 -0.00000000000E+00 -0.74505805969E-08  0.93827000000E+00  0.93827000000E+00 0.  1.
     999902    2    1    2    0    0 -0.61125754810E-02 -0.27233011783E-01  0.33405088151E-02  0.10158202240E+01  0.10154312226E+01 0.  0.
     999903    2    3    3    0    0  0.79257061027E-01  0.54360166365E-01 -0.76371033160E-01  0.12436111022E+00  0.19910841724E-01 0.  0.
         14    1    1    2    0    0  0.61125754810E-02  0.27233011783E-01 -0.33405088151E-02  0.28109776038E-01  0.00000000000E+00 0.  1.
     999901    1    3    3    0    0 -0.85369636508E-01 -0.81593178148E-01  0.79711541975E-01  0.89145911375E+00  0.88000000000E+00 0. -1.
        -11    1    4    4    0    0  0.66619826262E-01  0.53531970668E-01 -0.67089703238E-01  0.10865156481E+00  0.51100000000E-03 0.  1.
         11    1    4    4    0    0  0.12637234765E-01  0.82819569730E-03 -0.92813299224E-02  0.15709545403E-01  0.51100000000E-03 0. -1.
</event>
<event>
 8    1  0.1161093E+005  0.1043930E+01  0.7957747E-01            NaN
         13   -1    0    0    0    0  0.00000000000E+00  0.00000000000E+00  0.74505805969E-08  0.10566000000E+00  0.10566000000E+00 0.  1.
     999900   -1    0    0    0    0 -0.00000000000E+00 -0.00000000000E+00 -0.74505805969E-08  0.93827000000E+00  0.93827000000E+00 0.  1.
     999902    2    1    2    0    0 -0.15951836843E-01  0.58719699180E-02  0.24424201835E-01  0.10141729376E+01  0.10137362894E+01 0.  0.
     999903    2    3    3    0    0 -0.94659175177E-01  0.76404647973E-01  0.33597571949E-01  0.12780176560E+00  0.20160971497E-01 0.  0.
         14    1    1    2    0    0  0.15951836843E-01 -0.58719699180E-02 -0.24424201835E-01  0.29757062433E-01  0.00000000000E+00 0.  1.
     999901    1    3    3    0    0  0.78707338334E-01 -0.70532678055E-01 -0.91733701145E-02  0.88637117197E+00  0.88000000000E+00 0. -1.
        -11    1    4    4    0    0 -0.18883592297E-01  0.26054002187E-01  0.60778788499E-02  0.32750615572E-01  0.51100000000E-03 0.  1.
         11    1    4    4    0    0 -0.75775582879E-01  0.50350645786E-01  0.27519693099E-01  0.95051150025E-01  0.51100000000E-03 0. -1.
</event>
<event>
 7    1  0.1161093E+005  0.1043930E+01  0.7957747E-01            NaN
         13   -1    0    0    0    0  0.00000000000E+00  0.00000000000E+00  0.74505805969E-08  0.10566000000E+00  0.10566000000E+00 0.  1.
     999900   -1    0    0    0    0 -0.00000000000E+00 -0.00000000000E+00 -0.74505805969E-08  0.93827000000E+00  0.93827000000E+00 0. -1.
     999903    2    1    2    0    0  0.72653347492E-01  0.37808438533E-01 -0.58894302215E-01  0.10277766667E+00  0.19665274131E-01 0.  0.
         14    1    1    2    0    0 -0.14644435277E-02  0.39811510261E-01 -0.30784294939E-01  0.50346536713E-01  0.00000000000E+00 0. -1.
     999901    1    1    2    0    0 -0.71188903965E-01 -0.77619948794E-01  0.89678597154E-01  0.89080579662E+00  0.88000000000E+00 0.  1.
        -11    1    3    3    0    0  0.40015264571E-01  0.19583564018E-01 -0.20022734135E-01  0.48845761142E-01  0.51100000000E-03 0.  1.
         11    1    3    3    0    0  0.32638082921E-01  0.18224874515E-01 -0.38871568080E-01  0.53931905528E-01  0.51100000000E-03 0. -1.
</event>
<event>
 7    1  0.1161093E+005  0.1043930E+01  0.7957747E-01            NaN
         13   -1    0    0    0    0  0.00000000000E+00  0.00000000000E+00  0.74505805969E-08  0.10566000000E+00  0.10566000000E+00 0. -1.
     999900   -1    0    0    0    0 -0.00000000000E+00 -0.00000000000E+00 -0.74505805969E-08  0.93827000000E+00  0.93827000000E+00 0.  1.
     999903    2    1    2    0    0  0.53114994007E-01 -0.10259728741E+00  0.19870480989E-01  0.11889753149E+00  0.19859028380E-01 0.  0.
         14    1    1    2    0    0  0.87785910299E-02  0.37964770754E-01 -0.10846976203E-01  0.40448045338E-01  0.00000000000E+00 0.  1.
     999901    1    1    2    0    0 -0.61893585037E-01  0.64632516654E-01 -0.90235047862E-02  0.88458442317E+00  0.88000000000E+00 0.  1.
        -11    1    3    3    0    0  0.46986303816E-01 -0.83052126155E-01  0.93941088483E-02  0.95884716234E-01  0.51100000000E-03 0. -1.
         11    1    3    3    0    0  0.61286901909E-02 -0.19545161253E-01  0.10476372141E-01  0.23012815258E-01  0.51100000000E-03 0.  1.
</event>
<event>
 8    1  0.1161093E+005  0.1043930E+01  0.7957747E-01            NaN
         13   -1    0    0    0    0  0.00000000000E+00  0.00000000000E+00  0.74505805969E-08  0.10566000000E+00  0.10566000000E+00 0.  1.
     999900   -1    0    0    0    0 -0.00000000000E+00 -0.00000000000E+00 -0.74505805969E-08  0.93827000000E+00  0.93827000000E+00 0. -1.
     999902    2    1    2    0    0  0.20708330583E-01  0.77871265484E-02 -0.41409804085E-02  0.10214217345E+01  0.10211737060E+01 0.  0.
     999903    2    3    3    0    0  0.62282868819E-01  0.83025954197E-01 -0.82017860679E-01  0.13381025878E+00  0.20144256392E-01 0.  0.
         14    1    1    2    0    0 -0.20708330583E-01 -0.77871265484E-02  0.41409804085E-02  0.22508265464E-01  0.00000000000E+00 0.  1.
     999901    1    3    3    0    0 -0.41574538235E-01 -0.75238827648E-01  0.77876880271E-01  0.88761147576E+00  0.88000000000E+00 0.  1.
        -11    1    4    4    0    0  0.42507617277E-01  0.55188194711E-01 -0.42597283199E-01  0.81654295778E-01  0.51100000000E-03 0.  1.
         11    1    4    4    0    0  0.19775251541E-01  0.27837759485E-01 -0.39420577480E-01  0.52155963001E-01  0.51100000000E-03 0. -1.
</event>
<event>
 8    1  0.1161093E+005  0.1043930E+01  0.7957747E-01            NaN
         13   -1    0    0    0    0  0.00000000000E+00  0.00000000000E+00  0.74505805969E-08  0.10566000000E+00  0.10566000000E+00 0. -1.
     999900   -1    0    0    0    0 -0.00000000000E+00 -0.00000000000E+00 -0.74505805969E-08  0.93827000000E+00  0.93827000000E+00 0. -1.
     999902    2    1    2    0    0 -0.22912583282E-01 -0.44830109261E-02  0.48131659472E-02  0.10200919962E+01  0.10198134291E+01 0.  0.
     999903    2    3    3    0    0 -0.58360412819E-01  0.53217831252E-01 -0.10258974297E+00  0.13097933704E+00  0.19820595858E-01 0.  0.
         14    1    1    2    0    0  0.22912583282E-01  0.44830109261E-02 -0.48131659472E-02  0.23838003819E-01  0.00000000000E+00 0. -1.
     999901    1    3    3    0    0  0.35447829537E-01 -0.57700842178E-01  0.10740290892E+00  0.88911265914E+00  0.88000000000E+00 0.  1.
        -11    1    4    4    0    0 -0.88980365423E-02  0.17326187141E-01 -0.33362741760E-01  0.38635546766E-01  0.51100000000E-03 0.  1.
         11    1    4    4    0    0 -0.49462376277E-01  0.35891644111E-01 -0.69227001211E-01  0.92343790271E-01  0.51100000000E-03 0. -1.
</event>
<event>
 8    1  0.1161093E+005  0.1043930E+01  0.7957747E-01            NaN
         13   -1    0    0    0    0  0.00000000000E+00  0.00000000000E+00  0.74505805969E-08  0.10566000000E+00  0.10566000000E+00 0.  1.
     999900   -1    0    0    0    0 -0.00000000000E+00 -0.00000000000E+00 -0.74505805969E-08  0.93827000000E+00  0.93827000000E+00 0. -1.
     999902    2    1    2    0    0  0.16424180739E-01  0.10841346726E-01  0.14047032513E-01  0.10197513393E+01  0.10194646567E+01 0.  0.
     999903    2    3    3    0    0 -0.46767900640E-01  0.69513007491E-01  0.99320797689E-01  0.13143426866E+00  0.19775019191E-01 0.  0.
         14    1    1    2    0    0 -0.16424180739E-01 -0.10841346726E-01 -0.14047032513E-01  0.24178660720E-01  0.00000000000E+00 0. -1.
     999901    1    3    3    0    0  0.63192081379E-01 -0.58671660765E-01 -0.85273765176E-01  0.88831707062E+00  0.88000000000E+00 0. -1.
        -11    1    4    4    0    0 -0.21525789822E-01  0.15885682315E-01  0.28790842114E-01  0.39305066349E-01  0.51100000000E-03 0. -1.
         11    1    4    4    0    0 -0.25242110818E-01  0.53627325176E-01  0.70529955575E-01  0.92129202312E-01  0.51100000000E-03 0.  1.
</event>
<event>
 8    1  0.1161093E+005  0.1043930E+01  0.7957747E-01            NaN
         13   -1    0    0    0    0  0.00000000000E+00  0.00000000000E+00  0.74505805969E-08  0.10566000000E+00  0.10566000000E+00 0. -1.
     999900   -1    0    0    0    0 -0.00000000000E+00 -0.00000000000E+00 -0.74505805969E-08  0.93827000000E+00  0.93827000000E+00 0.  1.
     999902    2    1    2    0    0  0.46629741508E-02 -0.21956899679E-01  0.53144781303E-02  0.10208628708E+01  0.10206022284E+01 0.  0.
     999903    2    3    3    0    0 -0.95164057590E-01 -0.72415582264E-01 -0.52018560878E-01  0.13193171921E+00  0.19995835732E-01 0.  0.
         14    1    1    2    0    0 -0.46629741508E-02  0.21956899679E-01 -0.53144781303E-02  0.23067129193E-01  0.00000000000E+00 0. -1.
     999901    1    3    3    0    0  0.99827031741E-01  0.50458682585E-01  0.57333039008E-01  0.88893115160E+00  0.88000000000E+00 0.  1.
        -11    1    4    4    0    0 -0.77447216976E-01 -0.67346806124E-01 -0.46588635301E-01  0.11271391118E+00  0.51100000000E-03 0.  1.
         11    1    4    4    0    0 -0.17716840614E-01 -0.50687761396E-02 -0.54299255770E-02  0.19217808035E-01  0.51100000000E-03 0. -1.
</event>
<event>
 8    1  0.1161093E+005  0.1043930E+01  0.7957747E-01            NaN
         13   -1    0    0    0    0  0.00000000000E+00  0.00000000000E+00  0.74505805969E-08  0.10566000000E+00  0.10566000000E+00 0.  1.
     999900   -1    0    0    0    0 -0.00000000000E+00 -0.00000000000E+00 -0.74505805969E-08  0.93827000000E+00  0.93827000000E+00 0. -1.
     999902    2    1    2    0    0 -0.54279701613E-02  0.23087333387E-01  0.42612333953E-02  0.10198334041E+01  0.10195486875E+01 0.  0.
     999903    2    3    3    0    0  0.71037713857E-01 -0.66990564084E-01  0.81010954004E-01  0.12862548895E+00  0.21157723713E-01 0.  0.
         14    1    1    2    0    0  0.54279701613E-02 -0.23087333387E-01 -0.42612333953E-02  0.24096595881E-01  0.00000000000E+00 0.  1.
     999901    1    3    3    0    0 -0.76465684018E-01  0.90077897472E-01 -0.76749720608E-01  0.89120791517E+00  0.88000000000E+00 0. -1.
        -11    1    4    4    0    0  0.79643884680E-02 -0.10460901450E-01  0.30465099687E-02  0.13505713117E-01  0.51100000000E-03 0. -1.
         11    1    4    4    0    0  0.63073325389E-01 -0.56529662635E-01  0.77964444035E-01  0.11511977583E+00  0.51100000000E-03 0.  1.
</event>
<event>
 7    1  0.1161093E+005  0.1043930E+01  0.7957747E-01            NaN
         13   -1    0    0    0    0  0.00000000000E+00  0.00000000000E+00  0.74505805969E-08  0.10566000000E+00  0.10566000000E+00 0. -1.
     999900   -1    0    0    0    0 -0.00000000000E+00 -0.00000000000E+00 -0.74505805969E-08  0.93827000000E+00  0.93827000000E+00 0. -1.
     999903    2    1    2    0    0  0.80269478983E-01 -0.11047072317E-01 -0.57643932807E-01  0.10147009140E+00  0.20202212634E-01 0.  0.
         14    1    1    2    0    0 -0.23620106074E-01 -0.63134544305E-02 -0.48291924176E-01  0.54128357249E-01  0.00000000000E+00 0.  1.
     999901    1    1    2    0    0 -0.56649372909E-01  0.17360526747E-01  0.10593585698E+00  0.88833155136E+00  0.88000000000E+00 0.  1.
        -11    1    3    3    0    0  0.23772675740E-01  0.10724730747E-02 -0.27243402930E-01  0.36176711218E-01  0.51100000000E-03 0. -1.
         11    1    3    3    0    0  0.56496803242E-01 -0.12119545391E-01 -0.30400529877E-01  0.65293380177E-01  0.51100000000E-03 0.  1.
</event>
<event>
 8    1  0.1161093E+005  0.1043930E+01  0.7957747E-01            NaN
         13   -1    0    0    0    0  0.00000000000E+00  0.00000000000E+00  0.74505805969E-08  0.10566000000E+00  0.10566000000E+00 0.  1.
     999900   -1    0    0    0    0 -0.00000000000E+00 -0.00000000000E+00 -0.74505805969E-08  0.93827000000E+00  0.93827000000E+00 0. -1.
     999902    2    1    2    0    0 -0.30868432453E-03  0.53543314992E-02 -0.23149134710E-01  0.10201677066E+01  0.10198909270E+01 0.  0.
     999903    2    3    3    0    0  0.97943668737E-01  0.19841275075E-02 -0.88281025585E-01  0.13230113642E+00  0.10637302870E-01 0.  0.
         14    1    1    2    0    0  0.30868432453E-03 -0.53543314992E-02  0.23149134710E-01  0.23762293443E-01  0.00000000000E+00 0.  1.
     999901    1    3    3    0    0 -0.98252353061E-01  0.33702039917E-02  0.65131890874E-01  0.88786657014E+00  0.88000000000E+00 0. -1.
        -11    1    4    4    0    0  0.11497149796E-01 -0.15697886892E-02 -0.14609446638E-01  0.18664022665E-01  0.51100000000E-03 0. -1.
         11    1    4    4    0    0  0.86446518940E-01  0.35539161967E-02 -0.73671578947E-01  0.11363711376E+00  0.51100000000E-03 0.  1.
</event>
<event>
 8    1  0.1161093E+005  0.1043930E+01  0.7957747E-01            NaN
         13   -1    0    0    0    0  0.00000000000E+00  0.00000000000E+00  0.74505805969E-08  0.10566000000E+00  0.10566000000E+00 0.  1.
     999900   -1    0    0    0    0 -0.00000000000E+00 -0.00000000000E+00 -0.74505805969E-08  0.93827000000E+00  0.93827000000E+00 0.  1.
     999902    2    1    2    0    0 -0.72445362189E-02 -0.90115012209E-02  0.21496180356E-01  0.10195214722E+01  0.10192292461E+01 0.  0.
     999903    2    3    3    0    0  0.75815519240E-01 -0.51471577054E-01  0.91791878829E-01  0.13180343359E+00  0.23432453685E-01 0.  0.
         14    1    1    2    0    0  0.72445362189E-02  0.90115012209E-02 -0.21496180356E-01  0.24408527796E-01  0.00000000000E+00 0. -1.
     999901    1    3    3    0    0 -0.83060055459E-01  0.42460075834E-01 -0.70295698473E-01  0.88771803861E+00  0.88000000000E+00 0.  1.
        -11    1    4    4    0    0  0.36493378958E-01 -0.35474189148E-01  0.60507618309E-01  0.79067172694E-01  0.51100000000E-03 0. -1.
         11    1    4    4    0    0  0.39322140282E-01 -0.15997387907E-01  0.31284260519E-01  0.52736260898E-01  0.51100000000E-03 0.  1.
</event>
<event>
 8    1  0.1161093E+005  0.1043930E+01  0.7957747E-01            NaN
         13   -1    0    0    0    0  0.00000000000E+00  0.00000000000E+00  0.74505805969E-08  0.10566000000E+00  0.10566000000E+00 0.  1.
     999900   -1    0    0    0    0 -0.00000000000E+00 -0.00000000000E+00 -0.74505805969E-08  0.93827000000E+00  0.93827000000E+00 0.  1.
     999902    2    1    2    0    0  0.18861859454E-01  0.85300423287E-02  0.80544668731E-02  0.10217172604E+01  0.10214757728E+01 0.  0.
     999903    2    3    3    0    0  0.55010805295E-01 -0.35330593924E-01  0.11461425197E+00  0.13346870875E+00  0.20075604467E-01 0.  0.
         14    1    1    2    0    0 -0.18861859454E-01 -0.85300423287E-02 -0.80544668731E-02  0.22212739606E-01  0.00000000000E+00 0. -1.
     999901    1    3    3    0    0 -0.36148945841E-01  0.43860636253E-01 -0.10655978510E+00  0.88824855164E+00  0.88000000000E+00 0.  1.
        -11    1    4    4    0    0  0.27658507591E-02 -0.68639913985E-02  0.23543119064E-01  0.24684081604E-01  0.51100000000E-03 0. -1.
         11    1    4    4    0    0  0.52244954536E-01 -0.28466602526E-01  0.91071132904E-01  0.10878462715E+00  0.51100000000E-03 0.  1.
</event>
<event>
 8    1  0.1161093E+005  0.1043930E+01  0.7957747E-01            NaN
         13   -1    0    0    0    0  0.00000000000E+00  0.00000000000E+00  0.74505805969E-08  0.10566000000E+00  0.10566000000E+00 0.  1.
     999900   -1    0    0    0    0 -0.00000000000E+00 -0.00000000000E+00 -0.74505805969E-08  0.93827000000E+00  0.93827000000E+00 0.  1.
     999902    2    1    2    0    0 -0.50261138656E-02  0.12750418767E-01 -0.19842113812E-01  0.10198147666E+01  0.10195296042E+01 0.  0.
     999903    2    3    3    0    0 -0.68741619080E-01  0.73961764603E-01 -0.85490963253E-01  0.13295724376E+00  0.13159447286E-01 0.  0.
         14    1    1    2    0    0  0.50261138656E-02 -0.12750418767E-01  0.19842113812E-01  0.24115233357E-01  0.00000000000E+00 0.  1.
     999901    1    3    3    0    0  0.63715505215E-01 -0.61211345836E-01  0.65648849441E-01  0.88685752288E+00  0.88000000000E+00 0. -1.
        -11    1    4    4    0    0 -0.33206655219E-01  0.38793891278E-01 -0.35071570570E-01  0.61950981708E-01  0.51100000000E-03 0. -1.
         11    1    4    4    0    0 -0.35534963861E-01  0.35167873325E-01 -0.50419392683E-01  0.71006262050E-01  0.51100000000E-03 0.  1.
</event>
<event>
 7    1  0.1427817E+005  0.1043930E+01  0.7957747E-01            NaN
         13   -1    0    0    0    0  0.00000000000E+00  0.00000000000E+00  0.74505805969E-08  0.10566000000E+00  0.10566000000E+00 0. -1.
     999900   -1    0    0    0    0 -0.00000000000E+00 -0.00000000000E+00 -0.74505805969E-08  0.93827000000E+00  0.93827000000E+00 0.  1.
     999903    2    1    2    0    0 -0.41950974920E-01 -0.20367262733E-01  0.75907486580E-01  0.91342818840E-01  0.20170630800E-01 0.  0.
         14    1    1    2    0    0 -0.57849384505E-03 -0.47979230434E-01  0.38524826812E-01  0.61534571495E-01  0.00000000000E+00 0. -1.
     999901    1    1    2    0    0  0.42529468765E-01  0.68346493167E-01 -0.11443231339E+00  0.89105260966E+00  0.88000000000E+00 0.  1.
        -11    1    3    3    0    0 -0.15345225000E-01 -0.24664341207E-02  0.41443214877E-01  0.44264663196E-01  0.51100000000E-03 0. -1.
         11    1    3    3    0    0 -0.26605749920E-01 -0.17900828612E-01  0.34464271703E-01  0.47078155644E-01  0.51100000000E-03 0.  1.
</event>
<event>
 8    1  0.1161093E+005  0.1043930E+01  0.7957747E-01            NaN
         13   -1    0    0    0    0  0.00000000000E+00  0.00000000000E+00  0.74505805969E-08  0.10566000000E+00  0.10566000000E+00 0. -1.
     999900   -1    0    0    0    0 -0.00000000000E+00 -0.00000000000E+00 -0.74505805969E-08  0.93827000000E+00  0.93827000000E+00 0.  1.
     999902    2    1    2    0    0  0.18998628955E-01 -0.15266991061E-01 -0.39013793314E-02  0.10192470164E+01  0.10189481001E+01 0.  0.
     999903    2    3    3    0    0  0.11760332861E+00 -0.47173565095E-01 -0.34171502197E-01  0.13264834926E+00  0.19287427344E-01 0.  0.
         14    1    1    2    0    0 -0.18998628955E-01  0.15266991061E-01  0.39013793314E-02  0.24682983590E-01  0.00000000000E+00 0. -1.
     999901    1    3    3    0    0 -0.98604699656E-01  0.31906574034E-01  0.30270122865E-01  0.88659866715E+00  0.88000000000E+00 0. -1.
        -11    1    4    4    0    0  0.91048028703E-01 -0.39445199407E-01 -0.34295741772E-01  0.10498631488E+00  0.51100000000E-03 0.  1.
         11    1    4    4    0    0  0.26555299908E-01 -0.77283656879E-02  0.12423957491E-03  0.27662034377E-01  0.51100000000E-03 0. -1.
</event>
<event>
 8    1  0.1161093E+005  0.1043930E+01  0.7957747E-01            NaN
         13   -1    0    0    0    0  0.00000000000E+00  0.00000000000E+00  0.74505805969E-08  0.10566000000E+00  0.10566000000E+00 0.  1.
     999900   -1    0    0    0    0 -0.00000000000E+00 -0.00000000000E+00 -0.74505805969E-08  0.93827000000E+00  0.93827000000E+00 0.  1.
     999902    2    1    2    0    0 -0.19585600039E-01  0.11519938478E-01 -0.49411610755E-02  0.10206766178E+01  0.10204117004E+01 0.  0.
     999903    2    3    3    0    0 -0.92294060086E-01  0.78543082602E-01 -0.52897986103E-01  0.13384039893E+00  0.20684441037E-01 0.  0.
         14    1    1    2    0    0  0.19585600039E-01 -0.11519938478E-01  0.49411610755E-02  0.23253382210E-01  0.00000000000E+00 0.  1.
     999901    1    3    3    0    0  0.72708460047E-01 -0.67023144124E-01  0.47956825027E-01  0.88683621886E+00  0.88000000000E+00 0. -1.
        -11    1    4    4    0    0 -0.30813711535E-01  0.15383903987E-01 -0.10351890503E-01  0.35966263058E-01  0.51100000000E-03 0.  1.
         11    1    4    4    0    0 -0.61480348551E-01  0.63159178615E-01 -0.42546095600E-01  0.97874135874E-01  0.51100000000E-03 0. -1.
</event>
<event>
 8    1  0.1161093E+005  0.1043930E+01  0.7957747E-01            NaN
         13   -1    0    0    0    0  0.00000000000E+00  0.00000000000E+00  0.74505805969E-08  0.10566000000E+00  0.10566000000E+00 0.  1.
     999900   -1    0    0    0    0 -0.00000000000E+00 -0.00000000000E+00 -0.74505805969E-08  0.93827000000E+00  0.93827000000E+00 0.  1.
     999902    2    1    2    0    0  0.37658945847E-02 -0.23223027900E-01 -0.25443083736E-02  0.10202664311E+01  0.10199919735E+01 0.  0.
     999903    2    3    3    0    0 -0.12189449660E+00 -0.41330669766E-01 -0.15032441883E-01  0.13106770526E+00  0.19653917884E-01 0.  0.
         14    1    1    2    0    0 -0.37658945847E-02  0.23223027900E-01  0.25443083736E-02  0.23663568876E-01  0.00000000000E+00 0.  1.
     999901    1    3    3    0    0  0.12566039118E+00  0.18107641866E-01  0.12488133510E-01  0.88919872587E+00  0.88000000000E+00 0.  1.
        -11    1    4    4    0    0 -0.17853381812E-01 -0.38997927347E-03 -0.62059818393E-02  0.18912182781E-01  0.51100000000E-03 0.  1.
         11    1    4    4    0    0 -0.10404111479E+00 -0.40940690493E-01 -0.88264600439E-02  0.11215552248E+00  0.51100000000E-03 0. -1.
</event>
<event>
 8    1  0.1161093E+005  0.1043930E+01  0.7957747E-01            NaN
         13   -1    0    0    0    0  0.00000000000E+00  0.00000000000E+00  0.74505805969E-08  0.10566000000E+00  0.10566000000E+00 0. -1.
     999900   -1    0    0    0    0 -0.00000000000E+00 -0.00000000000E+00 -0.74505805969E-08  0.93827000000E+00  0.93827000000E+00 0.  1.
     999902    2    1    2    0    0  0.21957714377E-01 -0.70870828981E-02 -0.54723751857E-02  0.10202168211E+01  0.10199411979E+01 0.  0.
     999903    2    3    3    0    0  0.49733057460E-01  0.31078001286E-01 -0.11663754137E+00  0.13196812982E+00  0.19288651173E-01 0.  0.
         14    1    1    2    0    0 -0.21957714377E-01  0.70870828981E-02  0.54723751857E-02  0.23713178927E-01  0.00000000000E+00 0. -1.
     999901    1    3    3    0    0 -0.27775343083E-01 -0.38165084184E-01  0.11116516618E+00  0.88824869125E+00  0.88000000000E+00 0. -1.
        -11    1    4    4    0    0  0.10909182726E-01 -0.87332326068E-03 -0.27899852296E-01  0.29973919337E-01  0.51100000000E-03 0. -1.
         11    1    4    4    0    0  0.38823874734E-01  0.31951324547E-01 -0.88737689073E-01  0.10199421049E+00  0.51100000000E-03 0.  1.
</event>
<event>
 8    1  0.1161093E+005  0.1043930E+01  0.7957747E-01            NaN
         13   -1    0    0    0    0  0.00000000000E+00  0.00000000000E+00  0.74505805969E-08  0.10566000000E+00  0.10566000000E+00 0.  1.
     999900   -1    0    0    0    0 -0.00000000000E+00 -0.00000000000E+00 -0.74505805969E-08  0.93827000000E+00  0.93827000000E+00 0. -1.
     999902    2    1    2    0    0  0.18833732061E-01 -0.16691502136E-01 -0.61176480131E-02  0.10180313258E+01  0.10177018419E+01 0.  0.
     999903    2    3    3    0    0 -0.63538037731E-02 -0.11670152982E+00  0.52921787892E-01  0.13004367242E+00  0.21237307216E-01 0.  0.
         14    1    1    2    0    0 -0.18833732061E-01  0.16691502136E-01  0.61176480131E-02  0.25898674176E-01  0.00000000000E+00 0.  1.
     999901    1    3    3    0    0  0.25187535834E-01  0.10001002769E+00 -0.59039435905E-01  0.88798765340E+00  0.88000000000E+00 0.  1.
        -11    1    4    4    0    0  0.37310042729E-02 -0.63446676291E-01  0.37028352477E-01  0.73557876080E-01  0.51100000000E-03 0. -1.
         11    1    4    4    0    0 -0.10084808046E-01 -0.53254853534E-01  0.15893435415E-01  0.56485796343E-01  0.51100000000E-03 0.  1.
</event>
<event>
 8    1  0.1161093E+005  0.1043930E+01  0.7957747E-01            NaN
         13   -1    0    0    0    0  0.00000000000E+00  0.00000000000E+00  0.74505805969E-08  0.10566000000E+00  0.10566000000E+00 0. -1.
     999900   -1    0    0    0    0 -0.00000000000E+00 -0.00000000000E+00 -0.74505805969E-08  0.93827000000E+00  0.93827000000E+00 0. -1.
     999902    2    1    2    0    0 -0.60780846551E-02  0.21135243073E-01 -0.76365391934E-02  0.10206500012E+01  0.10203844700E+01 0.  0.
     999903    2    3    3    0    0 -0.28997218322E-01  0.12869579495E+00  0.80871154139E-02  0.13366533825E+00  0.19939280456E-01 0.  0.
         14    1    1    2    0    0  0.60780846551E-02 -0.21135243073E-01  0.76365391934E-02  0.23279998790E-01  0.00000000000E+00 0.  1.
     999901    1    3    3    0    0  0.22919133667E-01 -0.10756055188E+00 -0.15723654607E-01  0.88698466296E+00  0.88000000000E+00 0. -1.
        -11    1    4    4    0    0 -0.12256973928E-01  0.89284073885E-01  0.20412396038E-03  0.90123149340E-01  0.51100000000E-03 0. -1.
         11    1    4    4    0    0 -0.16740244395E-01  0.39411721068E-01  0.78829914535E-02  0.43542188911E-01  0.51100000000E-03 0.  1.
</event>
<event>
 8    1  0.1161093E+005  0.1043930E+01  0.7957747E-01            NaN
         13   -1    0    0    0    0  0.00000000000E+00  0.00000000000E+00  0.74505805969E-08  0.10566000000E+00  0.10566000000E+00 0.  1.
     999900   -1    0    0    0    0 -0.00000000000E+00 -0.00000000000E+00 -0.74505805969E-08  0.93827000000E+00  0.93827000000E+00 0.  1.
     999902    2    1    2    0    0 -0.22007516865E-01  0.48513903755E-02  0.18586616390E-02  0.10213175828E+01  0.10210672278E+01 0.  0.
     999903    2    3    3    0    0 -0.94601622892E-01 -0.21492362138E-01 -0.89197346062E-01  0.13325503207E+00  0.19731911802E-01 0.  0.
         14    1    1    2    0    0  0.22007516865E-01 -0.48513903755E-02 -0.18586616390E-02  0.22612417169E-01  0.00000000000E+00 0. -1.
     999901    1    3    3    0    0  0.72594106027E-01  0.26343752514E-01  0.91056007701E-01  0.88806255076E+00  0.88000000000E+00 0. -1.
        -11    1    4    4    0    0 -0.78696957186E-01 -0.14413359788E-01 -0.63177049808E-01  0.10194389022E+00  0.51100000000E-03 0. -1.
         11    1    4    4    0    0 -0.15904665706E-01 -0.70790023507E-02 -0.26020296254E-01  0.31311141845E-01  0.51100000000E-03 0.  1.
</event>
<event>
 8    1  0.1161093E+005  0.1043930E+01  0.7957747E-01            NaN
         13   -1    0    0    0    0  0.00000000000E+00  0.00000000000E+00  0.74505805969E-08  0.10566000000E+00  0.10566000000E+00 0.  1.
     999900   -1    0    0    0    0 -0.00000000000E+00 -0.00000000000E+00 -0.74505805969E-08  0.93827000000E+00  0.93827000000E+00 0.  1.
     999902    2    1    2    0    0  0.18305312935E-01  0.12927251984E-01 -0.93360465857E-02  0.10196532603E+01  0.10193642191E+01 0.  0.
     999903    2    3    3    0    0 -0.77762999832E-01 -0.43241363492E-01  0.89238852547E-01  0.12718418809E+00  0.17185611319E-01 0.  0.
         14    1    1    2    0    0 -0.18305312935E-01 -0.12927251984E-01  0.93360465857E-02  0.24276739718E-01  0.00000000000E+00 0. -1.
     999901    1    3    3    0    0  0.96068312767E-01  0.56168615476E-01 -0.98574899132E-01  0.89246907219E+00  0.88000000000E+00 0.  1.
        -11    1    4    4    0    0 -0.50297484136E-01 -0.36586282015E-01  0.57817653437E-01  0.84920757839E-01  0.51100000000E-03 0.  1.
         11    1    4    4    0    0 -0.27465515696E-01 -0.66550814767E-02  0.31421199110E-01  0.42263430249E-01  0.51100000000E-03 0. -1.
</event>
<event>
 8    1  0.1161093E+005  0.1043930E+01  0.7957747E-01            NaN
         13   -1    0    0    0    0  0.00000000000E+00  0.00000000000E+00  0.74505805969E-08  0.10566000000E+00  0.10566000000E+00 0.  1.
     999900   -1    0    0    0    0 -0.00000000000E+00 -0.00000000000E+00 -0.74505805969E-08  0.93827000000E+00  0.93827000000E+00 0.  1.
     999902    2    1    2    0    0  0.17291571071E-01 -0.11015459395E-01 -0.11032230944E-01  0.10206480565E+01  0.10203824804E+01 0.  0.
     999903    2    3    3    0    0 -0.47876685332E-01 -0.11772929683E+00  0.13697144997E-01  0.13146512433E+00  0.30709978911E-01 0.  0.
         14    1    1    2    0    0 -0.17291571071E-01  0.11015459395E-01  0.11032230944E-01  0.23281943548E-01  0.00000000000E+00 0.  1.
     999901    1    3    3    0    0  0.65168256402E-01  0.10671383743E+00 -0.24729375942E-01  0.88918293212E+00  0.88000000000E+00 0. -1.
        -11    1    4    4    0    0 -0.23582167910E-01 -0.35928994527E-01 -0.72779576728E-02  0.43591754724E-01  0.51100000000E-03 0. -1.
         11    1    4    4    0    0 -0.24294517422E-01 -0.81800302298E-01  0.20975102670E-01  0.87873369606E-01  0.51100000000E-03 0.  1.
</event>
<event>
 8    1  0.1161093E+005  0.1043930E+01  0.7957747E-01            NaN
         13   -1    0    0    0    0  0.00000000000E+00  0.00000000000E+00  0.74505805969E-08  0.10566000000E+00  0.10566000000E+00 0. -1.
     999900   -1    0    0    0    0 -0.00000000000E+00 -0.00000000000E+00 -0.74505805969E-08  0.93827000000E+00  0.93827000000E+00 0.  1.
     999902    2    1    2    0    0  0.98171830546E-02  0.19645947871E-01 -0.90938007633E-02  0.10201594812E+01  0.10198825077E+01 0.  0.
     999903    2    3    3    0    0 -0.58072077814E-01  0.60247150099E-02 -0.11573404163E+00  0.13102134195E+00  0.19067255753E-01 0.  0.
         14    1    1    2    0    0 -0.98171830546E-02 -0.19645947871E-01  0.90938007633E-02  0.23770518782E-01  0.00000000000E+00 0. -1.
     999901    1    3    3    0    0  0.67889260869E-01  0.13621232861E-01  0.10664024087E+00  0.88913813927E+00  0.88000000000E+00 0. -1.
        -11    1    4    4    0    0 -0.50151854317E-01  0.10517166145E-01 -0.10566674855E+00  0.11743739670E+00  0.51100000000E-03 0.  1.
         11    1    4    4    0    0 -0.79202234974E-02 -0.44924511352E-02 -0.10067293085E-01  0.13583945248E-01  0.51100000000E-03 0. -1.
</event>
<event>
 8    1  0.1161093E+005  0.1043930E+01  0.7957747E-01            NaN
         13   -1    0    0    0    0  0.00000000000E+00  0.00000000000E+00  0.74505805969E-08  0.10566000000E+00  0.10566000000E+00 0.  1.
     999900   -1    0    0    0    0 -0.00000000000E+00 -0.00000000000E+00 -0.74505805969E-08  0.93827000000E+00  0.93827000000E+00 0.  1.
     999902    2    1    2    0    0  0.10671346243E-01  0.33565432583E-03  0.21002456868E-01  0.10203695779E+01  0.10200975356E+01 0.  0.
     999903    2    3    3    0    0  0.12690535927E+00  0.16116523799E-01  0.28788280814E-01  0.13255202870E+00  0.19405222235E-01 0.  0.
         14    1    1    2    0    0 -0.10671346243E-01 -0.33565432583E-03 -0.21002456868E-01  0.23560422088E-01  0.00000000000E+00 0. -1.
     999901    1    3    3    0    0 -0.11623401303E+00 -0.15780869474E-01 -0.77858239458E-02  0.88781754921E+00  0.88000000000E+00 0.  1.
        -11    1    4    4    0    0  0.36412783620E-01 -0.28254325145E-02  0.12928631506E-01  0.38746412911E-01  0.51100000000E-03 0.  1.
         11    1    4    4    0    0  0.90492575653E-01  0.18941956314E-01  0.15859649307E-01  0.93805615794E-01  0.51100000000E-03 0. -1.
</event>
<event>
 8    1  0.1161093E+005  0.1043930E+01  0.7957747E-01            NaN
         13   -1    0    0    0    0  0.00000000000E+00  0.00000000000E+00  0.74505805969E-08  0.10566000000E+00  0.10566000000E+00 0. -1.
     999900   -1    0    0    0    0 -0.00000000000E+00 -0.00000000000E+00 -0.74505805969E-08  0.93827000000E+00  0.93827000000E+00 0.  1.
     999902    2    1    2    0    0  0.37515798254E-02  0.19097591267E-02  0.23157987130E-01  0.10203925002E+01  0.10201209931E+01 0.  0.
     999903    2    3    3    0    0  0.10709271532E-03  0.55578877731E-01 -0.11368707500E+00  0.12819284335E+00  0.20484895489E-01 0.  0.
         14    1    1    2    0    0 -0.37515798254E-02 -0.19097591267E-02 -0.23157987130E-01  0.23537499846E-01  0.00000000000E+00 0.  1.
     999901    1    3    3    0    0  0.36444871101E-02 -0.53669118604E-01  0.13684506213E+00  0.89219965681E+00  0.88000000000E+00 0. -1.
        -11    1    4    4    0    0 -0.74111852685E-02  0.41326934870E-01 -0.92371799831E-01  0.10146749104E+00  0.51100000000E-03 0. -1.
         11    1    4    4    0    0  0.75182779838E-02  0.14251942860E-01 -0.21315275173E-01  0.26725352306E-01  0.51100000000E-03 0.  1.
</event>
<event>
 8    1  0.1161093E+005  0.1043930E+01  0.7957747E-01            NaN
         13   -1    0    0    0    0  0.00000000000E+00  0.00000000000E+00  0.74505805969E-08  0.10566000000E+00  0.10566000000E+00 0.  1.
     999900   -1    0    0    0    0 -0.00000000000E+00 -0.00000000000E+00 -0.74505805969E-08  0.93827000000E+00  0.93827000000E+00 0. -1.
     999902    2    1    2    0    0 -0.11798539694E-01  0.19609869437E-02 -0.22633306906E-01  0.10183308283E+01  0.10180090168E+01 0.  0.
     999903    2    3    3    0    0  0.11478014464E+00 -0.26094972062E-01  0.44244297313E-01  0.12632078684E+00  0.11998090417E-01 0.  0.
         14    1    1    2    0    0  0.11798539694E-01 -0.19609869437E-02  0.22633306906E-01  0.25599171671E-01  0.00000000000E+00 0.  1.
     999901    1    3    3    0    0 -0.12657868433E+00  0.28055959006E-01 -0.66877604219E-01  0.89201004148E+00  0.88000000000E+00 0.  1.
        -11    1    4    4    0    0  0.39588130557E-01 -0.96205224225E-02  0.93436641286E-02  0.41801192722E-01  0.51100000000E-03 0. -1.
         11    1    4    4    0    0  0.75192014084E-01 -0.16474449640E-01  0.34900633184E-01  0.84519594122E-01  0.51100000000E-03 0.  1.
</event>
<event>
 8    1  0.1161093E+005  0.1043930E+01  0.7957747E-01            NaN
         13   -1    0    0    0    0  0.00000000000E+00  0.00000000000E+00  0.74505805969E-08  0.10566000000E+00  0.10566000000E+00 0. -1.
     999900   -1    0    0    0    0 -0.00000000000E+00 -0.00000000000E+00 -0.74505805969E-08  0.93827000000E+00  0.93827000000E+00 0. -1.
     999902    2    1    2    0    0 -0.13023547082E-01 -0.24184304511E-01 -0.10078936044E-02  0.10164434722E+01  0.10160717607E+01 0.  0.
     999903    2    3    3    0    0  0.58719703326E-01 -0.11256187460E+00  0.11595247773E-01  0.12902219224E+00  0.19851880227E-01 0.  0.
         14    1    1    2    0    0  0.13023547082E-01  0.24184304511E-01  0.10078936044E-02  0.27486527841E-01  0.00000000000E+00 0. -1.
     999901    1    3    3    0    0 -0.71743250407E-01  0.88377570088E-01 -0.12603141377E-01  0.88742127992E+00  0.88000000000E+00 0.  1.
        -11    1    4    4    0    0  0.36545036638E-01 -0.80531289209E-01  0.22842042873E-03  0.88437218078E-01  0.51100000000E-03 0. -1.
         11    1    4    4    0    0  0.22174666688E-01 -0.32030585390E-01  0.11366827344E-01  0.40584974166E-01  0.51100000000E-03 0.  1.
</event>
<event>
 8    1  0.1161093E+005  0.1043930E+01  0.7957747E-01            NaN
         13   -1    0    0    0    0  0.00000000000E+00  0.00000000000E+00  0.74505805969E-08  0.10566000000E+00  0.10566000000E+00 0.  1.
     999900   -1    0    0    0    0 -0.00000000000E+00 -0.00000000000E+00 -0.74505805969E-08  0.93827000000E+00  0.93827000000E+00 0.  1.
     999902    2    1    2    0    0  0.22360257297E-01 -0.66127117897E-02 -0.39925419116E-02  0.10202730887E+01  0.10199987872E+01 0.  0.
     999903    2    3    3    0    0  0.23921615942E-01 -0.10405794349E+00 -0.75138598734E-01  0.13203901341E+00  0.19702607160E-01 0.  0.
         14    1    1    2    0    0 -0.22360257297E-01  0.66127117897E-02  0.39925419116E-02  0.23656911347E-01  0.00000000000E+00 0.  1.
     999901    1    3    3    0    0 -0.15613586449E-02  0.97445231704E-01  0.71146056823E-01  0.88823407524E+00  0.88000000000E+00 0. -1.
        -11    1    4    4    0    0  0.11660968861E-01 -0.28278579250E-01 -0.30687034011E-01  0.43331413739E-01  0.51100000000E-03 0.  1.
         11    1    4    4    0    0  0.12260647081E-01 -0.75779364243E-01 -0.44451564723E-01  0.88707599670E-01  0.51100000000E-03 0. -1.
</event>
<event>
 8    1  0.1161093E+005  0.1043930E+01  0.7957747E-01            NaN
         13   -1    0    0    0    0  0.00000000000E+00  0.00000000000E+00  0.74505805969E-08  0.10566000000E+00  0.10566000000E+00 0.  1.
     999900   -1    0    0    0    0 -0.00000000000E+00 -0.00000000000E+00 -0.74505805969E-08  0.93827000000E+00  0.93827000000E+00 0. -1.
     999902    2    1    2    0    0  0.35749582647E-02  0.18476322262E-01  0.13689795480E-01  0.10206584442E+01  0.10203931077E+01 0.  0.
     999903    2    3    3    0    0 -0.12842404189E-01 -0.88489154181E-01 -0.89233957525E-01  0.12807542736E+00  0.21103510740E-01 0.  0.
         14    1    1    2    0    0 -0.35749582647E-02 -0.18476322262E-01 -0.13689795480E-01  0.23271555840E-01  0.00000000000E+00 0.  1.
     999901    1    3    3    0    0  0.16417362454E-01  0.10696547644E+00  0.10292375301E+00  0.89258301680E+00  0.88000000000E+00 0.  1.
        -11    1    4    4    0    0 -0.15080062335E-01 -0.33735176971E-01 -0.39102461743E-01  0.53802733022E-01  0.51100000000E-03 0. -1.
         11    1    4    4    0    0  0.22376581451E-02 -0.54753977210E-01 -0.50131495782E-01  0.74272694341E-01  0.51100000000E-03 0.  1.
</event>
<event>
 8    1  0.1161093E+005  0.1043930E+01  0.7957747E-01            NaN
         13   -1    0    0    0    0  0.00000000000E+00  0.00000000000E+00  0.74505805969E-08  0.10566000000E+00  0.10566000000E+00 0. -1.
     999900   -1    0    0    0    0 -0.00000000000E+00 -0.00000000000E+00 -0.74505805969E-08  0.93827000000E+00  0.93827000000E+00 0.  1.
     999902    2    1    2    0    0 -0.21720877188E-02 -0.23579501711E-01  0.17820588873E-02  0.10201837034E+01  0.10199073008E+01 0.  0.
     999903    2    3    3    0    0 -0.75368854591E-01 -0.19716064499E-01 -0.10325055217E+00  0.13091178654E+00  0.20199799236E-01 0.  0.
         14    1    1    2    0    0  0.21720877188E-02  0.23579501711E-01 -0.17820588873E-02  0.23746296550E-01  0.00000000000E+00 0. -1.
     999901    1    3    3    0    0  0.73196766872E-01 -0.38634372114E-02  0.10503261106E+00  0.88927191691E+00  0.88000000000E+00 0. -1.
        -11    1    4    4    0    0 -0.68821266594E-01 -0.16918090512E-01 -0.10107992521E+00  0.12345039863E+00  0.51100000000E-03 0. -1.
         11    1    4    4    0    0 -0.65475879969E-02 -0.27979739874E-02 -0.21706269623E-02  0.74613879018E-02  0.51100000000E-03 0.  1.
</event>
<event>
 8    1  0.1161093E+005  0.1043930E+01  0.7957747E-01            NaN
         13   -1    0    0    0    0  0.00000000000E+00  0.00000000000E+00  0.74505805969E-08  0.10566000000E+00  0.10566000000E+00 0.  1.
     999900   -1    0    0    0    0 -0.00000000000E+00 -0.00000000000E+00 -0.74505805969E-08  0.93827000000E+00  0.93827000000E+00 0.  1.
     999902    2    1    2    0    0  0.61457065056E-02 -0.25044984395E-01  0.35460504523E-02  0.10178993368E+01  0.10175664423E+01 0.  0.
     999903    2    3    3    0    0 -0.83200663769E-01 -0.54687757599E-01 -0.79753450743E-01  0.12896723886E+00  0.18942927725E-01 0.  0.
         14    1    1    2    0    0 -0.61457065056E-02  0.25044984395E-01 -0.35460504523E-02  0.26030663181E-01  0.00000000000E+00 0. -1.
     999901    1    3    3    0    0  0.89346370275E-01  0.29642773204E-01  0.83299501195E-01  0.88893209796E+00  0.88000000000E+00 0. -1.
        -11    1    4    4    0    0 -0.64934573164E-01 -0.33090851878E-01 -0.53955581558E-01  0.90680588729E-01  0.51100000000E-03 0. -1.
         11    1    4    4    0    0 -0.18266090605E-01 -0.21596905721E-01 -0.25797869184E-01  0.38286650130E-01  0.51100000000E-03 0.  1.
</event>
<event>
 8    1  0.1239045E+005  0.1043930E+01  0.7957747E-01            NaN
         13   -1    0    0    0    0  0.00000000000E+00  0.00000000000E+00  0.74505805969E-08  0.10566000000E+00  0.10566000000E+00 0. -1.
     999900   -1    0    0    0    0 -0.00000000000E+00 -0.00000000000E+00 -0.74505805969E-08  0.93827000000E+00  0.93827000000E+00 0.  1.
     999902    2    1    2    0    0  0.11918416995E-01 -0.17323235500E-01  0.10420486973E-01  0.10204623691E+01  0.10201924902E+01 0.  0.
     999903    2    3    3    0    0  0.73184190864E-01  0.69012176240E-01 -0.79368680218E-01  0.12958112396E+00  0.19320300897E-01 0.  0.
         14    1    1    2    0    0 -0.11918416995E-01  0.17323235500E-01 -0.10420486973E-01  0.23467630912E-01  0.00000000000E+00 0.  1.
     999901    1    3    3    0    0 -0.61265773869E-01 -0.86335411740E-01  0.89789167190E-01  0.89088124512E+00  0.88000000000E+00 0. -1.
        -11    1    4    4    0    0  0.46861906203E-01  0.31001678763E-01 -0.43881986543E-01  0.71295386970E-01  0.51100000000E-03 0.  1.
         11    1    4    4    0    0  0.26322284661E-01  0.38010497476E-01 -0.35486693674E-01  0.58285736995E-01  0.51100000000E-03 0. -1.
</event>
<event>
 8    1  0.1161093E+005  0.1043930E+01  0.7957747E-01            NaN
         13   -1    0    0    0    0  0.00000000000E+00  0.00000000000E+00  0.74505805969E-08  0.10566000000E+00  0.10566000000E+00 0. -1.
     999900   -1    0    0    0    0 -0.00000000000E+00 -0.00000000000E+00 -0.74505805969E-08  0.93827000000E+00  0.93827000000E+00 0. -1.
     999902    2    1    2    0    0 -0.14677343460E-02  0.21287497987E-01  0.88033917676E-02  0.10208472896E+01  0.10205862909E+01 0.  0.
     999903    2    3    3    0    0 -0.91512695289E-01  0.38090495708E-01  0.85911161075E-01  0.13273916337E+00  0.20334665763E-01 0.  0.
         14    1    1    2    0    0  0.14677343460E-02 -0.21287497987E-01 -0.88033917676E-02  0.23082710440E-01  0.00000000000E+00 0.  1.
     999901    1    3    3    0    0  0.90044960943E-01 -0.16802997721E-01 -0.77107769307E-01  0.88810812619E+00  0.88000000000E+00 0. -1.
        -11    1    4    4    0    0 -0.28995197778E-01  0.72371827889E-02  0.37052830846E-01  0.47605374734E-01  0.51100000000E-03 0.  1.
         11    1    4    4    0    0 -0.62517497510E-01  0.30853312919E-01  0.48858330229E-01  0.85133788632E-01  0.51100000000E-03 0. -1.
</event>
<event>
 8    1  0.1308451E+005  0.1043930E+01  0.7957747E-01            NaN
         13   -1    0    0    0    0  0.00000000000E+00  0.00000000000E+00  0.74505805969E-08  0.10566000000E+00  0.10566000000E+00 0. -1.
     999900   -1    0    0    0    0 -0.00000000000E+00 -0.00000000000E+00 -0.74505805969E-08  0.93827000000E+00  0.93827000000E+00 0. -1.
     999902    2    1    2    0    0  0.71196601900E-02  0.26761082053E-03  0.22787274168E-01  0.10200548866E+01  0.10197754413E+01 0.  0.
     999903    2    3    3    0    0  0.26541124149E-01  0.36420361733E-01 -0.11810991446E+00  0.12790230298E+00  0.19446675675E-01 0.  0.
         14    1    1    2    0    0 -0.71196601900E-02 -0.26761082053E-03 -0.22787274168E-01  0.23875113419E-01  0.00000000000E+00 0.  1.
     999901    1    3    3    0    0 -0.19421463959E-01 -0.36152750913E-01  0.14089718863E+00  0.89215258360E+00  0.88000000000E+00 0.  1.
        -11    1    4    4    0    0  0.14508549557E-01  0.48886363265E-02 -0.35678131641E-01  0.38827657330E-01  0.51100000000E-03 0. -1.
         11    1    4    4    0    0  0.12032574592E-01  0.31531725407E-01 -0.82431782817E-01  0.89074645651E-01  0.51100000000E-03 0.  1.
</event>
<event>
 8    1  0.1161093E+005  0.1043930E+01  0.7957747E-01            NaN
         13   -1    0    0    0    0  0.00000000000E+00  0.00000000000E+00  0.74505805969E-08  0.10566000000E+00  0.10566000000E+00 0. -1.
     999900   -1    0    0    0    0 -0.00000000000E+00 -0.00000000000E+00 -0.74505805969E-08  0.93827000000E+00  0.93827000000E+00 0. -1.
     999902    2    1    2    0    0  0.18123160037E-01  0.73311569534E-02  0.13705947155E-01  0.10200543266E+01  0.10197748680E+01 0.  0.
     999903    2    3    3    0    0 -0.75303003505E-01  0.96241846708E-02  0.10423340889E+00  0.13048761898E+00  0.19981188908E-01 0.  0.
         14    1    1    2    0    0 -0.18123160037E-01 -0.73311569534E-02 -0.13705947155E-01  0.23875673381E-01  0.00000000000E+00 0.  1.
     999901    1    3    3    0    0  0.93426163542E-01 -0.22930277174E-02 -0.90527461738E-01  0.88956670764E+00  0.88000000000E+00 0. -1.
        -11    1    4    4    0    0 -0.45298792946E-01  0.12378514611E-01  0.75087208892E-01  0.88563865806E-01  0.51100000000E-03 0. -1.
         11    1    4    4    0    0 -0.30004210559E-01 -0.27543299401E-02  0.29146200001E-01  0.41923753174E-01  0.51100000000E-03 0.  1.
</event>
<event>
 8    1  0.1161093E+005  0.1043930E+01  0.7957747E-01            NaN
         13   -1    0    0    0    0  0.00000000000E+00  0.00000000000E+00  0.74505805969E-08  0.10566000000E+00  0.10566000000E+00 0. -1.
     999900   -1    0    0    0    0 -0.00000000000E+00 -0.00000000000E+00 -0.74505805969E-08  0.93827000000E+00  0.93827000000E+00 0.  1.
     999902    2    1    2    0    0 -0.71803554337E-02  0.15964099983E-01  0.21052660175E-02  0.10262992843E+01  0.10261478347E+01 0.  0.
     999903    2    3    3    0    0 -0.10920245962E+00 -0.41143682987E-01 -0.66623170084E-01  0.13590981524E+00  0.20367897548E-01 0.  0.
         14    1    1    2    0    0  0.71803554337E-02 -0.15964099983E-01 -0.21052660175E-02  0.17630715738E-01  0.00000000000E+00 0.  1.
     999901    1    3    3    0    0  0.10202210418E+00  0.57107782969E-01  0.68728436101E-01  0.89038946902E+00  0.88000000000E+00 0. -1.
        -11    1    4    4    0    0 -0.99588168326E-01 -0.31780679892E-01 -0.54866790006E-01  0.11806117334E+00  0.51100000000E-03 0. -1.
         11    1    4    4    0    0 -0.96142912899E-02 -0.93630030947E-02 -0.11756380078E-01  0.17848641895E-01  0.51100000000E-03 0.  1.
</event>
<event>
 8    1  0.1161093E+005  0.1043930E+01  0.7957747E-01            NaN
         13   -1    0    0    0    0  0.00000000000E+00  0.00000000000E+00  0.74505805969E-08  0.10566000000E+00  0.10566000000E+00 0.  1.
     999900   -1    0    0    0    0 -0.00000000000E+00 -0.00000000000E+00 -0.74505805969E-08  0.93827000000E+00  0.93827000000E+00 0.  1.
     999902    2    1    2    0    0  0.22288306444E-01 -0.87243286292E-02  0.40383290452E-02  0.10196567510E+01  0.10193677939E+01 0.  0.
     999903    2    3    3    0    0  0.10923900155E-02  0.12168044863E+00 -0.37077694589E-01  0.12884521080E+00  0.20469685298E-01 0.  0.
         14    1    1    2    0    0 -0.22288306444E-01  0.87243286292E-02 -0.40383290452E-02  0.24273248972E-01  0.00000000000E+00 0. -1.
     999901    1    3    3    0    0  0.21195916429E-01 -0.13040477726E+00  0.41116023634E-01  0.89081154023E+00  0.88000000000E+00 0.  1.
        -11    1    4    4    0    0  0.88783425091E-02  0.86433705784E-01 -0.21391717915E-01  0.89484508032E-01  0.51100000000E-03 0.  1.
         11    1    4    4    0    0 -0.77859524936E-02  0.35246742842E-01 -0.15685976673E-01  0.39360702768E-01  0.51100000000E-03 0. -1.
</event>
<event>
 8    1  0.1161093E+005  0.1043930E+01  0.7957747E-01            NaN
         13   -1    0    0    0    0  0.00000000000E+00  0.00000000000E+00  0.74505805969E-08  0.10566000000E+00  0.10566000000E+00 0.  1.
     999900   -1    0    0    0    0 -0.00000000000E+00 -0.00000000000E+00 -0.74505805969E-08  0.93827000000E+00  0.93827000000E+00 0.  1.
     999902    2    1    2    0    0 -0.22551080719E-01  0.22825287479E-02  0.74051881411E-02  0.10200847072E+01  0.10198059677E+01 0.  0.
     999903    2    3    3    0    0  0.44139735024E-01 -0.63897246611E-01  0.10243102919E+00  0.12999631940E+00  0.19384348942E-01 0.  0.
         14    1    1    2    0    0  0.22551080719E-01 -0.22825287479E-02 -0.74051881411E-02  0.23845292838E-01  0.00000000000E+00 0. -1.
     999901    1    3    3    0    0 -0.66690815744E-01  0.66179775359E-01 -0.95025841044E-01  0.89008838777E+00  0.88000000000E+00 0.  1.
        -11    1    4    4    0    0  0.18514469247E-01 -0.29925671087E-01  0.31255905406E-01  0.47069354205E-01  0.51100000000E-03 0.  1.
         11    1    4    4    0    0  0.25625265778E-01 -0.33971575524E-01  0.71175123780E-01  0.82926965191E-01  0.51100000000E-03 0. -1.
</event>
<event>
 8    1  0.1161093E+005  0.1043930E+01  0.7957747E-01            NaN
         13   -1    0    0    0    0  0.00000000000E+00  0.00000000000E+00  0.74505805969E-08  0.10566000000E+00  0.10566000000E+00 0. -1.
     999900   -1    0    0    0    0 -0.00000000000E+00 -0.00000000000E+00 -0.74505805969E-08  0.93827000000E+00  0.93827000000E+00 0. -1.
     999902    2    1    2    0    0  0.13154730428E-01 -0.17889474467E-01 -0.68549038437E-02  0.10206905952E+01  0.10204259998E+01 0.  0.
     999903    2    3    3    0    0  0.79667688953E-02  0.48261083439E-01  0.11800577899E+00  0.12940332311E+00  0.20670137286E-01 0.  0.
         14    1    1    2    0    0 -0.13154730428E-01  0.17889474467E-01  0.68549038437E-02  0.23239404812E-01  0.00000000000E+00 0. -1.
     999901    1    3    3    0    0  0.51879615326E-02 -0.66150557905E-01 -0.12486068283E+00  0.89128727208E+00  0.88000000000E+00 0. -1.
        -11    1    4    4    0    0  0.14863572257E-01  0.30397703776E-01  0.79215504927E-01  0.86141183629E-01  0.51100000000E-03 0. -1.
         11    1    4    4    0    0 -0.68968033612E-02  0.17863379662E-01  0.38790274060E-01  0.43262139478E-01  0.51100000000E-03 0.  1.
</event>
<event>
 8    1  0.1161093E+005  0.1043930E+01  0.7957747E-01            NaN
         13   -1    0    0    0    0  0.00000000000E+00  0.00000000000E+00  0.74505805969E-08  0.10566000000E+00  0.10566000000E+00 0.  1.
     999900   -1    0    0    0    0 -0.00000000000E+00 -0.00000000000E+00 -0.74505805969E-08  0.93827000000E+00  0.93827000000E+00 0.  1.
     999902    2    1    2    0    0 -0.22142750374E-01 -0.33082119057E-02  0.41618926471E-02  0.10211579335E+01  0.10209039907E+01 0.  0.
     999903    2    3    3    0    0  0.74850455886E-01  0.94139367831E-01 -0.42857031210E-01  0.12924174238E+00  0.20047232441E-01 0.  0.
         14    1    1    2    0    0  0.22142750374E-01  0.33082119057E-02 -0.41618926471E-02  0.22772066453E-01  0.00000000000E+00 0. -1.
     999901    1    3    3    0    0 -0.96993206260E-01 -0.97447579736E-01  0.47018923857E-01  0.89191619116E+00  0.88000000000E+00 0.  1.
        -11    1    4    4    0    0  0.39886564311E-01  0.59552502142E-01 -0.33735578921E-01  0.79219877114E-01  0.51100000000E-03 0. -1.
         11    1    4    4    0    0  0.34963891575E-01  0.34586865689E-01 -0.91214522889E-02  0.50021865270E-01  0.51100000000E-03 0.  1.
</event>
<event>
 8    1  0.1161093E+005  0.1043930E+01  0.7957747E-01            NaN
         13   -1    0    0    0    0  0.00000000000E+00  0.00000000000E+00  0.74505805969E-08  0.10566000000E+00  0.10566000000E+00 0.  1.
     999900   -1    0    0    0    0 -0.00000000000E+00 -0.00000000000E+00 -0.74505805969E-08  0.93827000000E+00  0.93827000000E+00 0.  1.
     999902    2    1    2    0    0 -0.75805299592E-02  0.68964743247E-02 -0.20853474748E-01  0.10206943980E+01  0.10204298902E+01 0.  0.
     999903    2    3    3    0    0 -0.84258775210E-01 -0.26074671508E-01 -0.98069661678E-01  0.13337878937E+00  0.19819516060E-01 0.  0.
         14    1    1    2    0    0  0.75805299592E-02 -0.68964743247E-02  0.20853474748E-01  0.23235602028E-01  0.00000000000E+00 0.  1.
     999901    1    3    3    0    0  0.76678245250E-01  0.32971145832E-01  0.77216186931E-01  0.88731560861E+00  0.88000000000E+00 0. -1.
        -11    1    4    4    0    0 -0.62116049722E-01 -0.19116030765E-01 -0.58203065169E-01  0.87244966510E-01  0.51100000000E-03 0. -1.
         11    1    4    4    0    0 -0.22142725487E-01 -0.69586407427E-02 -0.39866596510E-01  0.46133822855E-01  0.51100000000E-03 0.  1.
</event>
<event>
 8    1  0.1161093E+005  0.1043930E+01  0.7957747E-01            NaN
         13   -1    0    0    0    0  0.00000000000E+00  0.00000000000E+00  0.74505805969E-08  0.10566000000E+00  0.10566000000E+00 0. -1.
     999900   -1    0    0    0    0 -0.00000000000E+00 -0.00000000000E+00 -0.74505805969E-08  0.93827000000E+00  0.93827000000E+00 0. -1.
     999902    2    1    2    0    0 -0.20416242182E-01 -0.11555116369E-01 -0.66977626679E-02  0.10195332034E+01  0.10192412615E+01 0.  0.
     999903    2    3    3    0    0 -0.31098951178E-01  0.51333374197E-01 -0.11416140892E+00  0.13070390721E+00  0.21176024243E-01 0.  0.
         14    1    1    2    0    0  0.20416242182E-01  0.11555116369E-01  0.66977626679E-02  0.24396796591E-01  0.00000000000E+00 0.  1.
     999901    1    3    3    0    0  0.10682708996E-01 -0.62888490566E-01  0.10746364625E+00  0.88882929620E+00  0.88000000000E+00 0.  1.
        -11    1    4    4    0    0 -0.33630101973E-01  0.43463465943E-01 -0.93671841939E-01  0.10860355300E+00  0.51100000000E-03 0. -1.
         11    1    4    4    0    0  0.25311507951E-02  0.78699082538E-02 -0.20489566979E-01  0.22100354211E-01  0.51100000000E-03 0.  1.
</event>
<event>
 8    1  0.1161093E+005  0.1043930E+01  0.7957747E-01            NaN
         13   -1    0    0    0    0  0.00000000000E+00  0.00000000000E+00  0.74505805969E-08  0.10566000000E+00  0.10566000000E+00 0.  1.
     999900   -1    0    0    0    0 -0.00000000000E+00 -0.00000000000E+00 -0.74505805969E-08  0.93827000000E+00  0.93827000000E+00 0.  1.
     999902    2    1    2    0    0 -0.17308462966E-01  0.90449580172E-02  0.13139482428E-01  0.10203919424E+01  0.10201204223E+01 0.  0.
     999903    2    3    3    0    0 -0.10894645696E+00  0.15495302541E-01  0.72591851665E-01  0.13361479280E+00  0.21769268286E-01 0.  0.
         14    1    1    2    0    0  0.17308462966E-01 -0.90449580172E-02 -0.13139482428E-01  0.23538057572E-01  0.00000000000E+00 0. -1.
     999901    1    3    3    0    0  0.91637993999E-01 -0.64503445239E-02 -0.59452369237E-01  0.88677714962E+00  0.88000000000E+00 0.  1.
        -11    1    4    4    0    0 -0.43099205643E-01  0.42735320052E-02  0.16364840038E-01  0.46301983902E-01  0.51100000000E-03 0.  1.
         11    1    4    4    0    0 -0.65847251322E-01  0.11221770536E-01  0.56227011627E-01  0.87312808901E-01  0.51100000000E-03 0. -1.
</event>
<event>
 8    1  0.1161093E+005  0.1043930E+01  0.7957747E-01            NaN
         13   -1    0    0    0    0  0.00000000000E+00  0.00000000000E+00  0.74505805969E-08  0.10566000000E+00  0.10566000000E+00 0. -1.
     999900   -1    0    0    0    0 -0.00000000000E+00 -0.00000000000E+00 -0.74505805969E-08  0.93827000000E+00  0.93827000000E+00 0.  1.
     999902    2    1    2    0    0 -0.66610619931E-03  0.16301528157E-01  0.17731250255E-01  0.10198347566E+01  0.10195500724E+01 0.  0.
     999903    2    3    3    0    0 -0.44895579621E-01 -0.10789203238E+00 -0.47188633230E-01  0.12764930613E+00  0.20279904557E-01 0.  0.
         14    1    1    2    0    0  0.66610619931E-03 -0.16301528157E-01 -0.17731250255E-01  0.24095243376E-01  0.00000000000E+00 0.  1.
     999901    1    3    3    0    0  0.44229473421E-01  0.12419356054E+00  0.64919883485E-01  0.89218545049E+00  0.88000000000E+00 0. -1.
        -11    1    4    4    0    0 -0.18609426233E-01 -0.25741901463E-01 -0.71900023040E-02  0.32571666979E-01  0.51100000000E-03 0. -1.
         11    1    4    4    0    0 -0.26286153387E-01 -0.82150130919E-01 -0.39998630926E-01  0.95077639153E-01  0.51100000000E-03 0.  1.
</event>
<event>
 8    1  0.1161093E+005  0.1043930E+01  0.7957747E-01            NaN
         13   -1    0    0    0    0  0.00000000000E+00  0.00000000000E+00  0.74505805969E-08  0.10566000000E+00  0.10566000000E+00 0. -1.
     999900   -1    0    0    0    0 -0.00000000000E+00 -0.00000000000E+00 -0.74505805969E-08  0.93827000000E+00  0.93827000000E+00 0.  1.
     999902    2    1    2    0    0  0.11092067674E-01  0.15628441065E-01 -0.13924884378E-01  0.10202406661E+01  0.10199656035E+01 0.  0.
     999903    2    3    3    0    0 -0.18000916953E-01  0.12832711676E+00  0.15886275689E-01  0.13207621145E+00  0.19996748944E-01 0.  0.
         14    1    1    2    0    0 -0.11092067674E-01 -0.15628441065E-01  0.13924884378E-01  0.23689333895E-01  0.00000000000E+00 0. -1.
     999901    1    3    3    0    0  0.29092984628E-01 -0.11269867569E+00 -0.29811160067E-01  0.88816445466E+00  0.88000000000E+00 0. -1.
        -11    1    4    4    0    0 -0.16584245296E-01  0.10431023002E+00  0.52096469621E-02  0.10575000152E+00  0.51100000000E-03 0. -1.
         11    1    4    4    0    0 -0.14166716573E-02  0.24016886735E-01  0.10676628727E-01  0.26326209924E-01  0.51100000000E-03 0.  1.
</event>
<event>
 8    1  0.1161093E+005  0.1043930E+01  0.7957747E-01            NaN
         13   -1    0    0    0    0  0.00000000000E+00  0.00000000000E+00  0.74505805969E-08  0.10566000000E+00  0.10566000000E+00 0. -1.
     999900   -1    0    0    0    0 -0.00000000000E+00 -0.00000000000E+00 -0.74505805969E-08  0.93827000000E+00  0.93827000000E+00 0. -1.
     999902    2    1    2    0    0 -0.17303061476E-01  0.15076679257E-01 -0.62932239149E-02  0.10201327972E+01  0.10198551942E+01 0.  0.
     999903    2    3    3    0    0 -0.91878645372E-01 -0.77197362861E-01 -0.49024052229E-01  0.13114351703E+00  0.19853111971E-01 0.  0.
         14    1    1    2    0    0  0.17303061476E-01 -0.15076679257E-01  0.62932239149E-02  0.23797202800E-01  0.00000000000E+00 0. -1.
     999901    1    3    3    0    0  0.74575583896E-01  0.92274042118E-01  0.42730828314E-01  0.88898928017E+00  0.88000000000E+00 0.  1.
        -11    1    4    4    0    0 -0.23865433626E-01 -0.19809297104E-01 -0.22376001671E-01  0.38248055450E-01  0.51100000000E-03 0.  1.
         11    1    4    4    0    0 -0.68013211746E-01 -0.57388065757E-01 -0.26648050558E-01  0.92895461584E-01  0.51100000000E-03 0. -1.
</event>
<event>
 8    1  0.1161093E+005  0.1043930E+01  0.7957747E-01            NaN
         13   -1    0    0    0    0  0.00000000000E+00  0.00000000000E+00  0.74505805969E-08  0.10566000000E+00  0.10566000000E+00 0.  1.
     999900   -1    0    0    0    0 -0.00000000000E+00 -0.00000000000E+00 -0.74505805969E-08  0.93827000000E+00  0.93827000000E+00 0.  1.
     999902    2    1    2    0    0  0.82252023034E-02 -0.16367153795E-01 -0.14989906554E-01  0.10202607166E+01  0.10199861249E+01 0.  0.
     999903    2    3    3    0    0  0.99439294605E-01  0.80137773055E-01 -0.16393487346E-01  0.13029713223E+00  0.19958964345E-01 0.  0.
         14    1    1    2    0    0 -0.82252023034E-02  0.16367153795E-01  0.14989906554E-01  0.23669283360E-01  0.00000000000E+00 0.  1.
     999901    1    3    3    0    0 -0.91214092301E-01 -0.96504926850E-01  0.14035807915E-02  0.88996358441E+00  0.88000000000E+00 0.  1.
        -11    1    4    4    0    0  0.33034237171E-01  0.16444286583E-01 -0.89975033274E-02  0.37985412645E-01  0.51100000000E-03 0. -1.
         11    1    4    4    0    0  0.66405057434E-01  0.63693486471E-01 -0.73959840184E-02  0.92311719583E-01  0.51100000000E-03 0.  1.
</event>
<event>
 8    1  0.1161093E+005  0.1043930E+01  0.7957747E-01            NaN
         13   -1    0    0    0    0  0.00000000000E+00  0.00000000000E+00  0.74505805969E-08  0.10566000000E+00  0.10566000000E+00 0.  1.
     999900   -1    0    0    0    0 -0.00000000000E+00 -0.00000000000E+00 -0.74505805969E-08  0.93827000000E+00  0.93827000000E+00 0. -1.
     999902    2    1    2    0    0  0.10928672758E-01 -0.18487750375E-01  0.10178724045E-01  0.10201636535E+01  0.10198867784E+01 0.  0.
     999903    2    3    3    0    0  0.15857393415E-02 -0.17705693495E-01 -0.12683469530E+00  0.12951188144E+00  0.19242696011E-01 0.  0.
         14    1    1    2    0    0 -0.10928672758E-01  0.18487750375E-01 -0.10178724045E-01  0.23766346488E-01  0.00000000000E+00 0. -1.
     999901    1    3    3    0    0  0.93429334169E-02 -0.78205688087E-03  0.13701341935E+00  0.89065177207E+00  0.88000000000E+00 0.  1.
        -11    1    4    4    0    0  0.87222158883E-02 -0.24485145422E-02 -0.53669802413E-01  0.54431434718E-01  0.51100000000E-03 0.  1.
         11    1    4    4    0    0 -0.71364765468E-02 -0.15257178952E-01 -0.73164892889E-01  0.75080446719E-01  0.51100000000E-03 0. -1.
</event>
<event>
 8    1  0.1161093E+005  0.1043930E+01  0.7957747E-01            NaN
         13   -1    0    0    0    0  0.00000000000E+00  0.00000000000E+00  0.74505805969E-08  0.10566000000E+00  0.10566000000E+00 0.  1.
     999900   -1    0    0    0    0 -0.00000000000E+00 -0.00000000000E+00 -0.74505805969E-08  0.93827000000E+00  0.93827000000E+00 0. -1.
     999902    2    1    2    0    0 -0.22496769279E-02 -0.20210742807E-01 -0.11308435255E-01  0.10206616550E+01  0.10203963926E+01 0.  0.
     999903    2    3    3    0    0 -0.89663008589E-01  0.84471476590E-01  0.31340356295E-01  0.12913578492E+00  0.22780420247E-01 0.  0.
         14    1    1    2    0    0  0.22496769279E-02  0.20210742807E-01  0.11308435255E-01  0.23268344999E-01  0.00000000000E+00 0.  1.
     999901    1    3    3    0    0  0.87413331661E-01 -0.10468221940E+00 -0.42648791550E-01  0.89152587008E+00  0.88000000000E+00 0. -1.
        -11    1    4    4    0    0 -0.51535084716E-01  0.63310986416E-01  0.21771205641E-01  0.84489008005E-01  0.51100000000E-03 0.  1.
         11    1    4    4    0    0 -0.38127923873E-01  0.21160490175E-01  0.95691506542E-02  0.44646776911E-01  0.51100000000E-03 0. -1.
</event>
<event>
 8    1  0.1161093E+005  0.1043930E+01  0.7957747E-01            NaN
         13   -1    0    0    0    0  0.00000000000E+00  0.00000000000E+00  0.74505805969E-08  0.10566000000E+00  0.10566000000E+00 0. -1.
     999900   -1    0    0    0    0 -0.00000000000E+00 -0.00000000000E+00 -0.74505805969E-08  0.93827000000E+00  0.93827000000E+00 0. -1.
     999902    2    1    2    0    0 -0.25237647036E-01 -0.97255708909E-02  0.48544457509E-02  0.10164510772E+01  0.10160795742E+01 0.  0.
     999903    2    3    3    0    0  0.10644695249E+00 -0.40099467514E-01  0.48349167014E-01  0.12507281955E+00  0.19148035196E-01 0.  0.
         14    1    1    2    0    0  0.25237647036E-01  0.97255708909E-02 -0.48544457509E-02  0.27478922843E-01  0.00000000000E+00 0.  1.
     999901    1    3    3    0    0 -0.13168459952E+00  0.30373896623E-01 -0.43494721263E-01  0.89137825760E+00  0.88000000000E+00 0.  1.
        -11    1    4    4    0    0  0.89466884598E-01 -0.27828044458E-01  0.44654863184E-01  0.10379326291E+00  0.51100000000E-03 0.  1.
         11    1    4    4    0    0  0.16980067888E-01 -0.12271423055E-01  0.36943038297E-02  0.21279556647E-01  0.51100000000E-03 0. -1.
</event>
<event>
 8    1  0.1161093E+005  0.1043930E+01  0.7957747E-01            NaN
         13   -1    0    0    0    0  0.00000000000E+00  0.00000000000E+00  0.74505805969E-08  0.10566000000E+00  0.10566000000E+00 0. -1.
     999900   -1    0    0    0    0 -0.00000000000E+00 -0.00000000000E+00 -0.74505805969E-08  0.93827000000E+00  0.93827000000E+00 0. -1.
     999902    2    1    2    0    0 -0.20091255041E-01  0.21377447465E-03  0.96886603633E-02  0.10216236249E+01  0.10213800745E+01 0.  0.
     999903    2    3    3    0    0 -0.11678426731E+00 -0.59021235379E-01 -0.20053566334E-01  0.13384948415E+00  0.19785539353E-01 0.  0.
         14    1    1    2    0    0  0.20091255041E-01 -0.21377447465E-03 -0.96886603633E-02  0.22306375059E-01  0.00000000000E+00 0.  1.
     999901    1    3    3    0    0  0.96693012266E-01  0.59235009854E-01  0.29742226697E-01  0.88777414079E+00  0.88000000000E+00 0.  1.
        -11    1    4    4    0    0 -0.32284259880E-01 -0.98828602615E-02 -0.11727057125E-01  0.35745340294E-01  0.51100000000E-03 0. -1.
         11    1    4    4    0    0 -0.84500007427E-01 -0.49138375118E-01 -0.83265092083E-02  0.98104143852E-01  0.51100000000E-03 0.  1.
</event>
<event>
 8    1  0.1161093E+005  0.1043930E+01  0.7957747E-01            NaN
         13   -1    0    0    0    0  0.00000000000E+00  0.00000000000E+00  0.74505805969E-08  0.10566000000E+00  0.10566000000E+00 0.  1.
     999900   -1    0    0    0    0 -0.00000000000E+00 -0.00000000000E+00 -0.74505805969E-08  0.93827000000E+00  0.93827000000E+00 0. -1.
     999902    2    1    2    0    0 -0.14616016547E-02  0.21784335250E-01 -0.11090383871E-01  0.10194414281E+01  0.10191472588E+01 0.  0.
     999903    2    3    3    0    0  0.46319508650E-01  0.71995725803E-01  0.95973281898E-01  0.13024693483E+00  0.20603683638E-01 0.  0.
         14    1    1    2    0    0  0.14616016547E-02 -0.21784335250E-01  0.11090383871E-01  0.24488571949E-01  0.00000000000E+00 0. -1.
     999901    1    3    3    0    0 -0.47781110305E-01 -0.50211390552E-01 -0.10706366577E+00  0.88919449322E+00  0.88000000000E+00 0. -1.
        -11    1    4    4    0    0  0.22589358170E-01  0.51172051825E-01  0.54266132899E-01  0.77935436686E-01  0.51100000000E-03 0.  1.
         11    1    4    4    0    0  0.23730150480E-01  0.20823673977E-01  0.41707148999E-01  0.52311498146E-01  0.51100000000E-03 0. -1.
</event>
<event>
 8    1  0.1203118E+005  0.1043930E+01  0.7957747E-01            NaN
         13   -1    0    0    0    0  0.00000000000E+00  0.00000000000E+00  0.74505805969E-08  0.10566000000E+00  0.10566000000E+00 0. -1.
     999900   -1    0    0    0    0 -0.00000000000E+00 -0.00000000000E+00 -0.74505805969E-08  0.93827000000E+00  0.93827000000E+00 0. -1.
     999902    2    1    2    0    0  0.76792469528E-02 -0.16697170483E-01 -0.14629466184E-01  0.10204398400E+01  0.10201694366E+01 0.  0.
     999903    2    3    3    0    0  0.61748017633E-01 -0.10754631880E+00 -0.45539313529E-01  0.13357321058E+00  0.19721692094E-01 0.  0.
         14    1    1    2    0    0 -0.76792469528E-02  0.16697170483E-01  0.14629466184E-01  0.23490159998E-01  0.00000000000E+00 0. -1.
     999901    1    3    3    0    0 -0.54068770680E-01  0.90849148322E-01  0.30909847345E-01  0.88686662942E+00  0.88000000000E+00 0.  1.
        -11    1    4    4    0    0  0.28802460407E-01 -0.47744918649E-01 -0.10184107393E-01  0.56684531811E-01  0.51100000000E-03 0. -1.
         11    1    4    4    0    0  0.32945557226E-01 -0.59801400156E-01 -0.35355206136E-01  0.76888678772E-01  0.51100000000E-03 0.  1.
</event>
<event>
 8    1  0.1161093E+005  0.1043930E+01  0.7957747E-01            NaN
         13   -1    0    0    0    0  0.00000000000E+00  0.00000000000E+00  0.74505805969E-08  0.10566000000E+00  0.10566000000E+00 0.  1.
     999900   -1    0    0    0    0 -0.00000000000E+00 -0.00000000000E+00 -0.74505805969E-08  0.93827000000E+00  0.93827000000E+00 0. -1.
     999902    2    1    2    0    0  0.13917205167E-01  0.14817512050E-01 -0.10195536327E-01  0.10211880514E+01  0.10209347874E+01 0.  0.
     999903    2    3    3    0    0  0.90523179911E-02 -0.31420230290E-01 -0.12660801393E+00  0.13230478527E+00  0.20144271720E-01 0.  0.
         14    1    1    2    0    0 -0.13917205167E-01 -0.14817512050E-01  0.10195536327E-01  0.22741948553E-01  0.00000000000E+00 0.  1.
     999901    1    3    3    0    0  0.48648871754E-02  0.46237742339E-01  0.11641247760E+00  0.88888326617E+00  0.88000000000E+00 0.  1.
        -11    1    4    4    0    0 -0.25824515010E-02 -0.19137944626E-01 -0.88861880136E-01  0.90937477656E-01  0.51100000000E-03 0.  1.
         11    1    4    4    0    0  0.11634769492E-01 -0.12282285663E-01 -0.37746133791E-01  0.41367307616E-01  0.51100000000E-03 0. -1.
</event>
<event>
 8    1  0.1161093E+005  0.1043930E+01  0.7957747E-01            NaN
         13   -1    0    0    0    0  0.00000000000E+00  0.00000000000E+00  0.74505805969E-08  0.10566000000E+00  0.10566000000E+00 0. -1.
     999900   -1    0    0    0    0 -0.00000000000E+00 -0.00000000000E+00 -0.74505805969E-08  0.93827000000E+00  0.93827000000E+00 0. -1.
     999902    2    1    2    0    0  0.33202068565E-02 -0.18270207221E-01  0.14842736878E-01  0.10201575141E+01  0.10198804943E+01 0.  0.
     999903    2    3    3    0    0  0.90425090631E-02 -0.83241833716E-01  0.10164587545E+00  0.13348460836E+00  0.21801073894E-01 0.  0.
         14    1    1    2    0    0 -0.33202068565E-02  0.18270207221E-01 -0.14842736878E-01  0.23772485850E-01  0.00000000000E+00 0.  1.
     999901    1    3    3    0    0 -0.57223022066E-02  0.64971626495E-01 -0.86803138573E-01  0.88667290579E+00  0.88000000000E+00 0. -1.
        -11    1    4    4    0    0  0.14246422187E-01 -0.60242555950E-01  0.63854884063E-01  0.88937244348E-01  0.51100000000E-03 0.  1.
         11    1    4    4    0    0 -0.52039131235E-02 -0.22999277766E-01  0.37790991388E-01  0.44547364014E-01  0.51100000000E-03 0. -1.
</event>
<event>
 8    1  0.1161093E+005  0.1043930E+01  0.7957747E-01            NaN
         13   -1    0    0    0    0  0.00000000000E+00  0.00000000000E+00  0.74505805969E-08  0.10566000000E+00  0.10566000000E+00 0.  1.
     999900   -1    0    0    0    0 -0.00000000000E+00 -0.00000000000E+00 -0.74505805969E-08  0.93827000000E+00  0.93827000000E+00 0. -1.
     999902    2    1    2    0    0  0.20816408099E-01 -0.23747754386E-02  0.11795562368E-01  0.10198863377E+01  0.10196028855E+01 0.  0.
     999903    2    3    3    0    0  0.89922181724E-01  0.79636075446E-01  0.51917185989E-01  0.13246809793E+00  0.20603385425E-01 0.  0.
         14    1    1    2    0    0 -0.20816408099E-01  0.23747754386E-02 -0.11795562368E-01  0.24043662286E-01  0.00000000000E+00 0. -1.
     999901    1    3    3    0    0 -0.69105773625E-01 -0.82010850885E-01 -0.40121623621E-01  0.88741823978E+00  0.88000000000E+00 0. -1.
        -11    1    4    4    0    0  0.66002638046E-01  0.47995198075E-01  0.28723036951E-01  0.86516826340E-01  0.51100000000E-03 0. -1.
         11    1    4    4    0    0  0.23919543679E-01  0.31640877371E-01  0.23194149037E-01  0.45951271595E-01  0.51100000000E-03 0.  1.
</event>
<event>
 8    1  0.1161093E+005  0.1043930E+01  0.7957747E-01            NaN
         13   -1    0    0    0    0  0.00000000000E+00  0.00000000000E+00  0.74505805969E-08  0.10566000000E+00  0.10566000000E+00 0.  1.
     999900   -1    0    0    0    0 -0.00000000000E+00 -0.00000000000E+00 -0.74505805969E-08  0.93827000000E+00  0.93827000000E+00 0. -1.
     999902    2    1    2    0    0  0.12091332319E-01  0.15393150067E-01  0.12868070727E-01  0.10205048718E+01  0.10202359809E+01 0.  0.
     999903    2    3    3    0    0 -0.52503090332E-01 -0.86354710017E-01  0.78904505796E-01  0.12983889782E+00  0.20457466036E-01 0.  0.
         14    1    1    2    0    0 -0.12091332319E-01 -0.15393150067E-01 -0.12868070727E-01  0.23425128185E-01  0.00000000000E+00 0. -1.
     999901    1    3    3    0    0  0.64594422652E-01  0.10174786008E+00 -0.66036435070E-01  0.89066597399E+00  0.88000000000E+00 0. -1.
        -11    1    4    4    0    0  0.12272580204E-02 -0.79079372950E-02  0.56828541363E-02  0.98284071265E-02  0.51100000000E-03 0. -1.
         11    1    4    4    0    0 -0.53730348353E-01 -0.78446772722E-01  0.73221651660E-01  0.12001049070E+00  0.51100000000E-03 0.  1.
</event>
<event>
 8    1  0.1161093E+005  0.1043930E+01  0.7957747E-01            NaN
         13   -1    0    0    0    0  0.00000000000E+00  0.00000000000E+00  0.74505805969E-08  0.10566000000E+00  0.10566000000E+00 0.  1.
     999900   -1    0    0    0    0 -0.00000000000E+00 -0.00000000000E+00 -0.74505805969E-08  0.93827000000E+00  0.93827000000E+00 0. -1.
     999902    2    1    2    0    0  0.20353008969E-01 -0.19009965902E-01 -0.17286948154E-02  0.10160263772E+01  0.10156431396E+01 0.  0.
     999903    2    3    3    0    0  0.18034850658E-01 -0.12622172886E+00  0.10886978906E-01  0.12942675441E+00  0.19379829006E-01 0.  0.
         14    1    1    2    0    0 -0.20353008969E-01  0.19009965902E-01  0.17286948154E-02  0.27903622766E-01  0.00000000000E+00 0. -1.
     999901    1    3    3    0    0  0.23181583107E-02  0.10721176296E+00 -0.12615673721E-01  0.88659962283E+00  0.88000000000E+00 0. -1.
        -11    1    4    4    0    0  0.20480855323E-02 -0.79788908313E-01  0.83178882917E-02  0.80249068099E-01  0.51100000000E-03 0. -1.
         11    1    4    4    0    0  0.15986765126E-01 -0.46432820545E-01  0.25690906144E-02  0.49177686308E-01  0.51100000000E-03 0.  1.
</event>
<event>
 8    1  0.1161093E+005  0.1043930E+01  0.7957747E-01            NaN
         13   -1    0    0    0    0  0.00000000000E+00  0.00000000000E+00  0.74505805969E-08  0.10566000000E+00  0.10566000000E+00 0. -1.
     999900   -1    0    0    0    0 -0.00000000000E+00 -0.00000000000E+00 -0.74505805969E-08  0.93827000000E+00  0.93827000000E+00 0. -1.
     999902    2    1    2    0    0  0.15103692391E-01 -0.98839924986E-02 -0.15462784596E-01  0.10201621112E+01  0.10198851997E+01 0.  0.
     999903    2    3    3    0    0 -0.69778378308E-01  0.10589898644E+00  0.18492220024E-02  0.12836035646E+00  0.19731803797E-01 0.  0.
         14    1    1    2    0    0 -0.15103692391E-01  0.98839924986E-02  0.15462784596E-01  0.23767888821E-01  0.00000000000E+00 0. -1.
     999901    1    3    3    0    0  0.84882070699E-01 -0.11578297894E+00 -0.17312006599E-01  0.89180175471E+00  0.88000000000E+00 0. -1.
        -11    1    4    4    0    0 -0.19430483026E-01  0.37291718847E-01 -0.76075230972E-02  0.42735833839E-01  0.51100000000E-03 0. -1.
         11    1    4    4    0    0 -0.50347895282E-01  0.68607267594E-01  0.94567450996E-02  0.85624522626E-01  0.51100000000E-03 0.  1.
</event>
<event>
 8    1  0.1161093E+005  0.1043930E+01  0.7957747E-01            NaN
         13   -1    0    0    0    0  0.00000000000E+00  0.00000000000E+00  0.74505805969E-08  0.10566000000E+00  0.10566000000E+00 0.  1.
     999900   -1    0    0    0    0 -0.00000000000E+00 -0.00000000000E+00 -0.74505805969E-08  0.93827000000E+00  0.93827000000E+00 0.  1.
     999902    2    1    2    0    0  0.14246837824E-01 -0.15738483851E-01 -0.94357746429E-02  0.10206984244E+01  0.10204340094E+01 0.  0.
     999903    2    3    3    0    0  0.73590232192E-01 -0.56880436507E-02  0.10609428777E+00  0.13110871834E+00  0.22036833106E-01 0.  0.
         14    1    1    2    0    0 -0.14246837824E-01  0.15738483851E-01  0.94357746429E-02  0.23231575603E-01  0.00000000000E+00 0.  1.
     999901    1    3    3    0    0 -0.59343394368E-01 -0.10050440200E-01 -0.11553006241E+00  0.88958970606E+00  0.88000000000E+00 0.  1.
        -11    1    4    4    0    0  0.71202679777E-01 -0.45689397422E-02  0.90297241999E-01  0.11508496796E+00  0.51100000000E-03 0. -1.
         11    1    4    4    0    0  0.23875524144E-02 -0.11191039085E-02  0.15797045767E-01  0.16023750374E-01  0.51100000000E-03 0.  1.
</event>
<event>
 8    1  0.1161093E+005  0.1043930E+01  0.7957747E-01            NaN
         13   -1    0    0    0    0  0.00000000000E+00  0.00000000000E+00  0.74505805969E-08  0.10566000000E+00  0.10566000000E+00 0. -1.
     999900   -1    0    0    0    0 -0.00000000000E+00 -0.00000000000E+00 -0.74505805969E-08  0.93827000000E+00  0.93827000000E+00 0.  1.
     999902    2    1    2    0    0  0.22556289589E-01 -0.38128991104E-02 -0.72335551466E-02  0.10199373195E+01  0.10196550823E+01 0.  0.
     999903    2    3    3    0    0  0.75991309301E-02 -0.49790255358E-01 -0.11974045071E+00  0.13145803695E+00  0.20164910691E-01 0.  0.
         14    1    1    2    0    0 -0.22556289589E-01  0.38128991104E-02  0.72335551466E-02  0.23992680545E-01  0.00000000000E+00 0.  1.
     999901    1    3    3    0    0  0.14957158659E-01  0.45977356247E-01  0.11250689557E+00  0.88847928250E+00  0.88000000000E+00 0. -1.
        -11    1    4    4    0    0 -0.61852327050E-02 -0.14819289732E-01 -0.27471493116E-01  0.31824715346E-01  0.51100000000E-03 0.  1.
         11    1    4    4    0    0  0.13784363635E-01 -0.34970965626E-01 -0.92268957598E-01  0.99633321609E-01  0.51100000000E-03 0. -1.
</event>
<event>
 8    1  0.1161093E+005  0.1043930E+01  0.7957747E-01            NaN
         13   -1    0    0    0    0  0.00000000000E+00  0.00000000000E+00  0.74505805969E-08  0.10566000000E+00  0.10566000000E+00 0.  1.
     999900   -1    0    0    0    0 -0.00000000000E+00 -0.00000000000E+00 -0.74505805969E-08  0.93827000000E+00  0.93827000000E+00 0.  1.
     999902    2    1    2    0    0 -0.15431580765E-01  0.14087749918E-01 -0.38997633040E-02  0.10226742587E+01  0.10224533402E+01 0.  0.
     999903    2    3    3    0    0 -0.11336306682E+00  0.15218885412E-01 -0.68387510925E-01  0.13489583761E+00  0.20910187999E-01 0.  0.
         14    1    1    2    0    0  0.15431580765E-01 -0.14087749918E-01  0.38997633040E-02  0.21255741259E-01  0.00000000000E+00 0.  1.
     999901    1    3    3    0    0  0.97931486057E-01 -0.11311354939E-02  0.64487747621E-01  0.88777842113E+00  0.88000000000E+00 0.  1.
        -11    1    4    4    0    0 -0.37340548514E-01 -0.43389576820E-02 -0.25702797168E-01  0.45541607573E-01  0.51100000000E-03 0.  1.
         11    1    4    4    0    0 -0.76022518308E-01  0.19557843094E-01 -0.42684713757E-01  0.89354230039E-01  0.51100000000E-03 0. -1.
</event>
<event>
 8    1  0.1161093E+005  0.1043930E+01  0.7957747E-01            NaN
         13   -1    0    0    0    0  0.00000000000E+00  0.00000000000E+00  0.74505805969E-08  0.10566000000E+00  0.10566000000E+00 0.  1.
     999900   -1    0    0    0    0 -0.00000000000E+00 -0.00000000000E+00 -0.74505805969E-08  0.93827000000E+00  0.93827000000E+00 0.  1.
     999902    2    1    2    0    0 -0.38771701238E-02  0.21962313721E-01 -0.88003930288E-02  0.10199545419E+01  0.10196727147E+01 0.  0.
     999903    2    3    3    0    0  0.10967669520E+00  0.37519684055E-01  0.55526647913E-01  0.13019363006E+00  0.20747735261E-01 0.  0.
         14    1    1    2    0    0  0.38771701238E-02 -0.21962313721E-01  0.88003930288E-02  0.23975458069E-01  0.00000000000E+00 0.  1.
     999901    1    3    3    0    0 -0.11355386532E+00 -0.15557370334E-01 -0.64327040942E-01  0.88976091187E+00  0.88000000000E+00 0.  1.
        -11    1    4    4    0    0  0.82377034055E-01  0.23165573787E-01  0.31856399958E-01  0.91311066623E-01  0.51100000000E-03 0.  1.
         11    1    4    4    0    0  0.27299661141E-01  0.14354110268E-01  0.23670247955E-01  0.38882563435E-01  0.51100000000E-03 0. -1.
</event>
<event>
 8    1  0.1161093E+005  0.1043930E+01  0.7957747E-01            NaN
         13   -1    0    0    0    0  0.00000000000E+00  0.00000000000E+00  0.74505805969E-08  0.10566000000E+00  0.10566000000E+00 0. -1.
     999900   -1    0    0    0    0 -0.00000000000E+00 -0.00000000000E+00 -0.74505805969E-08  0.93827000000E+00  0.93827000000E+00 0. -1.
     999902    2    1    2    0    0 -0.46737397066E-02 -0.22688890780E-01 -0.44352303783E-02  0.10203439686E+01  0.10200713276E+01 0.  0.
     999903    2    3    3    0    0  0.20499333738E-02  0.96288206183E-01 -0.83240907533E-01  0.12882218418E+00  0.19760707815E-01 0.  0.
         14    1    1    2    0    0  0.46737397066E-02  0.22688890780E-01  0.44352303783E-02  0.23586031378E-01  0.00000000000E+00 0. -1.
     999901    1    3    3    0    0 -0.67236730805E-02 -0.11897709696E+00  0.78805677155E-01  0.89152178444E+00  0.88000000000E+00 0. -1.
        -11    1    4    4    0    0 -0.13592422911E-02  0.26409105704E-01 -0.34865626458E-01  0.43762557432E-01  0.51100000000E-03 0. -1.
         11    1    4    4    0    0  0.34091756649E-02  0.69879100479E-01 -0.48375281075E-01  0.85059626749E-01  0.51100000000E-03 0.  1.
</event>
<event>
 8    1  0.1161093E+005  0.1043930E+01  0.7957747E-01            NaN
         13   -1    0    0    0    0  0.00000000000E+00  0.00000000000E+00  0.74505805969E-08  0.10566000000E+00  0.10566000000E+00 0. -1.
     999900   -1    0    0    0    0 -0.00000000000E+00 -0.00000000000E+00 -0.74505805969E-08  0.93827000000E+00  0.93827000000E+00 0. -1.
     999902    2    1    2    0    0 -0.17049031313E-01  0.10425459256E-01  0.12608199801E-01  0.10203010692E+01  0.10200274238E+01 0.  0.
     999903    2    3    3    0    0  0.49699219397E-01  0.10333915182E+00 -0.58018935402E-01  0.13008959124E+00  0.20201786421E-01 0.  0.
         14    1    1    2    0    0  0.17049031313E-01 -0.10425459256E-01 -0.12608199801E-01  0.23628930818E-01  0.00000000000E+00 0.  1.
     999901    1    3    3    0    0 -0.66748250709E-01 -0.92913692567E-01  0.70627135202E-01  0.89021147795E+00  0.88000000000E+00 0.  1.
        -11    1    4    4    0    0  0.94107766612E-02  0.41306661768E-01 -0.23704654252E-01  0.48548684616E-01  0.51100000000E-03 0. -1.
         11    1    4    4    0    0  0.40288442735E-01  0.62032490056E-01 -0.34314281150E-01  0.81540906620E-01  0.51100000000E-03 0.  1.
</event>
<event>
 8    1  0.1161093E+005  0.1043930E+01  0.7957747E-01            NaN
         13   -1    0    0    0    0  0.00000000000E+00  0.00000000000E+00  0.74505805969E-08  0.10566000000E+00  0.10566000000E+00 0.  1.
     999900   -1    0    0    0    0 -0.00000000000E+00 -0.00000000000E+00 -0.74505805969E-08  0.93827000000E+00  0.93827000000E+00 0. -1.
     999902    2    1    2    0    0 -0.19897499413E-01  0.43897478884E-02 -0.10718170070E-01  0.10209069781E+01  0.10206473428E+01 0.  0.
     999903    2    3    3    0    0  0.11918781560E+00  0.28187020144E-01 -0.36523722158E-01  0.12929217248E+00  0.19550961413E-01 0.  0.
         14    1    1    2    0    0  0.19897499413E-01 -0.43897478884E-02  0.10718170070E-01  0.23023021936E-01  0.00000000000E+00 0.  1.
     999901    1    3    3    0    0 -0.13908531501E+00 -0.23797272255E-01  0.25805552088E-01  0.89161480558E+00  0.88000000000E+00 0.  1.
        -11    1    4    4    0    0  0.11151442087E+00  0.21098617876E-01 -0.32186749079E-01  0.11796976594E+00  0.51100000000E-03 0. -1.
         11    1    4    4    0    0  0.76733947287E-02  0.70884022680E-02 -0.43369730787E-02  0.11322406540E-01  0.51100000000E-03 0.  1.
</event>
<event>
 8    1  0.1161093E+005  0.1043930E+01  0.7957747E-01            NaN
         13   -1    0    0    0    0  0.00000000000E+00  0.00000000000E+00  0.74505805969E-08  0.10566000000E+00  0.10566000000E+00 0.  1.
     999900   -1    0    0    0    0 -0.00000000000E+00 -0.00000000000E+00 -0.74505805969E-08  0.93827000000E+00  0.93827000000E+00 0.  1.
     999902    2    1    2    0    0  0.13947671972E-01 -0.14891687334E-01 -0.87212096287E-02  0.10217408269E+01  0.10214998571E+01 0.  0.
     999903    2    3    3    0    0  0.46540509898E-01  0.91571298441E-01  0.77854200650E-01  0.13051023829E+00  0.20501804307E-01 0.  0.
         14    1    1    2    0    0 -0.13947671972E-01  0.14891687334E-01  0.87212096287E-02  0.22189173091E-01  0.00000000000E+00 0.  1.
     999901    1    3    3    0    0 -0.32592837926E-01 -0.10646298578E+00 -0.86575410279E-01  0.89123058862E+00  0.88000000000E+00 0.  1.
        -11    1    4    4    0    0  0.19319388859E-01  0.22229458631E-01  0.29558438068E-01  0.41729485965E-01  0.51100000000E-03 0. -1.
         11    1    4    4    0    0  0.27221121038E-01  0.69341839811E-01  0.48295762582E-01  0.88780752325E-01  0.51100000000E-03 0.  1.
</event>
<event>
 8    1  0.1161093E+005  0.1043930E+01  0.7957747E-01            NaN
         13   -1    0    0    0    0  0.00000000000E+00  0.00000000000E+00  0.74505805969E-08  0.10566000000E+00  0.10566000000E+00 0. -1.
     999900   -1    0    0    0    0 -0.00000000000E+00 -0.00000000000E+00 -0.74505805969E-08  0.93827000000E+00  0.93827000000E+00 0. -1.
     999902    2    1    2    0    0  0.16311149413E-01  0.77822336596E-02  0.16731997010E-01  0.10193012266E+01  0.10190036379E+01 0.  0.
     999903    2    3    3    0    0  0.24257722531E-01 -0.29477025260E-01  0.12482358060E+00  0.13186943155E+00  0.18742694128E-01 0.  0.
         14    1    1    2    0    0 -0.16311149413E-01 -0.77822336596E-02 -0.16731997010E-01  0.24628773414E-01  0.00000000000E+00 0.  1.
     999901    1    3    3    0    0 -0.79465731178E-02  0.37259258919E-01 -0.10809158359E+00  0.88743179504E+00  0.88000000000E+00 0. -1.
        -11    1    4    4    0    0  0.68121536352E-02 -0.23167161855E-02  0.84972384399E-02  0.11146155980E-01  0.51100000000E-03 0. -1.
         11    1    4    4    0    0  0.17445568896E-01 -0.27160309074E-01  0.11632634216E+00  0.12072327557E+00  0.51100000000E-03 0.  1.
</event>
<event>
 8    1  0.1161093E+005  0.1043930E+01  0.7957747E-01            NaN
         13   -1    0    0    0    0  0.00000000000E+00  0.00000000000E+00  0.74505805969E-08  0.10566000000E+00  0.10566000000E+00 0.  1.
     999900   -1    0    0    0    0 -0.00000000000E+00 -0.00000000000E+00 -0.74505805969E-08  0.93827000000E+00  0.93827000000E+00 0. -1.
     999902    2    1    2    0    0 -0.41135289453E-02 -0.19749667544E-01  0.12182165228E-01  0.10203635909E+01  0.10200914086E+01 0.  0.
     999903    2    3    3    0    0  0.57355174367E-02  0.29916097281E-01  0.12641388589E+00  0.13153707356E+00  0.19840920810E-01 0.  0.
         14    1    1    2    0    0  0.41135289453E-02  0.19749667544E-01 -0.12182165228E-01  0.23566409105E-01  0.00000000000E+00 0. -1.
     999901    1    3    3    0    0 -0.98490463821E-02 -0.49665764825E-01 -0.11423172066E+00  0.88882651733E+00  0.88000000000E+00 0. -1.
        -11    1    4    4    0    0  0.67497652500E-02  0.18823958936E-02  0.41975336417E-01  0.42559284927E-01  0.51100000000E-03 0.  1.
         11    1    4    4    0    0 -0.10142478133E-02  0.28033701388E-01  0.84438549473E-01  0.88977788634E-01  0.51100000000E-03 0. -1.
</event>
<event>
 8    1  0.1161093E+005  0.1043930E+01  0.7957747E-01            NaN
         13   -1    0    0    0    0  0.00000000000E+00  0.00000000000E+00  0.74505805969E-08  0.10566000000E+00  0.10566000000E+00 0. -1.
     999900   -1    0    0    0    0 -0.00000000000E+00 -0.00000000000E+00 -0.74505805969E-08  0.93827000000E+00  0.93827000000E+00 0. -1.
     999902    2    1    2    0    0  0.21228622476E-01  0.60286265105E-02  0.85122498922E-02  0.10202771535E+01  0.10200029474E+01 0.  0.
     999903    2    3    3    0    0 -0.96395465694E-02  0.67881776733E-02 -0.12723041191E+00  0.12933411883E+00  0.20018400668E-01 0.  0.
         14    1    1    2    0    0 -0.21228622476E-01 -0.60286265105E-02 -0.85122498922E-02  0.23652846511E-01  0.00000000000E+00 0. -1.
     999901    1    3    3    0    0  0.30868169045E-01 -0.75955116280E-03  0.13574266180E+00  0.89094303466E+00  0.88000000000E+00 0.  1.
        -11    1    4    4    0    0 -0.92669526995E-02  0.11915855676E-01 -0.58796829303E-01  0.60705784616E-01  0.51100000000E-03 0.  1.
         11    1    4    4    0    0 -0.37259386989E-03 -0.51276780028E-02 -0.68433582603E-01  0.68628334213E-01  0.51100000000E-03 0. -1.
</event>
<event>
 8    1  0.1161093E+005  0.1043930E+01  0.7957747E-01            NaN
         13   -1    0    0    0    0  0.00000000000E+00  0.00000000000E+00  0.74505805969E-08  0.10566000000E+00  0.10566000000E+00 0. -1.
     999900   -1    0    0    0    0 -0.00000000000E+00 -0.00000000000E+00 -0.74505805969E-08  0.93827000000E+00  0.93827000000E+00 0. -1.
     999902    2    1    2    0    0  0.74500778366E-02 -0.49133143526E-02  0.22177918543E-01  0.10200238420E+01  0.10197436609E+01 0.  0.
     999903    2    3    3    0    0  0.80490514933E-02  0.12785743119E+00 -0.46019368829E-02  0.12966122473E+00  0.19456244095E-01 0.  0.
         14    1    1    2    0    0 -0.74500778366E-02  0.49133143526E-02 -0.22177918543E-01  0.23906157964E-01  0.00000000000E+00 0.  1.
     999901    1    3    3    0    0 -0.59897365676E-03 -0.13277074554E+00  0.26779855426E-01  0.89036261731E+00  0.88000000000E+00 0.  1.
        -11    1    4    4    0    0 -0.52088475546E-02  0.56056452809E-01 -0.60966840937E-02  0.56629397598E-01  0.51100000000E-03 0. -1.
         11    1    4    4    0    0  0.13257899048E-01  0.71800978382E-01  0.14947472108E-02  0.73031827131E-01  0.51100000000E-03 0.  1.
</event>
<event>
 8    1  0.1161093E+005  0.1043930E+01  0.7957747E-01            NaN
         13   -1    0    0    0    0  0.00000000000E+00  0.00000000000E+00  0.74505805969E-08  0.10566000000E+00  0.10566000000E+00 0. -1.
     999900   -1    0    0    0    0 -0.00000000000E+00 -0.00000000000E+00 -0.74505805969E-08  0.93827000000E+00  0.93827000000E+00 0. -1.
     999902    2    1    2    0    0  0.14810494965E-01  0.45454945441E-02 -0.18516388975E-01  0.10197873211E+01  0.10195015014E+01 0.  0.
     999903    2    3    3    0    0  0.12495813892E+00  0.24335790483E-01  0.26393182023E-01  0.13156379699E+00  0.20141138046E-01 0.  0.
         14    1    1    2    0    0 -0.14810494965E-01 -0.45454945441E-02  0.18516388975E-01  0.24142678858E-01  0.00000000000E+00 0. -1.
     999901    1    3    3    0    0 -0.11014764395E+00 -0.19790295939E-01 -0.44909570999E-01  0.88822352415E+00  0.88000000000E+00 0. -1.
        -11    1    4    4    0    0  0.57521760682E-01  0.99186640689E-02  0.22275773631E-01  0.62478828900E-01  0.51100000000E-03 0. -1.
         11    1    4    4    0    0  0.67436378237E-01  0.14417126414E-01  0.41174083926E-02  0.69084968095E-01  0.51100000000E-03 0.  1.
</event>
<event>
 8    1  0.1161093E+005  0.1043930E+01  0.7957747E-01            NaN
         13   -1    0    0    0    0  0.00000000000E+00  0.00000000000E+00  0.74505805969E-08  0.10566000000E+00  0.10566000000E+00 0. -1.
     999900   -1    0    0    0    0 -0.00000000000E+00 -0.00000000000E+00 -0.74505805969E-08  0.93827000000E+00  0.93827000000E+00 0. -1.
     999902    2    1    2    0    0 -0.14811699570E-01  0.16116780691E-01  0.12655451142E-01  0.10186456668E+01  0.10183318206E+01 0.  0.
     999903    2    3    3    0    0 -0.92117550376E-01 -0.36198284297E-01  0.82979290313E-01  0.13091907430E+00  0.21407534237E-01 0.  0.
         14    1    1    2    0    0  0.14811699570E-01 -0.16116780691E-01 -0.12655451142E-01  0.25284333244E-01  0.00000000000E+00 0.  1.
     999901    1    3    3    0    0  0.77305850807E-01  0.52315064987E-01 -0.70323839171E-01  0.88772659245E+00  0.88000000000E+00 0. -1.
        -11    1    4    4    0    0 -0.68747232381E-01 -0.16518924907E-01  0.57715525094E-01  0.91271023868E-01  0.51100000000E-03 0.  1.
         11    1    4    4    0    0 -0.23370317995E-01 -0.19679359390E-01  0.25263765219E-01  0.39648050434E-01  0.51100000000E-03 0. -1.
</event>
<event>
 8    1  0.1161093E+005  0.1043930E+01  0.7957747E-01            NaN
         13   -1    0    0    0    0  0.00000000000E+00  0.00000000000E+00  0.74505805969E-08  0.10566000000E+00  0.10566000000E+00 0. -1.
     999900   -1    0    0    0    0 -0.00000000000E+00 -0.00000000000E+00 -0.74505805969E-08  0.93827000000E+00  0.93827000000E+00 0.  1.
     999902    2    1    2    0    0 -0.22383345015E-04 -0.25377118814E-01 -0.10152196304E-03  0.10185526682E+01  0.10182364799E+01 0.  0.
     999903    2    3    3    0    0  0.54688702565E-01 -0.96138635772E-01  0.68038600114E-01  0.13139790641E+00  0.20066569913E-01 0.  0.
         14    1    1    2    0    0  0.22383345015E-04  0.25377118814E-01  0.10152196304E-03  0.25377331755E-01  0.00000000000E+00 0.  1.
     999901    1    3    3    0    0 -0.54711085910E-01  0.70761516958E-01 -0.68140122077E-01  0.88715476183E+00  0.88000000000E+00 0.  1.
        -11    1    4    4    0    0  0.25960083537E-01 -0.29894117422E-01  0.17677684133E-01  0.43362954592E-01  0.51100000000E-03 0.  1.
         11    1    4    4    0    0  0.28728619028E-01 -0.66244518350E-01  0.50360915981E-01  0.88034951821E-01  0.51100000000E-03 0. -1.
</event>
<event>
 8    1  0.1161093E+005  0.1043930E+01  0.7957747E-01            NaN
         13   -1    0    0    0    0  0.00000000000E+00  0.00000000000E+00  0.74505805969E-08  0.10566000000E+00  0.10566000000E+00 0.  1.
     999900   -1    0    0    0    0 -0.00000000000E+00 -0.00000000000E+00 -0.74505805969E-08  0.93827000000E+00  0.93827000000E+00 0.  1.
     999902    2    1    2    0    0  0.10639205611E-01  0.12038931867E-01 -0.20090142412E-01  0.10182056458E+01  0.10178806388E+01 0.  0.
     999903    2    3    3    0    0  0.80914115869E-01  0.79975718099E-01  0.58177146251E-01  0.12934134885E+00  0.20034833251E-01 0.  0.
         14    1    1    2    0    0 -0.10639205611E-01 -0.12038931867E-01  0.20090142412E-01  0.25724354193E-01  0.00000000000E+00 0.  1.
     999901    1    3    3    0    0 -0.70274910258E-01 -0.67936786231E-01 -0.78267288663E-01  0.88886429696E+00  0.88000000000E+00 0.  1.
        -11    1    4    4    0    0  0.51833047773E-01  0.60808451739E-01  0.33444205727E-01  0.86620486387E-01  0.51100000000E-03 0.  1.
         11    1    4    4    0    0  0.29081068096E-01  0.19167266360E-01  0.24732940524E-01  0.42720862460E-01  0.51100000000E-03 0. -1.
</event>
<event>
 8    1  0.1161093E+005  0.1043930E+01  0.7957747E-01            NaN
         13   -1    0    0    0    0  0.00000000000E+00  0.00000000000E+00  0.74505805969E-08  0.10566000000E+00  0.10566000000E+00 0.  1.
     999900   -1    0    0    0    0 -0.00000000000E+00 -0.00000000000E+00 -0.74505805969E-08  0.93827000000E+00  0.93827000000E+00 0. -1.
     999902    2    1    2    0    0 -0.58950670056E-02 -0.21446910958E-01  0.57223541949E-02  0.10209633472E+01  0.10207049961E+01 0.  0.
     999903    2    3    3    0    0  0.49825770749E-01  0.56496922871E-01 -0.10334053032E+00  0.12906942648E+00  0.17468311896E-01 0.  0.
         14    1    1    2    0    0  0.58950670056E-02  0.21446910958E-01 -0.57223541949E-02  0.22966652829E-01  0.00000000000E+00 0. -1.
     999901    1    3    3    0    0 -0.55720837754E-01 -0.77943833829E-01  0.10906288451E+00  0.89189392069E+00  0.88000000000E+00 0.  1.
        -11    1    4    4    0    0  0.21619127766E-01  0.29909017070E-01 -0.37181529563E-01  0.52389533774E-01  0.51100000000E-03 0.  1.
         11    1    4    4    0    0  0.28206642982E-01  0.26587905801E-01 -0.66159000753E-01  0.76679892703E-01  0.51100000000E-03 0. -1.
</event>
<event>
 8    1  0.1161093E+005  0.1043930E+01  0.7957747E-01            NaN
         13   -1    0    0    0    0  0.00000000000E+00  0.00000000000E+00  0.74505805969E-08  0.10566000000E+00  0.10566000000E+00 0.  1.
     999900   -1    0    0    0    0 -0.00000000000E+00 -0.00000000000E+00 -0.74505805969E-08  0.93827000000E+00  0.93827000000E+00 0. -1.
     999902    2    1    2    0    0  0.78895969512E-02  0.16284733765E-01 -0.14142935901E-01  0.10209634824E+01  0.10207051345E+01 0.  0.
     999903    2    3    3    0    0 -0.96705949478E-01 -0.57870291964E-01 -0.60262540086E-01  0.13047697828E+00  0.26299368165E-01 0.  0.
         14    1    1    2    0    0 -0.78895969512E-02 -0.16284733765E-01  0.14142935901E-01  0.22966517580E-01  0.00000000000E+00 0.  1.
     999901    1    3    3    0    0  0.10459554643E+00  0.74155025729E-01  0.46119604185E-01  0.89048650414E+00  0.88000000000E+00 0. -1.
        -11    1    4    4    0    0 -0.11539383976E-01 -0.10727436795E-01 -0.19156999729E-01  0.24809011313E-01  0.51100000000E-03 0. -1.
         11    1    4    4    0    0 -0.85166565502E-01 -0.47142855168E-01 -0.41105540358E-01  0.10566796696E+00  0.51100000000E-03 0.  1.
</event>
<event>
 8    1  0.1161093E+005  0.1043930E+01  0.7957747E-01            NaN
         13   -1    0    0    0    0  0.00000000000E+00  0.00000000000E+00  0.74505805969E-08  0.10566000000E+00  0.10566000000E+00 0.  1.
     999900   -1    0    0    0    0 -0.00000000000E+00 -0.00000000000E+00 -0.74505805969E-08  0.93827000000E+00  0.93827000000E+00 0.  1.
     999902    2    1    2    0    0 -0.57048843818E-02  0.21610473649E-01  0.57429783317E-02  0.10208531701E+01  0.10205923059E+01 0.  0.
     999903    2    3    3    0    0 -0.85176733252E-01 -0.26262527565E-01 -0.93138265243E-01  0.13046836604E+00  0.20061451668E-01 0.  0.
         14    1    1    2    0    0  0.57048843818E-02 -0.21610473649E-01 -0.57429783317E-02  0.23076829879E-01  0.00000000000E+00 0.  1.
     999901    1    3    3    0    0  0.79471848871E-01  0.47873001214E-01  0.98881243574E-01  0.89038480408E+00  0.88000000000E+00 0. -1.
        -11    1    4    4    0    0 -0.32099809169E-01 -0.18880077730E-01 -0.31388740386E-01  0.48706973091E-01  0.51100000000E-03 0. -1.
         11    1    4    4    0    0 -0.53076924084E-01 -0.73824498355E-02 -0.61749524857E-01  0.81761392948E-01  0.51100000000E-03 0.  1.
</event>
<event>
 8    1  0.1161093E+005  0.1043930E+01  0.7957747E-01            NaN
         13   -1    0    0    0    0  0.00000000000E+00  0.00000000000E+00  0.74505805969E-08  0.10566000000E+00  0.10566000000E+00 0. -1.
     999900   -1    0    0    0    0 -0.00000000000E+00 -0.00000000000E+00 -0.74505805969E-08  0.93827000000E+00  0.93827000000E+00 0. -1.
     999902    2    1    2    0    0  0.12303938024E-01 -0.14475353751E-01 -0.17078071555E-01  0.10183842903E+01  0.10180638386E+01 0.  0.
     999903    2    3    3    0    0  0.75262588049E-01 -0.47553002228E-01  0.92054283566E-01  0.12879573742E+00  0.13733378109E-01 0.  0.
         14    1    1    2    0    0 -0.12303938024E-01  0.14475353751E-01  0.17078071555E-01  0.25545709721E-01  0.00000000000E+00 0.  1.
     999901    1    3    3    0    0 -0.62958650025E-01  0.33077648477E-01 -0.10913235512E+00  0.88958855286E+00  0.88000000000E+00 0. -1.
        -11    1    4    4    0    0  0.42087210171E-01 -0.19154271178E-01  0.43470848333E-01  0.63468063939E-01  0.51100000000E-03 0.  1.
         11    1    4    4    0    0  0.33175377878E-01 -0.28398731049E-01  0.48583435233E-01  0.65327673482E-01  0.51100000000E-03 0. -1.
</event>
<event>
 8    1  0.1161093E+005  0.1043930E+01  0.7957747E-01            NaN
         13   -1    0    0    0    0  0.00000000000E+00  0.00000000000E+00  0.74505805969E-08  0.10566000000E+00  0.10566000000E+00 0.  1.
     999900   -1    0    0    0    0 -0.00000000000E+00 -0.00000000000E+00 -0.74505805969E-08  0.93827000000E+00  0.93827000000E+00 0. -1.
     999902    2    1    2    0    0  0.31871284951E-02  0.13092961536E-01 -0.20026339653E-01  0.10197921105E+01  0.10195064055E+01 0.  0.
     999903    2    3    3    0    0 -0.12140113021E+00  0.30884492218E-01 -0.31935344027E-01  0.13075859192E+00  0.19643240233E-01 0.  0.
         14    1    1    2    0    0 -0.31871284951E-02 -0.13092961536E-01  0.20026339653E-01  0.24137889505E-01  0.00000000000E+00 0.  1.
     999901    1    3    3    0    0  0.12458825870E+00 -0.17791530682E-01  0.11909004374E-01  0.88903351858E+00  0.88000000000E+00 0.  1.
        -11    1    4    4    0    0 -0.25105851573E-01  0.93061360376E-02  0.78311005575E-03  0.26791460086E-01  0.51100000000E-03 0. -1.
         11    1    4    4    0    0 -0.96295278634E-01  0.21578356181E-01 -0.32718454083E-01  0.10396713183E+00  0.51100000000E-03 0.  1.
</event>
<event>
 8    1  0.1161093E+005  0.1043930E+01  0.7957747E-01            NaN
         13   -1    0    0    0    0  0.00000000000E+00  0.00000000000E+00  0.74505805969E-08  0.10566000000E+00  0.10566000000E+00 0. -1.
     999900   -1    0    0    0    0 -0.00000000000E+00 -0.00000000000E+00 -0.74505805969E-08  0.93827000000E+00  0.93827000000E+00 0. -1.
     999902    2    1    2    0    0  0.13973146481E-01  0.12466458799E-01  0.10164879281E-01  0.10226230484E+01  0.10224010528E+01 0.  0.
     999903    2    3    3    0    0 -0.93656088393E-01 -0.81671547255E-01 -0.24367353336E-01  0.13041315631E+00  0.31178821414E-01 0.  0.
         14    1    1    2    0    0 -0.13973146481E-01 -0.12466458799E-01 -0.10164879281E-01  0.21306951644E-01  0.00000000000E+00 0.  1.
     999901    1    3    3    0    0  0.10762923487E+00  0.94138006055E-01  0.34532232617E-01  0.89220989205E+00  0.88000000000E+00 0. -1.
        -11    1    4    4    0    0 -0.54776897929E-01 -0.66545211521E-01 -0.12961579429E-01  0.87160985455E-01  0.51100000000E-03 0.  1.
         11    1    4    4    0    0 -0.38879190464E-01 -0.15126335734E-01 -0.11405773907E-01  0.43252170851E-01  0.51100000000E-03 0. -1.
</event>
<event>
 8    1  0.1161093E+005  0.1043930E+01  0.7957747E-01            NaN
         13   -1    0    0    0    0  0.00000000000E+00  0.00000000000E+00  0.74505805969E-08  0.10566000000E+00  0.10566000000E+00 0. -1.
     999900   -1    0    0    0    0 -0.00000000000E+00 -0.00000000000E+00 -0.74505805969E-08  0.93827000000E+00  0.93827000000E+00 0. -1.
     999902    2    1    2    0    0  0.73501250617E-02  0.22015082113E-01 -0.39696963866E-02  0.10203833088E+01  0.10201115871E+01 0.  0.
     999903    2    3    3    0    0  0.19638328023E-01 -0.89355248525E-01 -0.89469069310E-01  0.12916813090E+00  0.17597366591E-01 0.  0.
         14    1    1    2    0    0 -0.73501250617E-02 -0.22015082113E-01  0.39696963866E-02  0.23546691238E-01  0.00000000000E+00 0. -1.
     999901    1    3    3    0    0 -0.12288202962E-01  0.11137033064E+00  0.85499372923E-01  0.89121517786E+00  0.88000000000E+00 0.  1.
        -11    1    4    4    0    0  0.65780482594E-02 -0.44320814705E-01 -0.55146948050E-01  0.71056683959E-01  0.51100000000E-03 0.  1.
         11    1    4    4    0    0  0.13060279764E-01 -0.45034433819E-01 -0.34322121260E-01  0.58111446942E-01  0.51100000000E-03 0. -1.
</event>
<event>
 8    1  0.1161093E+005  0.1043930E+01  0.7957747E-01            NaN
         13   -1    0    0    0    0  0.00000000000E+00  0.00000000000E+00  0.74505805969E-08  0.10566000000E+00  0.10566000000E+00 0. -1.
     999900   -1    0    0    0    0 -0.00000000000E+00 -0.00000000000E+00 -0.74505805969E-08  0.93827000000E+00  0.93827000000E+00 0. -1.
     999902    2    1    2    0    0  0.42266818224E-02  0.20666604028E-01  0.96133957662E-02  0.10207483103E+01  0.10204850426E+01 0.  0.
     999903    2    3    3    0    0  0.12435814995E-01  0.12772005159E+00 -0.30342712994E-01  0.13332263949E+00  0.19677014397E-01 0.  0.
         14    1    1    2    0    0 -0.42266818224E-02 -0.20666604028E-01 -0.96133957662E-02  0.23181689745E-01  0.00000000000E+00 0. -1.
     999901    1    3    3    0    0 -0.82091331722E-02 -0.10705344757E+00  0.39956108760E-01  0.88742567076E+00  0.88000000000E+00 0.  1.
        -11    1    4    4    0    0  0.51171147477E-02  0.21239689438E-01  0.16016075835E-02  0.21911995314E-01  0.51100000000E-03 0. -1.
         11    1    4    4    0    0  0.73187002469E-02  0.10648036215E+00 -0.31944320577E-01  0.11141064418E+00  0.51100000000E-03 0.  1.
</event>
<event>
 8    1  0.1161093E+005  0.1043930E+01  0.7957747E-01            NaN
         13   -1    0    0    0    0  0.00000000000E+00  0.00000000000E+00  0.74505805969E-08  0.10566000000E+00  0.10566000000E+00 0. -1.
     999900   -1    0    0    0    0 -0.00000000000E+00 -0.00000000000E+00 -0.74505805969E-08  0.93827000000E+00  0.93827000000E+00 0.  1.
     999902    2    1    2    0    0  0.15738088240E-02  0.23607065727E-01  0.15419428855E-01  0.10156894403E+01  0.10152967595E+01 0.  0.
     999903    2    3    3    0    0  0.19318345517E-01 -0.44030060738E-01  0.11564483435E+00  0.12724429209E+00  0.22484159671E-01 0.  0.
         14    1    1    2    0    0 -0.15738088240E-02 -0.23607065727E-01 -0.15419428855E-01  0.28240559709E-01  0.00000000000E+00 0.  1.
     999901    1    3    3    0    0 -0.17744536693E-01  0.67637126465E-01 -0.10022540549E+00  0.88844514820E+00  0.88000000000E+00 0.  1.
        -11    1    4    4    0    0 -0.47556098952E-02 -0.34816956511E-02  0.13379200965E-01  0.14628812992E-01  0.51100000000E-03 0.  1.
         11    1    4    4    0    0  0.24073955412E-01 -0.40548365087E-01  0.10226563338E+00  0.11261547910E+00  0.51100000000E-03 0. -1.
</event>
<event>
 8    1  0.1161093E+005  0.1043930E+01  0.7957747E-01            NaN
         13   -1    0    0    0    0  0.00000000000E+00  0.00000000000E+00  0.74505805969E-08  0.10566000000E+00  0.10566000000E+00 0. -1.
     999900   -1    0    0    0    0 -0.00000000000E+00 -0.00000000000E+00 -0.74505805969E-08  0.93827000000E+00  0.93827000000E+00 0.  1.
     999902    2    1    2    0    0  0.11743985760E-01 -0.46365963542E-02 -0.20228146798E-01  0.10200847248E+01  0.10198059858E+01 0.  0.
     999903    2    3    3    0    0  0.10451428331E+00  0.19715218281E-01  0.71962578608E-01  0.13008558499E+00  0.20777907827E-01 0.  0.
         14    1    1    2    0    0 -0.11743985760E-01  0.46365963542E-02  0.20228146798E-01  0.23845275216E-01  0.00000000000E+00 0. -1.
     999901    1    3    3    0    0 -0.92770297553E-01 -0.24351814635E-01 -0.92190725405E-01  0.88999913979E+00  0.88000000000E+00 0.  1.
        -11    1    4    4    0    0  0.78882884687E-01  0.23386291937E-01  0.57972870038E-01  0.10065059825E+00  0.51100000000E-03 0. -1.
         11    1    4    4    0    0  0.25631398627E-01 -0.36710736554E-02  0.13989708570E-01  0.29434986737E-01  0.51100000000E-03 0.  1.
</event>
<event>
 8    1  0.1161093E+005  0.1043930E+01  0.7957747E-01            NaN
         13   -1    0    0    0    0  0.00000000000E+00  0.00000000000E+00  0.74505805969E-08  0.10566000000E+00  0.10566000000E+00 0. -1.
     999900   -1    0    0    0    0 -0.00000000000E+00 -0.00000000000E+00 -0.74505805969E-08  0.93827000000E+00  0.93827000000E+00 0. -1.
     999902    2    1    2    0    0 -0.22930300938E-02 -0.17801024171E-01  0.16017392815E-01  0.10198739962E+01  0.10195902494E+01 0.  0.
     999903    2    3    3    0    0  0.46662397850E-01  0.21113723438E-02  0.12179328154E+00  0.13196539945E+00  0.19985643779E-01 0.  0.
         14    1    1    2    0    0  0.22930300938E-02  0.17801024171E-01 -0.16017392815E-01  0.24056003848E-01  0.00000000000E+00 0. -1.
     999901    1    3    3    0    0 -0.48955427944E-01 -0.19912396515E-01 -0.10577588873E+00  0.88790859670E+00  0.88000000000E+00 0. -1.
        -11    1    4    4    0    0  0.45956944675E-01  0.51203893645E-02  0.10289345931E+00  0.11280773130E+00  0.51100000000E-03 0.  1.
         11    1    4    4    0    0  0.70545317510E-03 -0.30090170207E-02  0.18899822235E-01  0.19157668155E-01  0.51100000000E-03 0. -1.
</event>
<event>
 8    1  0.1161093E+005  0.1043930E+01  0.7957747E-01            NaN
         13   -1    0    0    0    0  0.00000000000E+00  0.00000000000E+00  0.74505805969E-08  0.10566000000E+00  0.10566000000E+00 0. -1.
     999900   -1    0    0    0    0 -0.00000000000E+00 -0.00000000000E+00 -0.74505805969E-08  0.93827000000E+00  0.93827000000E+00 0. -1.
     999902    2    1    2    0    0 -0.49739586761E-02  0.46297930771E-02 -0.23226624899E-01  0.10197297654E+01  0.10194425649E+01 0.  0.
     999903    2    3    3    0    0 -0.22452536073E-01 -0.32444069507E-01  0.11911392428E+00  0.12735047169E+00  0.21755037627E-01 0.  0.
         14    1    1    2    0    0  0.49739586761E-02 -0.46297930771E-02  0.23226624899E-01  0.24200234566E-01  0.00000000000E+00 0. -1.
     999901    1    3    3    0    0  0.17478577397E-01  0.37073862585E-01 -0.14234054918E+00  0.89237929374E+00  0.88000000000E+00 0. -1.
        -11    1    4    4    0    0 -0.43046441444E-02 -0.50659506174E-02  0.54090103783E-01  0.54499488669E-01  0.51100000000E-03 0.  1.
         11    1    4    4    0    0 -0.18147891928E-01 -0.27378118890E-01  0.65023820493E-01  0.72850983026E-01  0.51100000000E-03 0. -1.
</event>
<event>
 8    1  0.1161093E+005  0.1043930E+01  0.7957747E-01            NaN
         13   -1    0    0    0    0  0.00000000000E+00  0.00000000000E+00  0.74505805969E-08  0.10566000000E+00  0.10566000000E+00 0.  1.
     999900   -1    0    0    0    0 -0.00000000000E+00 -0.00000000000E+00 -0.74505805969E-08  0.93827000000E+00  0.93827000000E+00 0.  1.
     999902    2    1    2    0    0  0.19272638356E-01  0.11877584318E-01 -0.59909464373E-02  0.10205119933E+01  0.10202432678E+01 0.  0.
     999903    2    3    3    0    0  0.28809045159E-01 -0.89953788789E-01  0.86709733986E-01  0.12975165081E+00  0.19881341009E-01 0.  0.
         14    1    1    2    0    0 -0.19272638356E-01 -0.11877584318E-01  0.59909464373E-02  0.23418006696E-01  0.00000000000E+00 0.  1.
     999901    1    3    3    0    0 -0.95364068030E-02  0.10183137311E+00 -0.92700680423E-01  0.89076034249E+00  0.88000000000E+00 0.  1.
        -11    1    4    4    0    0  0.12308260432E-01 -0.55893775283E-01  0.62865175337E-01  0.85017049945E-01  0.51100000000E-03 0. -1.
         11    1    4    4    0    0  0.16500784726E-01 -0.34060013506E-01  0.23844558649E-01  0.44734600868E-01  0.51100000000E-03 0.  1.
</event>
<event>
 8    1  0.1161093E+005  0.1043930E+01  0.7957747E-01            NaN
         13   -1    0    0    0    0  0.00000000000E+00  0.00000000000E+00  0.74505805969E-08  0.10566000000E+00  0.10566000000E+00 0.  1.
     999900   -1    0    0    0    0 -0.00000000000E+00 -0.00000000000E+00 -0.74505805969E-08  0.93827000000E+00  0.93827000000E+00 0. -1.
     999902    2    1    2    0    0  0.17191511698E-01  0.82368473769E-03  0.16630878948E-01  0.10199964949E+01  0.10197156648E+01 0.  0.
     999903    2    3    3    0    0  0.87952027702E-03  0.86663748511E-01 -0.93063843687E-01  0.12889182666E+00  0.20996311966E-01 0.  0.
         14    1    1    2    0    0 -0.17191511698E-01 -0.82368473769E-03 -0.16630878948E-01  0.23933505084E-01  0.00000000000E+00 0. -1.
     999901    1    3    3    0    0  0.16311991421E-01 -0.85840063774E-01  0.10969472264E+00  0.89110466826E+00  0.88000000000E+00 0.  1.
        -11    1    4    4    0    0  0.45656016137E-02  0.28182375895E-01 -0.44055163508E-01  0.52499615064E-01  0.51100000000E-03 0.  1.
         11    1    4    4    0    0 -0.36860813367E-02  0.58481372616E-01 -0.49008680179E-01  0.76392211596E-01  0.51100000000E-03 0. -1.
</event>
<event>
 8    1  0.1161093E+005  0.1043930E+01  0.7957747E-01            NaN
         13   -1    0    0    0    0  0.00000000000E+00  0.00000000000E+00  0.74505805969E-08  0.10566000000E+00  0.10566000000E+00 0.  1.
     999900   -1    0    0    0    0 -0.00000000000E+00 -0.00000000000E+00 -0.74505805969E-08  0.93827000000E+00  0.93827000000E+00 0.  1.
     999902    2    1    2    0    0  0.77515211522E-02  0.64796227624E-02 -0.23154886825E-01  0.10186669761E+01  0.10183536654E+01 0.  0.
     999903    2    3    3    0    0 -0.20614554608E-02 -0.96407518552E-01  0.79650218299E-01  0.12667429230E+00  0.20088798449E-01 0.  0.
         14    1    1    2    0    0 -0.77515211522E-02 -0.64796227624E-02  0.23154886825E-01  0.25263023873E-01  0.00000000000E+00 0.  1.
     999901    1    3    3    0    0  0.98129766130E-02  0.10288714131E+00 -0.10280510512E+00  0.89199268383E+00  0.88000000000E+00 0.  1.
        -11    1    4    4    0    0  0.21370196577E-04 -0.30437412354E-01  0.37742801199E-01  0.48489346158E-01  0.51100000000E-03 0. -1.
         11    1    4    4    0    0 -0.20828256573E-02 -0.65970106199E-01  0.41907417100E-01  0.78184946144E-01  0.51100000000E-03 0.  1.
</event>
<event>
 8    1  0.1161093E+005  0.1043930E+01  0.7957747E-01            NaN
         13   -1    0    0    0    0  0.00000000000E+00  0.00000000000E+00  0.74505805969E-08  0.10566000000E+00  0.10566000000E+00 0.  1.
     999900   -1    0    0    0    0 -0.00000000000E+00 -0.00000000000E+00 -0.74505805969E-08  0.93827000000E+00  0.93827000000E+00 0.  1.
     999902    2    1    2    0    0 -0.14787389008E-01  0.15210691020E-01 -0.10442579774E-01  0.10202851387E+01  0.10200111199E+01 0.  0.
     999903    2    3    3    0    0 -0.85050013745E-01 -0.51634792420E-01 -0.84346831287E-01  0.13187814101E+00  0.19437065181E-01 0.  0.
         14    1    1    2    0    0  0.14787389008E-01 -0.15210691020E-01  0.10442579774E-01  0.23644861330E-01  0.00000000000E+00 0.  1.
     999901    1    3    3    0    0  0.70262624737E-01  0.66845483441E-01  0.73904251513E-01  0.88840699766E+00  0.88000000000E+00 0. -1.
        -11    1    4    4    0    0 -0.44496387282E-01 -0.24444118324E-01 -0.30672670454E-01  0.59317090586E-01  0.51100000000E-03 0. -1.
         11    1    4    4    0    0 -0.40553626463E-01 -0.27190674096E-01 -0.53674160833E-01  0.72561050428E-01  0.51100000000E-03 0.  1.
</event>
<event>
 8    1  0.1161093E+005  0.1043930E+01  0.7957747E-01            NaN
         13   -1    0    0    0    0  0.00000000000E+00  0.00000000000E+00  0.74505805969E-08  0.10566000000E+00  0.10566000000E+00 0. -1.
     999900   -1    0    0    0    0 -0.00000000000E+00 -0.00000000000E+00 -0.74505805969E-08  0.93827000000E+00  0.93827000000E+00 0.  1.
     999902    2    1    2    0    0  0.15748614030E-01 -0.15301543454E-02 -0.18780606799E-01  0.10193724877E+01  0.10190766396E+01 0.  0.
     999903    2    3    3    0    0  0.61338532327E-01  0.11120222489E+00 -0.24507050088E-01  0.13099203877E+00  0.20735678147E-01 0.  0.
         14    1    1    2    0    0 -0.15748614030E-01  0.15301543454E-02  0.18780606799E-01  0.24557512250E-01  0.00000000000E+00 0. -1.
     999901    1    3    3    0    0 -0.45589918298E-01 -0.11273237924E+00  0.57264432895E-02  0.88838044898E+00  0.88000000000E+00 0. -1.
        -11    1    4    4    0    0  0.12432881642E-01  0.37964787782E-01 -0.13841717978E-01  0.42281862954E-01  0.51100000000E-03 0. -1.
         11    1    4    4    0    0  0.48905650685E-01  0.73237437108E-01 -0.10665332110E-01  0.88710175815E-01  0.51100000000E-03 0.  1.
</event>
<event>
 8    1  0.1161093E+005  0.1043930E+01  0.7957747E-01            NaN
         13   -1    0    0    0    0  0.00000000000E+00  0.00000000000E+00  0.74505805969E-08  0.10566000000E+00  0.10566000000E+00 0. -1.
     999900   -1    0    0    0    0 -0.00000000000E+00 -0.00000000000E+00 -0.74505805969E-08  0.93827000000E+00  0.93827000000E+00 0.  1.
     999902    2    1    2    0    0  0.11543790268E-01 -0.10507334818E-01 -0.18346081227E-01  0.10198417897E+01  0.10195572736E+01 0.  0.
     999903    2    3    3    0    0  0.81239207843E-01 -0.82183068911E-01  0.57701107534E-01  0.13092219998E+00  0.21385484079E-01 0.  0.
         14    1    1    2    0    0 -0.11543790268E-01  0.10507334818E-01  0.18346081227E-01  0.24088210293E-01  0.00000000000E+00 0. -1.
     999901    1    3    3    0    0 -0.69695417575E-01  0.71675734093E-01 -0.76047188761E-01  0.88891958973E+00  0.88000000000E+00 0.  1.
        -11    1    4    4    0    0  0.58169491983E-01 -0.51005982405E-01  0.28807491060E-01  0.82555633974E-01  0.51100000000E-03 0.  1.
         11    1    4    4    0    0  0.23069715860E-01 -0.31177086506E-01  0.28893616475E-01  0.48366566003E-01  0.51100000000E-03 0. -1.
</event>
<event>
 8    1  0.1161093E+005  0.1043930E+01  0.7957747E-01            NaN
         13   -1    0    0    0    0  0.00000000000E+00  0.00000000000E+00  0.74505805969E-08  0.10566000000E+00  0.10566000000E+00 0.  1.
     999900   -1    0    0    0    0 -0.00000000000E+00 -0.00000000000E+00 -0.74505805969E-08  0.93827000000E+00  0.93827000000E+00 0.  1.
     999902    2    1    2    0    0 -0.13123952885E-01  0.12566578265E-01 -0.15145616376E-01  0.10202752600E+01  0.10200010095E+01 0.  0.
     999903    2    3    3    0    0 -0.40274330140E-02  0.28522443723E-01  0.12424662775E+00  0.12911448100E+00  0.20089168324E-01 0.  0.
         14    1    1    2    0    0  0.13123952885E-01 -0.12566578265E-01  0.15145616376E-01  0.23654739990E-01  0.00000000000E+00 0.  1.
     999901    1    3    3    0    0 -0.90965198709E-02 -0.15955865458E-01 -0.13939224413E+00  0.89116077901E+00  0.88000000000E+00 0.  1.
        -11    1    4    4    0    0 -0.17523461346E-02 -0.32651300233E-03  0.39845897510E-01  0.39889021009E-01  0.51100000000E-03 0.  1.
         11    1    4    4    0    0 -0.22750868794E-02  0.28848956725E-01  0.84400730244E-01  0.89225459994E-01  0.51100000000E-03 0. -1.
</event>
<event>
 8    1  0.1161093E+005  0.1043930E+01  0.7957747E-01            NaN
         13   -1    0    0    0    0  0.00000000000E+00  0.00000000000E+00  0.74505805969E-08  0.10566000000E+00  0.10566000000E+00 0. -1.
     999900   -1    0    0    0    0 -0.00000000000E+00 -0.00000000000E+00 -0.74505805969E-08  0.93827000000E+00  0.93827000000E+00 0. -1.
     999902    2    1    2    0    0  0.10705238209E-01  0.20813543516E-01  0.25789668455E-02  0.10203830939E+01  0.10201113672E+01 0.  0.
     999903    2    3    3    0    0  0.16405582254E-01  0.98751822584E-01 -0.84904147913E-01  0.13259924368E+00  0.18782425293E-01 0.  0.
         14    1    1    2    0    0 -0.10705238209E-01 -0.20813543516E-01 -0.25789668455E-02  0.23546906141E-01  0.00000000000E+00 0. -1.
     999901    1    3    3    0    0 -0.57003440455E-02 -0.77938279067E-01  0.87483114758E-01  0.88778385018E+00  0.88000000000E+00 0.  1.
        -11    1    4    4    0    0  0.16212150502E-01  0.52819438313E-01 -0.38792157397E-01  0.67511624807E-01  0.51100000000E-03 0.  1.
         11    1    4    4    0    0  0.19343175203E-03  0.45932384271E-01 -0.46111990515E-01  0.65087618876E-01  0.51100000000E-03 0. -1.
</event>
<event>
 8    1  0.1161093E+005  0.1043930E+01  0.7957747E-01            NaN
         13   -1    0    0    0    0  0.00000000000E+00  0.00000000000E+00  0.74505805969E-08  0.10566000000E+00  0.10566000000E+00 0.  1.
     999900   -1    0    0    0    0 -0.00000000000E+00 -0.00000000000E+00 -0.74505805969E-08  0.93827000000E+00  0.93827000000E+00 0.  1.
     999902    2    1    2    0    0  0.68528710606E-02 -0.45159480256E-03 -0.22221466695E-01  0.10206714669E+01  0.10204064308E+01 0.  0.
     999903    2    3    3    0    0  0.19731232561E-02  0.13555780017E-01  0.12594106481E+00  0.12816255702E+00  0.19412285483E-01 0.  0.
         14    1    1    2    0    0 -0.68528710606E-02  0.45159480256E-03  0.22221466695E-01  0.23258533094E-01  0.00000000000E+00 0.  1.
     999901    1    3    3    0    0  0.48797478045E-02 -0.14007374819E-01 -0.14816253151E+00  0.89250890989E+00  0.88000000000E+00 0.  1.
        -11    1    4    4    0    0 -0.79771858635E-02  0.88060356418E-02  0.48395926582E-01  0.49835816324E-01  0.51100000000E-03 0.  1.
         11    1    4    4    0    0  0.99503091197E-02  0.47497443748E-02  0.77545138231E-01  0.78326740693E-01  0.51100000000E-03 0. -1.
</event>
<event>
 8    1  0.1161093E+005  0.1043930E+01  0.7957747E-01            NaN
         13   -1    0    0    0    0  0.00000000000E+00  0.00000000000E+00  0.74505805969E-08  0.10566000000E+00  0.10566000000E+00 0.  1.
     999900   -1    0    0    0    0 -0.00000000000E+00 -0.00000000000E+00 -0.74505805969E-08  0.93827000000E+00  0.93827000000E+00 0.  1.
     999902    2    1    2    0    0  0.27972573184E-03  0.21622798382E-01  0.96609476882E-02  0.10202454572E+01  0.10199705071E+01 0.  0.
     999903    2    3    3    0    0  0.22601482622E-01  0.12950113041E+00  0.47888925674E-02  0.13336342884E+00  0.21943127991E-01 0.  0.
         14    1    1    2    0    0 -0.27972573184E-03 -0.21622798382E-01 -0.96609476882E-02  0.23684542778E-01  0.00000000000E+00 0. -1.
     999901    1    3    3    0    0 -0.22321756890E-01 -0.10787833202E+00  0.48720551208E-02  0.88688202838E+00  0.88000000000E+00 0.  1.
        -11    1    4    4    0    0  0.21260055121E-01  0.10434133175E+00 -0.43014974762E-02  0.10657329617E+00  0.51100000000E-03 0.  1.
         11    1    4    4    0    0  0.13414275006E-02  0.25159798659E-01  0.90903900436E-02  0.26790132669E-01  0.51100000000E-03 0. -1.
</event>
<event>
 8    1  0.1161093E+005  0.1043930E+01  0.7957747E-01            NaN
         13   -1    0    0    0    0  0.00000000000E+00  0.00000000000E+00  0.74505805969E-08  0.10566000000E+00  0.10566000000E+00 0.  1.
     999900   -1    0    0    0    0 -0.00000000000E+00 -0.00000000000E+00 -0.74505805969E-08  0.93827000000E+00  0.93827000000E+00 0. -1.
     999902    2    1    2    0    0 -0.20103654087E-01 -0.12899658516E-01 -0.17080315314E-02  0.10199826521E+01  0.10197014932E+01 0.  0.
     999903    2    3    3    0    0  0.10172776316E+00 -0.55344062564E-01  0.53266734337E-01  0.12887847948E+00  0.18995115900E-01 0.  0.
         14    1    1    2    0    0  0.20103654087E-01  0.12899658516E-01  0.17080315314E-02  0.23947347853E-01  0.00000000000E+00 0. -1.
     999901    1    3    3    0    0 -0.12183141724E+00  0.42444404048E-01 -0.54974765868E-01  0.89110417267E+00  0.88000000000E+00 0. -1.
        -11    1    4    4    0    0  0.80891913053E-01 -0.43455727784E-01  0.33350880157E-01  0.97695671362E-01  0.51100000000E-03 0.  1.
         11    1    4    4    0    0  0.20835850105E-01 -0.11888334780E-01  0.19915854180E-01  0.31182808118E-01  0.51100000000E-03 0. -1.
</event>
<event>
 8    1  0.1161093E+005  0.1043930E+01  0.7957747E-01            NaN
         13   -1    0    0    0    0  0.00000000000E+00  0.00000000000E+00  0.74505805969E-08  0.10566000000E+00  0.10566000000E+00 0. -1.
     999900   -1    0    0    0    0 -0.00000000000E+00 -0.00000000000E+00 -0.74505805969E-08  0.93827000000E+00  0.93827000000E+00 0.  1.
     999902    2    1    2    0    0 -0.67853898767E-02 -0.52479546850E-02  0.22521305170E-01  0.10198303790E+01  0.10195455901E+01 0.  0.
     999903    2    3    3    0    0  0.77099394762E-01 -0.60159413785E-01  0.86082416682E-01  0.13185969239E+00  0.20330378181E-01 0.  0.
         14    1    1    2    0    0  0.67853898767E-02  0.52479546850E-02 -0.22521305170E-01  0.24099620966E-01  0.00000000000E+00 0.  1.
     999901    1    3    3    0    0 -0.83884784639E-01  0.54911459100E-01 -0.63561111512E-01  0.88797068664E+00  0.88000000000E+00 0.  1.
        -11    1    4    4    0    0  0.31251614006E-01 -0.12399527000E-01  0.26997472072E-01  0.43122340696E-01  0.51100000000E-03 0.  1.
         11    1    4    4    0    0  0.45847780756E-01 -0.47759886785E-01  0.59084944610E-01  0.88737351699E-01  0.51100000000E-03 0. -1.
</event>
<event>
 8    1  0.1161093E+005  0.1043930E+01  0.7957747E-01            NaN
         13   -1    0    0    0    0  0.00000000000E+00  0.00000000000E+00  0.74505805969E-08  0.10566000000E+00  0.10566000000E+00 0.  1.
     999900   -1    0    0    0    0 -0.00000000000E+00 -0.00000000000E+00 -0.74505805969E-08  0.93827000000E+00  0.93827000000E+00 0.  1.
     999902    2    1    2    0    0  0.23089974517E-01 -0.89889253180E-02 -0.10130378054E-01  0.10171611326E+01  0.10168088303E+01 0.  0.
     999903    2    3    3    0    0 -0.11472937462E+00 -0.72324462422E-02 -0.48252062043E-01  0.12561723521E+00  0.15371747186E-01 0.  0.
         14    1    1    2    0    0 -0.23089974517E-01  0.89889253180E-02  0.10130378054E-01  0.26768867385E-01  0.00000000000E+00 0.  1.
     999901    1    3    3    0    0  0.13781934913E+00 -0.17564790758E-02  0.38121683989E-01  0.89154389741E+00  0.88000000000E+00 0. -1.
        -11    1    4    4    0    0 -0.59348636306E-01 -0.86422811178E-02 -0.31461713088E-01  0.67727765102E-01  0.51100000000E-03 0.  1.
         11    1    4    4    0    0 -0.55380738309E-01  0.14098348757E-02 -0.16790348955E-01  0.57889470105E-01  0.51100000000E-03 0. -1.
</event>
<event>
 7    1  0.1161093E+005  0.1043930E+01  0.7957747E-01            NaN
         13   -1    0    0    0    0  0.00000000000E+00  0.00000000000E+00  0.74505805969E-08  0.10566000000E+00  0.10566000000E+00 0.  1.
     999900   -1    0    0    0    0 -0.00000000000E+00 -0.00000000000E+00 -0.74505805969E-08  0.93827000000E+00  0.93827000000E+00 0.  1.
     999902    2    1    2    0    0 -0.17203582816E-01  0.49901684301E-02  0.15364567111E-01  0.10203305304E+01  0.10200575750E+01 0.  0.
         14    1    1    2    0    0  0.17203582816E-01 -0.49901684301E-02 -0.15364567111E-01  0.23599469595E-01  0.00000000000E+00 0. -1.
     999901    1    3    3    0    0 -0.45698664690E-01 -0.95523399666E-01  0.72586547514E-01  0.88931540789E+00  0.88000000000E+00 0.  1.
        -11    1    3    3    0    0  0.23711352061E-01  0.32890807859E-01  0.25560915422E-02  0.40630384974E-01  0.51100000000E-03 0.  1.
         11    1    3    3    0    0  0.47837298132E-02  0.67622760238E-01 -0.59778071945E-01  0.90384737537E-01  0.51100000000E-03 0. -1.
</event>
<event>
 8    1  0.1161093E+005  0.1043930E+01  0.7957747E-01            NaN
         13   -1    0    0    0    0  0.00000000000E+00  0.00000000000E+00  0.74505805969E-08  0.10566000000E+00  0.10566000000E+00 0.  1.
     999900   -1    0    0    0    0 -0.00000000000E+00 -0.00000000000E+00 -0.74505805969E-08  0.93827000000E+00  0.93827000000E+00 0.  1.
     999902    2    1    2    0    0 -0.68646324154E-02 -0.17374483700E-01  0.13639622036E-01  0.10207991731E+01  0.10205370727E+01 0.  0.
     999903    2    3    3    0    0  0.58941416435E-01  0.11189114217E+00 -0.96692918641E-02  0.12862018686E+00  0.21352728033E-01 0.  0.
         14    1    1    2    0    0  0.68646324154E-02  0.17374483700E-01 -0.13639622036E-01  0.23130826863E-01  0.00000000000E+00 0. -1.
     999901    1    3    3    0    0 -0.65806048850E-01 -0.12926562587E+00  0.23308913901E-01  0.89217898628E+00  0.88000000000E+00 0. -1.
        -11    1    4    4    0    0  0.33298393207E-01  0.59298591277E-01  0.53191429164E-02  0.68217741974E-01  0.51100000000E-03 0. -1.
         11    1    4    4    0    0  0.25643023228E-01  0.52592550891E-01 -0.14988434781E-01  0.60402444881E-01  0.51100000000E-03 0.  1.
</event>
<event>
 8    1  0.1161093E+005  0.1043930E+01  0.7957747E-01            NaN
         13   -1    0    0    0    0  0.00000000000E+00  0.00000000000E+00  0.74505805969E-08  0.10566000000E+00  0.10566000000E+00 0.  1.
     999900   -1    0    0    0    0 -0.00000000000E+00 -0.00000000000E+00 -0.74505805969E-08  0.93827000000E+00  0.93827000000E+00 0.  1.
     999902    2    1    2    0    0 -0.60619415409E-02  0.18290137416E-01  0.13993002356E-01  0.10201165505E+01  0.10198385638E+01 0.  0.
     999903    2    3    3    0    0 -0.41775795425E-01 -0.57645798477E-01  0.10821834916E+00  0.13111702199E+00  0.20302886369E-01 0.  0.
         14    1    1    2    0    0  0.60619415409E-02 -0.18290137416E-01 -0.13993002356E-01  0.23813449495E-01  0.00000000000E+00 0. -1.
     999901    1    3    3    0    0  0.35713853884E-01  0.75935935892E-01 -0.94225346805E-01  0.88899952851E+00  0.88000000000E+00 0.  1.
        -11    1    4    4    0    0 -0.98232186406E-02 -0.22567827105E-01  0.52115913428E-01  0.57637938879E-01  0.51100000000E-03 0. -1.
         11    1    4    4    0    0 -0.31952576784E-01 -0.35077971372E-01  0.56102435733E-01  0.73479083111E-01  0.51100000000E-03 0.  1.
</event>
<event>
 8    1  0.1161093E+005  0.1043930E+01  0.7957747E-01            NaN
         13   -1    0    0    0    0  0.00000000000E+00  0.00000000000E+00  0.74505805969E-08  0.10566000000E+00  0.10566000000E+00 0.  1.
     999900   -1    0    0    0    0 -0.00000000000E+00 -0.00000000000E+00 -0.74505805969E-08  0.93827000000E+00  0.93827000000E+00 0.  1.
     999902    2    1    2    0    0 -0.42742694932E-02  0.68899894592E-02 -0.23273622553E-01  0.10192844560E+01  0.10189864569E+01 0.  0.
     999903    2    3    3    0    0  0.59094709888E-01 -0.17240025231E-01  0.10904023769E+00  0.12681325599E+00  0.20060539705E-01 0.  0.
         14    1    1    2    0    0  0.42742694932E-02 -0.68899894592E-02  0.23273622553E-01  0.24645544044E-01  0.00000000000E+00 0.  1.
     999901    1    3    3    0    0 -0.63368979381E-01  0.24130014690E-01 -0.13231386024E+00  0.89247119997E+00  0.88000000000E+00 0.  1.
        -11    1    4    4    0    0  0.49160774820E-01 -0.58134186569E-02  0.80598366159E-01  0.94588241161E-01  0.51100000000E-03 0.  1.
         11    1    4    4    0    0  0.99339350676E-02 -0.11426606574E-01  0.28441871529E-01  0.32225014830E-01  0.51100000000E-03 0. -1.
</event>
<event>
 8    1  0.1389394E+005  0.1043930E+01  0.7957747E-01            NaN
         13   -1    0    0    0    0  0.00000000000E+00  0.00000000000E+00  0.74505805969E-08  0.10566000000E+00  0.10566000000E+00 0. -1.
     999900   -1    0    0    0    0 -0.00000000000E+00 -0.00000000000E+00 -0.74505805969E-08  0.93827000000E+00  0.93827000000E+00 0.  1.
     999902    2    1    2    0    0 -0.19277227370E-01  0.13852067008E-01 -0.19269598573E-03  0.10201912471E+01  0.10199150221E+01 0.  0.
     999903    2    3    3    0    0  0.11587845733E+00 -0.99007597841E-02  0.49780637373E-01  0.12815504276E+00  0.20488074799E-01 0.  0.
         14    1    1    2    0    0  0.19277227370E-01 -0.13852067008E-01  0.19269598573E-03  0.23738752857E-01  0.00000000000E+00 0. -1.
     999901    1    3    3    0    0 -0.13515568470E+00  0.23752826792E-01 -0.49973333358E-01  0.89203620439E+00  0.88000000000E+00 0.  1.
        -11    1    4    4    0    0  0.64468485823E-01 -0.17020302981E-02  0.37721642655E-01  0.74714563620E-01  0.51100000000E-03 0. -1.
         11    1    4    4    0    0  0.51409971510E-01 -0.81987294860E-02  0.12058994718E-01  0.53440479137E-01  0.51100000000E-03 0.  1.
</event>
<event>
 8    1  0.1170153E+005  0.1043930E+01  0.7957747E-01            NaN
         13   -1    0    0    0    0  0.00000000000E+00  0.00000000000E+00  0.74505805969E-08  0.10566000000E+00  0.10566000000E+00 0.  1.
     999900   -1    0    0    0    0 -0.00000000000E+00 -0.00000000000E+00 -0.74505805969E-08  0.93827000000E+00  0.93827000000E+00 0.  1.
     999902    2    1    2    0    0  0.69942306394E-02  0.12522015042E-01 -0.19558822838E-01  0.10196757700E+01  0.10193872710E+01 0.  0.
     999903    2    3    3    0    0 -0.66266647087E-01  0.11122864272E+00  0.45928275078E-02  0.13080375627E+00  0.18040208184E-01 0.  0.
         14    1    1    2    0    0 -0.69942306394E-02 -0.12522015042E-01  0.19558822838E-01  0.24254230018E-01  0.00000000000E+00 0. -1.
     999901    1    3    3    0    0  0.73260877727E-01 -0.98706627677E-01 -0.24151650346E-01  0.88887201372E+00  0.88000000000E+00 0.  1.
        -11    1    4    4    0    0 -0.38160699916E-01  0.66109276235E-01  0.11504859679E-01  0.77196491757E-01  0.51100000000E-03 0.  1.
         11    1    4    4    0    0 -0.28105947172E-01  0.45119366485E-01 -0.69120321711E-02  0.53607264509E-01  0.51100000000E-03 0. -1.
</event>
<event>
 8    1  0.1161093E+005  0.1043930E+01  0.7957747E-01            NaN
         13   -1    0    0    0    0  0.00000000000E+00  0.00000000000E+00  0.74505805969E-08  0.10566000000E+00  0.10566000000E+00 0. -1.
     999900   -1    0    0    0    0 -0.00000000000E+00 -0.00000000000E+00 -0.74505805969E-08  0.93827000000E+00  0.93827000000E+00 0. -1.
     999902    2    1    2    0    0 -0.19466442480E-01  0.25028838907E-02 -0.74081092217E-02  0.10229517519E+01  0.10227366229E+01 0.  0.
     999903    2    3    3    0    0 -0.10183822910E+00  0.74597807806E-01 -0.45136180309E-01  0.13536727896E+00  0.18739466461E-01 0.  0.
         14    1    1    2    0    0  0.19466442480E-01 -0.25028838907E-02  0.74081092217E-02  0.20978248088E-01  0.00000000000E+00 0. -1.
     999901    1    3    3    0    0  0.82371786621E-01 -0.72094923915E-01  0.37728071088E-01  0.88758447296E+00  0.88000000000E+00 0.  1.
        -11    1    4    4    0    0 -0.77526669735E-01  0.60050776699E-01 -0.42599360531E-01  0.10691794490E+00  0.51100000000E-03 0. -1.
         11    1    4    4    0    0 -0.24311559365E-01  0.14547031106E-01 -0.25368197784E-02  0.28449334058E-01  0.51100000000E-03 0.  1.
</event>
<event>
 8    1  0.1161093E+005  0.1043930E+01  0.7957747E-01            NaN
         13   -1    0    0    0    0  0.00000000000E+00  0.00000000000E+00  0.74505805969E-08  0.10566000000E+00  0.10566000000E+00 0.  1.
     999900   -1    0    0    0    0 -0.00000000000E+00 -0.00000000000E+00 -0.74505805969E-08  0.93827000000E+00  0.93827000000E+00 0.  1.
     999902    2    1    2    0    0  0.13194010071E-01 -0.17971849640E-01 -0.49999856694E-03  0.10216293435E+01  0.10213859193E+01 0.  0.
     999903    2    3    3    0    0  0.90823409582E-02  0.12775388816E+00 -0.18145061781E-02  0.12963459890E+00  0.19957252848E-01 0.  0.
         14    1    1    2    0    0 -0.13194010071E-01  0.17971849640E-01  0.49999856694E-03  0.22300656488E-01  0.00000000000E+00 0.  1.
     999901    1    3    3    0    0  0.41116691124E-02 -0.14572573781E+00  0.13145076111E-02  0.89199474461E+00  0.88000000000E+00 0. -1.
        -11    1    4    4    0    0  0.38085532219E-03  0.10831375130E+00 -0.17427512102E-02  0.10832964541E+00  0.51100000000E-03 0. -1.
         11    1    4    4    0    0  0.87014856360E-02  0.19440136866E-01 -0.71754967852E-04  0.21304953495E-01  0.51100000000E-03 0.  1.
</event>
<event>
 8    1  0.1161093E+005  0.1043930E+01  0.7957747E-01            NaN
         13   -1    0    0    0    0  0.00000000000E+00  0.00000000000E+00  0.74505805969E-08  0.10566000000E+00  0.10566000000E+00 0.  1.
     999900   -1    0    0    0    0 -0.00000000000E+00 -0.00000000000E+00 -0.74505805969E-08  0.93827000000E+00  0.93827000000E+00 0. -1.
     999902    2    1    2    0    0 -0.16381579737E-01  0.85448129891E-02  0.12192401375E-01  0.10217934999E+01  0.10215536853E+01 0.  0.
     999903    2    3    3    0    0  0.10361182062E-01 -0.17134949752E-01 -0.12691140786E+00  0.13009596419E+00  0.20432666388E-01 0.  0.
         14    1    1    2    0    0  0.16381579737E-01 -0.85448129891E-02 -0.12192401375E-01  0.22136500062E-01  0.00000000000E+00 0. -1.
     999901    1    3    3    0    0 -0.26742761799E-01  0.25679762741E-01  0.13910380924E+00  0.89169753575E+00  0.88000000000E+00 0.  1.
        -11    1    4    4    0    0 -0.12772891307E-02 -0.15254253990E-02 -0.68340916632E-01  0.68371780709E-01  0.51100000000E-03 0.  1.
         11    1    4    4    0    0  0.11638471193E-01 -0.15609524353E-01 -0.58570491227E-01  0.61724183477E-01  0.51100000000E-03 0. -1.
</event>
<event>
 8    1  0.1161093E+005  0.1043930E+01  0.7957747E-01            NaN
         13   -1    0    0    0    0  0.00000000000E+00  0.00000000000E+00  0.74505805969E-08  0.10566000000E+00  0.10566000000E+00 0.  1.
     999900   -1    0    0    0    0 -0.00000000000E+00 -0.00000000000E+00 -0.74505805969E-08  0.93827000000E+00  0.93827000000E+00 0. -1.
     999902    2    1    2    0    0  0.72492552669E-02 -0.58835816444E-03 -0.23130955360E-01  0.10196825473E+01  0.10193942114E+01 0.  0.
     999903    2    3    3    0    0  0.25435004105E-01  0.22293076274E-01  0.12127593131E+00  0.12743391018E+00  0.19688302752E-01 0.  0.
         14    1    1    2    0    0 -0.72492552669E-02  0.58835816444E-03  0.23130955360E-01  0.24247452714E-01  0.00000000000E+00 0.  1.
     999901    1    3    3    0    0 -0.18185748838E-01 -0.22881434438E-01 -0.14440688667E+00  0.89224863711E+00  0.88000000000E+00 0. -1.
        -11    1    4    4    0    0  0.42290731488E-02  0.12157948689E-02  0.49226392129E-01  0.49425317600E-01  0.51100000000E-03 0.  1.
         11    1    4    4    0    0  0.21205930956E-01  0.21077281405E-01  0.72049539179E-01  0.78008592578E-01  0.51100000000E-03 0. -1.
</event>
<event>
 8    1  0.1161093E+005  0.1043930E+01  0.7957747E-01            NaN
         13   -1    0    0    0    0  0.00000000000E+00  0.00000000000E+00  0.74505805969E-08  0.10566000000E+00  0.10566000000E+00 0.  1.
     999900   -1    0    0    0    0 -0.00000000000E+00 -0.00000000000E+00 -0.74505805969E-08  0.93827000000E+00  0.93827000000E+00 0. -1.
     999902    2    1    2    0    0 -0.67957855954E-02 -0.21413432432E-01  0.75224167929E-02  0.10202381334E+01  0.10199630112E+01 0.  0.
     999903    2    3    3    0    0 -0.84266337025E-01 -0.97502897812E-01 -0.25878142803E-01  0.13293497747E+00  0.19859489472E-01 0.  0.
         14    1    1    2    0    0  0.67957855954E-02  0.21413432432E-01 -0.75224167929E-02  0.23691866637E-01  0.00000000000E+00 0.  1.
     999901    1    3    3    0    0  0.77470551429E-01  0.76089465380E-01  0.33400559596E-01  0.88730315590E+00  0.88000000000E+00 0.  1.
        -11    1    4    4    0    0 -0.36528433765E-01 -0.27820015484E-01 -0.96590662578E-02  0.46923751095E-01  0.51100000000E-03 0.  1.
         11    1    4    4    0    0 -0.47737903260E-01 -0.69682882328E-01 -0.16219076545E-01  0.86011226373E-01  0.51100000000E-03 0. -1.
</event>
<event>
 8    1  0.1161093E+005  0.1043930E+01  0.7957747E-01            NaN
         13   -1    0    0    0    0  0.00000000000E+00  0.00000000000E+00  0.74505805969E-08  0.10566000000E+00  0.10566000000E+00 0.  1.
     999900   -1    0    0    0    0 -0.00000000000E+00 -0.00000000000E+00 -0.74505805969E-08  0.93827000000E+00  0.93827000000E+00 0. -1.
     999902    2    1    2    0    0  0.22673133849E-01  0.38763863800E-02  0.32782882871E-02  0.10206954450E+01  0.10204309614E+01 0.  0.
     999903    2    3    3    0    0 -0.11700929831E+00 -0.38094480336E-01  0.28349781288E-01  0.12833827705E+00  0.22904976186E-01 0.  0.
         14    1    1    2    0    0 -0.22673133849E-01 -0.38763863800E-02 -0.32782882871E-02  0.23234554956E-01  0.00000000000E+00 0. -1.
     999901    1    3    3    0    0  0.13968243216E+00  0.41970866716E-01 -0.25071493001E-01  0.89235716799E+00  0.88000000000E+00 0. -1.
        -11    1    4    4    0    0 -0.67478792854E-01 -0.24670608711E-01  0.27730244191E-01  0.77014634863E-01  0.51100000000E-03 0.  1.
         11    1    4    4    0    0 -0.49530505457E-01 -0.13423871625E-01  0.61953709668E-03  0.51323642188E-01  0.51100000000E-03 0. -1.
</event>
<event>
 8    1  0.1161093E+005  0.1043930E+01  0.7957747E-01            NaN
         13   -1    0    0    0    0  0.00000000000E+00  0.00000000000E+00  0.74505805969E-08  0.10566000000E+00  0.10566000000E+00 0. -1.
     999900   -1    0    0    0    0 -0.00000000000E+00 -0.00000000000E+00 -0.74505805969E-08  0.93827000000E+00  0.93827000000E+00 0. -1.
     999902    2    1    2    0    0 -0.91740493395E-02  0.70151566777E-02  0.19410688963E-01  0.10213434896E+01  0.10210937143E+01 0.  0.
     999903    2    3    3    0    0 -0.72445820557E-01  0.10766925195E+00  0.23554398179E-01  0.13333913477E+00  0.19581891028E-01 0.  0.
         14    1    1    2    0    0  0.91740493395E-02 -0.70151566777E-02 -0.19410688963E-01  0.22586510366E-01  0.00000000000E+00 0.  1.
     999901    1    3    3    0    0  0.63271771218E-01 -0.10065409527E+00 -0.41437092164E-02  0.88800435486E+00  0.88000000000E+00 0.  1.
        -11    1    4    4    0    0 -0.46574863047E-01  0.51740948134E-01  0.12323264836E-01  0.70699841293E-01  0.51100000000E-03 0.  1.
         11    1    4    4    0    0 -0.25870957510E-01  0.55928303817E-01  0.11231133344E-01  0.62639293479E-01  0.51100000000E-03 0. -1.
</event>
<event>
 8    1  0.1161093E+005  0.1043930E+01  0.7957747E-01            NaN
         13   -1    0    0    0    0  0.00000000000E+00  0.00000000000E+00  0.74505805969E-08  0.10566000000E+00  0.10566000000E+00 0.  1.
     999900   -1    0    0    0    0 -0.00000000000E+00 -0.00000000000E+00 -0.74505805969E-08  0.93827000000E+00  0.93827000000E+00 0.  1.
     999902    2    1    2    0    0  0.33850869241E-02 -0.20476450314E-01  0.62024539687E-02  0.10222686458E+01  0.10220391235E+01 0.  0.
     999903    2    3    3    0    0  0.87586152679E-01 -0.47147811299E-01  0.87705789923E-01  0.13409975715E+00  0.19904497764E-01 0.  0.
         14    1    1    2    0    0 -0.33850869241E-02  0.20476450314E-01 -0.62024539687E-02  0.21661354210E-01  0.00000000000E+00 0.  1.
     999901    1    3    3    0    0 -0.84201065754E-01  0.26671360985E-01 -0.81503335955E-01  0.88816888864E+00  0.88000000000E+00 0.  1.
        -11    1    4    4    0    0  0.33946320285E-01 -0.11144098715E-01  0.22047109767E-01  0.41986661776E-01  0.51100000000E-03 0.  1.
         11    1    4    4    0    0  0.53639832394E-01 -0.36003712584E-01  0.65658680157E-01  0.92113095377E-01  0.51100000000E-03 0. -1.
</event>
<event>
 8    1  0.1161093E+005  0.1043930E+01  0.7957747E-01            NaN
         13   -1    0    0    0    0  0.00000000000E+00  0.00000000000E+00  0.74505805969E-08  0.10566000000E+00  0.10566000000E+00 0. -1.
     999900   -1    0    0    0    0 -0.00000000000E+00 -0.00000000000E+00 -0.74505805969E-08  0.93827000000E+00  0.93827000000E+00 0.  1.
     999902    2    1    2    0    0  0.36818395825E-02 -0.22805528031E-01 -0.75838892068E-02  0.10196161474E+01  0.10193262111E+01 0.  0.
     999903    2    3    3    0    0 -0.12746689608E+00  0.48469393473E-02 -0.83811104898E-02  0.12946712317E+00  0.20498549984E-01 0.  0.
         14    1    1    2    0    0 -0.36818395825E-02  0.22805528031E-01  0.75838892068E-02  0.24313852574E-01  0.00000000000E+00 0. -1.
     999901    1    3    3    0    0  0.13114873566E+00 -0.27652467379E-01  0.79722128303E-03  0.89014902425E+00  0.88000000000E+00 0. -1.
        -11    1    4    4    0    0 -0.11931504405E+00  0.90846653635E-02 -0.53575763337E-02  0.11978136594E+00  0.51100000000E-03 0.  1.
         11    1    4    4    0    0 -0.81518520310E-02 -0.42377260162E-02 -0.30235341561E-02  0.96857572300E-02  0.51100000000E-03 0. -1.
</event>
<event>
 8    1  0.1161093E+005  0.1043930E+01  0.7957747E-01            NaN
         13   -1    0    0    0    0  0.00000000000E+00  0.00000000000E+00  0.74505805969E-08  0.10566000000E+00  0.10566000000E+00 0. -1.
     999900   -1    0    0    0    0 -0.00000000000E+00 -0.00000000000E+00 -0.74505805969E-08  0.93827000000E+00  0.93827000000E+00 0. -1.
     999902    2    1    2    0    0 -0.73717701429E-02 -0.16429520068E-01  0.14446048246E-01  0.10208440641E+01  0.10205829917E+01 0.  0.
     999903    2    3    3    0    0  0.31101028311E-01  0.11857338474E+00 -0.32761331268E-01  0.12846831525E+00  0.20096807356E-01 0.  0.
         14    1    1    2    0    0  0.73717701429E-02  0.16429520068E-01 -0.14446048246E-01  0.23085935862E-01  0.00000000000E+00 0.  1.
     999901    1    3    3    0    0 -0.38472798454E-01 -0.13500290481E+00  0.47207379514E-01  0.89237574889E+00  0.88000000000E+00 0.  1.
        -11    1    4    4    0    0  0.23335120280E-01  0.96432140240E-01 -0.34224210932E-01  0.10495352898E+00  0.51100000000E-03 0.  1.
         11    1    4    4    0    0  0.77659080306E-02  0.22141244498E-01  0.14628796636E-02  0.23514786271E-01  0.51100000000E-03 0. -1.
</event>
<event>
 8    1  0.1161093E+005  0.1043930E+01  0.7957747E-01            NaN
         13   -1    0    0    0    0  0.00000000000E+00  0.00000000000E+00  0.74505805969E-08  0.10566000000E+00  0.10566000000E+00 0.  1.
     999900   -1    0    0    0    0 -0.00000000000E+00 -0.00000000000E+00 -0.74505805969E-08  0.93827000000E+00  0.93827000000E+00 0. -1.
     999902    2    1    2    0    0  0.87268762113E-02  0.20208299941E-01  0.57656236620E-02  0.10211753044E+01  0.10209217532E+01 0.  0.
     999903    2    3    3    0    0 -0.10487758613E+00  0.53539288558E-01 -0.54362319076E-01  0.13121333997E+00  0.19897621947E-01 0.  0.
         14    1    1    2    0    0 -0.87268762113E-02 -0.20208299941E-01 -0.57656236620E-02  0.22754695584E-01  0.00000000000E+00 0. -1.
     999901    1    3    3    0    0  0.11360446234E+00 -0.33330988616E-01  0.60127942738E-01  0.88996196445E+00  0.88000000000E+00 0.  1.
        -11    1    4    4    0    0 -0.34646796316E-01  0.11886618346E-01 -0.25386784257E-01  0.44569520152E-01  0.51100000000E-03 0. -1.
         11    1    4    4    0    0 -0.70230789811E-01  0.41652670212E-01 -0.28975534819E-01  0.86643819816E-01  0.51100000000E-03 0.  1.
</event>
<event>
 8    1  0.1161093E+005  0.1043930E+01  0.7957747E-01            NaN
         13   -1    0    0    0    0  0.00000000000E+00  0.00000000000E+00  0.74505805969E-08  0.10566000000E+00  0.10566000000E+00 0.  1.
     999900   -1    0    0    0    0 -0.00000000000E+00 -0.00000000000E+00 -0.74505805969E-08  0.93827000000E+00  0.93827000000E+00 0. -1.
     999902    2    1    2    0    0  0.13719059674E-01 -0.58244742772E-02  0.16926860231E-01  0.10213766034E+01  0.10211275681E+01 0.  0.
     999903    2    3    3    0    0  0.11054717423E+00  0.44705073862E-01  0.57427925213E-01  0.13370027996E+00  0.18936127057E-01 0.  0.
         14    1    1    2    0    0 -0.13719059674E-01  0.58244742772E-02 -0.16926860231E-01  0.22553396556E-01  0.00000000000E+00 0. -1.
     999901    1    3    3    0    0 -0.96828114559E-01 -0.50529548139E-01 -0.40501064982E-01  0.88767632348E+00  0.88000000000E+00 0. -1.
        -11    1    4    4    0    0  0.69857395794E-01  0.28916211661E-01  0.26149574421E-01  0.80001652529E-01  0.51100000000E-03 0. -1.
         11    1    4    4    0    0  0.40689778439E-01  0.15788862201E-01  0.31278350792E-01  0.53698627434E-01  0.51100000000E-03 0.  1.
</event>
<event>
 8    1  0.1161093E+005  0.1043930E+01  0.7957747E-01            NaN
         13   -1    0    0    0    0  0.00000000000E+00  0.00000000000E+00  0.74505805969E-08  0.10566000000E+00  0.10566000000E+00 0.  1.
     999900   -1    0    0    0    0 -0.00000000000E+00 -0.00000000000E+00 -0.74505805969E-08  0.93827000000E+00  0.93827000000E+00 0. -1.
     999902    2    1    2    0    0 -0.47355312839E-02  0.20510487127E-01  0.93503554801E-02  0.10208966658E+01  0.10206367952E+01 0.  0.
     999903    2    3    3    0    0  0.97680118410E-01 -0.51220866565E-01  0.66350838589E-01  0.13023207823E+00  0.19823665502E-01 0.  0.
         14    1    1    2    0    0  0.47355312839E-02 -0.20510487127E-01 -0.93503554801E-02  0.23033334242E-01  0.00000000000E+00 0. -1.
     999901    1    3    3    0    0 -0.10241564969E+00  0.71731353692E-01 -0.57000483109E-01  0.89066458753E+00  0.88000000000E+00 0. -1.
        -11    1    4    4    0    0  0.56675344250E-01 -0.20396038806E-01  0.42084837397E-01  0.73481206472E-01  0.51100000000E-03 0. -1.
         11    1    4    4    0    0  0.41004774160E-01 -0.30824827759E-01  0.24266001193E-01  0.56750871757E-01  0.51100000000E-03 0.  1.
</event>
<event>
 8    1  0.1161093E+005  0.1043930E+01  0.7957747E-01            NaN
         13   -1    0    0    0    0  0.00000000000E+00  0.00000000000E+00  0.74505805969E-08  0.10566000000E+00  0.10566000000E+00 0. -1.
     999900   -1    0    0    0    0 -0.00000000000E+00 -0.00000000000E+00 -0.74505805969E-08  0.93827000000E+00  0.93827000000E+00 0.  1.
     999902    2    1    2    0    0  0.22196102449E-01 -0.15821137833E-02 -0.84656363240E-02  0.10201216602E+01  0.10198437941E+01 0.  0.
     999903    2    3    3    0    0 -0.43756726935E-01  0.38133811121E-01  0.11262491930E+00  0.12849951313E+00  0.21422271724E-01 0.  0.
         14    1    1    2    0    0 -0.22196102449E-01  0.15821137833E-02  0.84656363240E-02  0.23808339848E-01  0.00000000000E+00 0.  1.
     999901    1    3    3    0    0  0.65952829384E-01 -0.39715924904E-01 -0.12109055562E+00  0.89162214702E+00  0.88000000000E+00 0.  1.
        -11    1    4    4    0    0 -0.24978922550E-01  0.34630629811E-01  0.75198328022E-01  0.86477030194E-01  0.51100000000E-03 0. -1.
         11    1    4    4    0    0 -0.18777804385E-01  0.35031813104E-02  0.37426591275E-01  0.42022482938E-01  0.51100000000E-03 0.  1.
</event>
<event>
 8    1  0.1161093E+005  0.1043930E+01  0.7957747E-01            NaN
         13   -1    0    0    0    0  0.00000000000E+00  0.00000000000E+00  0.74505805969E-08  0.10566000000E+00  0.10566000000E+00 0.  1.
     999900   -1    0    0    0    0 -0.00000000000E+00 -0.00000000000E+00 -0.74505805969E-08  0.93827000000E+00  0.93827000000E+00 0. -1.
     999902    2    1    2    0    0  0.11180473885E-01  0.16428539579E-01  0.24084562044E-01  0.10127055538E+01  0.10122240724E+01 0.  0.
     999903    2    3    3    0    0  0.84778111534E-02 -0.93684334915E-01  0.78437663585E-01  0.12417507650E+00  0.20453720086E-01 0.  0.
         14    1    1    2    0    0 -0.11180473885E-01 -0.16428539579E-01 -0.24084562044E-01  0.31224446157E-01  0.00000000000E+00 0. -1.
     999901    1    3    3    0    0  0.27026627314E-02  0.11011287449E+00 -0.54353101541E-01  0.88853047734E+00  0.88000000000E+00 0. -1.
        -11    1    4    4    0    0  0.40781240259E-03 -0.51869261251E-01  0.31028872908E-01  0.60445336037E-01  0.51100000000E-03 0.  1.
         11    1    4    4    0    0  0.80699987509E-02 -0.41815073663E-01  0.47408790677E-01  0.63729740465E-01  0.51100000000E-03 0. -1.
</event>
<event>
 8    1  0.1161093E+005  0.1043930E+01  0.7957747E-01            NaN
         13   -1    0    0    0    0  0.00000000000E+00  0.00000000000E+00  0.74505805969E-08  0.10566000000E+00  0.10566000000E+00 0.  1.
     999900   -1    0    0    0    0 -0.00000000000E+00 -0.00000000000E+00 -0.74505805969E-08  0.93827000000E+00  0.93827000000E+00 0. -1.
     999902    2    1    2    0    0  0.71263926307E-02 -0.12766645290E-01 -0.18663573001E-01  0.10202213168E+01  0.10199457993E+01 0.  0.
     999903    2    3    3    0    0  0.36601368191E-01 -0.42509331751E-01 -0.11948711896E+00  0.13347513605E+00  0.19792344626E-01 0.  0.
         14    1    1    2    0    0 -0.71263926307E-02  0.12766645290E-01  0.18663573001E-01  0.23708683242E-01  0.00000000000E+00 0.  1.
     999901    1    3    3    0    0 -0.29474975560E-01  0.29742686461E-01  0.10082354596E+00  0.88674618071E+00  0.88000000000E+00 0.  1.
        -11    1    4    4    0    0  0.16881066210E-01 -0.29374286274E-01 -0.53151795478E-01  0.63033273546E-01  0.51100000000E-03 0. -1.
         11    1    4    4    0    0  0.19720301981E-01 -0.13135045477E-01 -0.66335323485E-01  0.70441862503E-01  0.51100000000E-03 0.  1.
</event>
<event>
 8    1  0.1161093E+005  0.1043930E+01  0.7957747E-01            NaN
         13   -1    0    0    0    0  0.00000000000E+00  0.00000000000E+00  0.74505805969E-08  0.10566000000E+00  0.10566000000E+00 0. -1.
     999900   -1    0    0    0    0 -0.00000000000E+00 -0.00000000000E+00 -0.74505805969E-08  0.93827000000E+00  0.93827000000E+00 0.  1.
     999902    2    1    2    0    0 -0.23163806037E-01 -0.13180336010E-01 -0.39687817201E-02  0.10169849746E+01  0.10166279576E+01 0.  0.
     999903    2    3    3    0    0  0.11867314435E+00  0.24615962465E-01 -0.20360273449E-01  0.12467619299E+00  0.20984555403E-01 0.  0.
         14    1    1    2    0    0  0.23163806037E-01  0.13180336010E-01  0.39687817201E-02  0.26945025438E-01  0.00000000000E+00 0. -1.
     999901    1    3    3    0    0 -0.14183695039E+00 -0.37796298476E-01  0.16391491728E-01  0.89230878157E+00  0.88000000000E+00 0. -1.
        -11    1    4    4    0    0  0.40582076048E-01  0.15943485274E-01 -0.14216261083E-01  0.45863523842E-01  0.51100000000E-03 0. -1.
         11    1    4    4    0    0  0.78091068301E-01  0.86724771914E-02 -0.61440123658E-02  0.78812669146E-01  0.51100000000E-03 0.  1.
</event>
<event>
 8    1  0.1161093E+005  0.1043930E+01  0.7957747E-01            NaN
         13   -1    0    0    0    0  0.00000000000E+00  0.00000000000E+00  0.74505805969E-08  0.10566000000E+00  0.10566000000E+00 0.  1.
     999900   -1    0    0    0    0 -0.00000000000E+00 -0.00000000000E+00 -0.74505805969E-08  0.93827000000E+00  0.93827000000E+00 0. -1.
     999902    2    1    2    0    0  0.17745512850E-01 -0.12818878116E-01 -0.21561916805E-02  0.10219328178E+01  0.10216960448E+01 0.  0.
     999903    2    3    3    0    0  0.90667154745E-02 -0.12532548783E+00  0.40824633428E-01  0.13368712539E+00  0.20418461501E-01 0.  0.
         14    1    1    2    0    0 -0.17745512850E-01  0.12818878116E-01  0.21561916805E-02  0.21997182206E-01  0.00000000000E+00 0.  1.
     999901    1    3    3    0    0  0.86787973752E-02  0.11250660971E+00 -0.42980825109E-01  0.88824569241E+00  0.88000000000E+00 0. -1.
        -11    1    4    4    0    0 -0.42067521667E-02 -0.78858472516E-01  0.25126511314E-01  0.82873144886E-01  0.51100000000E-03 0.  1.
         11    1    4    4    0    0  0.13273467641E-01 -0.46467015314E-01  0.15698122114E-01  0.50813980501E-01  0.51100000000E-03 0. -1.
</event>
<event>
 8    1  0.1161093E+005  0.1043930E+01  0.7957747E-01            NaN
         13   -1    0    0    0    0  0.00000000000E+00  0.00000000000E+00  0.74505805969E-08  0.10566000000E+00  0.10566000000E+00 0.  1.
     999900   -1    0    0    0    0 -0.00000000000E+00 -0.00000000000E+00 -0.74505805969E-08  0.93827000000E+00  0.93827000000E+00 0. -1.
     999902    2    1    2    0    0 -0.56955776109E-02 -0.15671626678E-01 -0.15410360125E-01  0.10212249634E+01  0.10209725301E+01 0.  0.
     999903    2    3    3    0    0  0.10406634069E+00  0.68381034544E-01  0.28421315232E-01  0.12935403983E+00  0.20467713904E-01 0.  0.
         14    1    1    2    0    0  0.56955776109E-02  0.15671626678E-01  0.15410360125E-01  0.22705036583E-01  0.00000000000E+00 0.  1.
     999901    1    3    3    0    0 -0.10976191830E+00 -0.84052661222E-01 -0.43831675357E-01  0.89187092358E+00  0.88000000000E+00 0. -1.
        -11    1    4    4    0    0  0.74681284376E-01  0.37613258296E-01  0.20033999421E-01  0.85986473875E-01  0.51100000000E-03 0.  1.
         11    1    4    4    0    0  0.29385056312E-01  0.30767776248E-01  0.83873158116E-02  0.43367565959E-01  0.51100000000E-03 0. -1.
</event>
<event>
 8    1  0.1161093E+005  0.1043930E+01  0.7957747E-01            NaN
         13   -1    0    0    0    0  0.00000000000E+00  0.00000000000E+00  0.74505805969E-08  0.10566000000E+00  0.10566000000E+00 0.  1.
     999900   -1    0    0    0    0 -0.00000000000E+00 -0.00000000000E+00 -0.74505805969E-08  0.93827000000E+00  0.93827000000E+00 0. -1.
     999902    2    1    2    0    0 -0.12946364296E-01 -0.32359679581E-02 -0.19095570235E-01  0.10206336346E+01  0.10203677256E+01 0.  0.
     999903    2    3    3    0    0  0.80168433548E-01 -0.98570073977E-01 -0.20821611048E-01  0.13059883948E+00  0.21897035554E-01 0.  0.
         14    1    1    2    0    0  0.12946364296E-01  0.32359679581E-02  0.19095570235E-01  0.23296365375E-01  0.00000000000E+00 0.  1.
     999901    1    3    3    0    0 -0.93114797844E-01  0.95334106019E-01  0.17260408136E-02  0.89003479514E+00  0.88000000000E+00 0.  1.
        -11    1    4    4    0    0  0.51019521204E-01 -0.58089211083E-01 -0.21868912891E-02  0.77345921694E-01  0.51100000000E-03 0.  1.
         11    1    4    4    0    0  0.29148912344E-01 -0.40480862893E-01 -0.18634719759E-01  0.53252917788E-01  0.51100000000E-03 0. -1.
</event>
<event>
 8    1  0.1161093E+005  0.1043930E+01  0.7957747E-01            NaN
         13   -1    0    0    0    0  0.00000000000E+00  0.00000000000E+00  0.74505805969E-08  0.10566000000E+00  0.10566000000E+00 0.  1.
     999900   -1    0    0    0    0 -0.00000000000E+00 -0.00000000000E+00 -0.74505805969E-08  0.93827000000E+00  0.93827000000E+00 0.  1.
     999902    2    1    2    0    0 -0.10545204145E-03  0.13965539632E-01  0.18234264371E-01  0.10209618522E+01  0.10207034671E+01 0.  0.
     999903    2    3    3    0    0 -0.60522137573E-01  0.93256115570E-01  0.71515648649E-01  0.13373241328E+00  0.20254336169E-01 0.  0.
         14    1    1    2    0    0  0.10545204145E-03 -0.13965539632E-01 -0.18234264371E-01  0.22968147825E-01  0.00000000000E+00 0. -1.
     999901    1    3    3    0    0  0.60416685532E-01 -0.79290575938E-01 -0.53281384277E-01  0.88722943889E+00  0.88000000000E+00 0. -1.
        -11    1    4    4    0    0 -0.47018693980E-01  0.57182448522E-01  0.52606086757E-01  0.90819884868E-01  0.51100000000E-03 0.  1.
         11    1    4    4    0    0 -0.13503443593E-01  0.36073667048E-01  0.18909561892E-01  0.42912528417E-01  0.51100000000E-03 0. -1.
</event>
<event>
 8    1  0.1161093E+005  0.1043930E+01  0.7957747E-01            NaN
         13   -1    0    0    0    0  0.00000000000E+00  0.00000000000E+00  0.74505805969E-08  0.10566000000E+00  0.10566000000E+00 0. -1.
     999900   -1    0    0    0    0 -0.00000000000E+00 -0.00000000000E+00 -0.74505805969E-08  0.93827000000E+00  0.93827000000E+00 0. -1.
     999902    2    1    2    0    0  0.90948232071E-02 -0.19698149130E-01  0.90642055184E-02  0.10204163293E+01  0.10201453781E+01 0.  0.
     999903    2    3    3    0    0 -0.10495665107E+00 -0.69542487460E-01  0.32071039640E-01  0.13135980057E+00  0.19359479753E-01 0.  0.
         14    1    1    2    0    0 -0.90948232071E-02  0.19698149130E-01 -0.90642055184E-02  0.23513670704E-01  0.00000000000E+00 0.  1.
     999901    1    3    3    0    0  0.11405147428E+00  0.49844338330E-01 -0.23006834122E-01  0.88905652872E+00  0.88000000000E+00 0.  1.
        -11    1    4    4    0    0 -0.43399237481E-01 -0.33507389324E-01  0.49787462475E-02  0.55057133856E-01  0.51100000000E-03 0.  1.
         11    1    4    4    0    0 -0.61557413592E-01 -0.36035098136E-01  0.27092293392E-01  0.76302666716E-01  0.51100000000E-03 0. -1.
</event>
<event>
 8    1  0.1161093E+005  0.1043930E+01  0.7957747E-01            NaN
         13   -1    0    0    0    0  0.00000000000E+00  0.00000000000E+00  0.74505805969E-08  0.10566000000E+00  0.10566000000E+00 0.  1.
     999900   -1    0    0    0    0 -0.00000000000E+00 -0.00000000000E+00 -0.74505805969E-08  0.93827000000E+00  0.93827000000E+00 0.  1.
     999902    2    1    2    0    0  0.26541294643E-02  0.74596261378E-02  0.22355440690E-01  0.10202138419E+01  0.10199381487E+01 0.  0.
     999903    2    3    3    0    0 -0.13647021853E-01 -0.69048076143E-01 -0.10495471033E+00  0.12761817165E+00  0.17805293857E-01 0.  0.
         14    1    1    2    0    0 -0.26541294643E-02 -0.74596261378E-02 -0.22355440690E-01  0.23716158074E-01  0.00000000000E+00 0. -1.
     999901    1    3    3    0    0  0.16301151318E-01  0.76507702281E-01  0.12731015102E+00  0.89259567028E+00  0.88000000000E+00 0. -1.
        -11    1    4    4    0    0 -0.17919875466E-01 -0.58487515177E-01 -0.87244600689E-01  0.10655417795E+00  0.51100000000E-03 0. -1.
         11    1    4    4    0    0  0.42728536128E-02 -0.10560560965E-01 -0.17710109645E-01  0.21063993699E-01  0.51100000000E-03 0.  1.
</event>
<event>
 8    1  0.1161093E+005  0.1043930E+01  0.7957747E-01            NaN
         13   -1    0    0    0    0  0.00000000000E+00  0.00000000000E+00  0.74505805969E-08  0.10566000000E+00  0.10566000000E+00 0. -1.
     999900   -1    0    0    0    0 -0.00000000000E+00 -0.00000000000E+00 -0.74505805969E-08  0.93827000000E+00  0.93827000000E+00 0. -1.
     999902    2    1    2    0    0  0.22394026448E-01  0.53760868149E-02 -0.54763389461E-02  0.10202575473E+01  0.10199828811E+01 0.  0.
     999903    2    3    3    0    0 -0.10592532164E+00  0.54441221752E-01  0.42808629367E-01  0.12829079860E+00  0.21022128038E-01 0.  0.
         14    1    1    2    0    0 -0.22394026448E-01 -0.53760868149E-02  0.54763389461E-02  0.23672452730E-01  0.00000000000E+00 0. -1.
     999901    1    3    3    0    0  0.12831934809E+00 -0.49065134937E-01 -0.48284968313E-01  0.89196674867E+00  0.88000000000E+00 0.  1.
        -11    1    4    4    0    0 -0.56377325024E-01  0.18663055141E-01  0.15682876530E-01  0.61424149496E-01  0.51100000000E-03 0.  1.
         11    1    4    4    0    0 -0.49547996618E-01  0.35778166610E-01  0.27125752837E-01  0.66866649108E-01  0.51100000000E-03 0. -1.
</event>
<event>
 8    1  0.1161093E+005  0.1043930E+01  0.7957747E-01            NaN
         13   -1    0    0    0    0  0.00000000000E+00  0.00000000000E+00  0.74505805969E-08  0.10566000000E+00  0.10566000000E+00 0.  1.
     999900   -1    0    0    0    0 -0.00000000000E+00 -0.00000000000E+00 -0.74505805969E-08  0.93827000000E+00  0.93827000000E+00 0.  1.
     999902    2    1    2    0    0  0.14027071477E-01 -0.15371249575E-01 -0.48578558907E-03  0.10231148604E+01  0.10229030979E+01 0.  0.
     999903    2    3    3    0    0  0.20367257882E-01 -0.11698340868E+00 -0.60485373942E-01  0.13521555339E+00  0.22909000794E-01 0.  0.
         14    1    1    2    0    0 -0.14027071477E-01  0.15371249575E-01  0.48578558907E-03  0.20815139571E-01  0.00000000000E+00 0.  1.
     999901    1    3    3    0    0 -0.63401864045E-02  0.10161215910E+00  0.59999588353E-01  0.88789930704E+00  0.88000000000E+00 0. -1.
        -11    1    4    4    0    0 -0.99734124980E-03 -0.60983166479E-01 -0.30476065585E-01  0.68183524241E-01  0.51100000000E-03 0. -1.
         11    1    4    4    0    0  0.21364599132E-01 -0.56000242199E-01 -0.30009308357E-01  0.67032029146E-01  0.51100000000E-03 0.  1.
</event>
<event>
 7    1  0.1161093E+005  0.1043930E+01  0.7957747E-01            NaN
         13   -1    0    0    0    0  0.00000000000E+00  0.00000000000E+00  0.74505805969E-08  0.10566000000E+00  0.10566000000E+00 0.  1.
     999900   -1    0    0    0    0 -0.00000000000E+00 -0.00000000000E+00 -0.74505805969E-08  0.93827000000E+00  0.93827000000E+00 0.  1.
     999903    2    1    2    0    0  0.63539500218E-01  0.83488347642E-01 -0.24250335358E-01  0.10943741437E+00  0.19516572912E-01 0.  0.
         14    1    1    2    0    0 -0.39005252768E-02  0.88139723346E-03  0.47964280806E-01  0.48130688669E-01  0.00000000000E+00 0.  1.
     999901    1    1    2    0    0 -0.59638974942E-01 -0.84369744875E-01 -0.23713945449E-01  0.88636189696E+00  0.88000000000E+00 0.  1.
        -11    1    3    3    0    0  0.62263153943E-01  0.72745898243E-01 -0.20113587857E-01  0.97844180141E-01  0.51100000000E-03 0. -1.
         11    1    3    3    0    0  0.12763462755E-02  0.10742449399E-01 -0.41367475009E-02  0.11593234225E-01  0.51100000000E-03 0.  1.
</event>
<event>
 8    1  0.1161093E+005  0.1043930E+01  0.7957747E-01            NaN
         13   -1    0    0    0    0  0.00000000000E+00  0.00000000000E+00  0.74505805969E-08  0.10566000000E+00  0.10566000000E+00 0.  1.
     999900   -1    0    0    0    0 -0.00000000000E+00 -0.00000000000E+00 -0.74505805969E-08  0.93827000000E+00  0.93827000000E+00 0. -1.
     999902    2    1    2    0    0  0.94685122319E-02  0.10289193353E-01  0.17551025057E-01  0.10214898863E+01  0.10212433741E+01 0.  0.
     999903    2    3    3    0    0  0.55369611116E-01 -0.55607362283E-01 -0.10168257957E+00  0.12982519627E+00  0.18901376210E-01 0.  0.
         14    1    1    2    0    0 -0.94685122319E-02 -0.10289193353E-01 -0.17551025057E-01  0.22440113732E-01  0.00000000000E+00 0.  1.
     999901    1    3    3    0    0 -0.45901098884E-01  0.65896555636E-01  0.11923360463E+00  0.89166469000E+00  0.88000000000E+00 0.  1.
        -11    1    4    4    0    0  0.21079260250E-01 -0.95463911170E-02 -0.32815870995E-01  0.40157331911E-01  0.51100000000E-03 0. -1.
         11    1    4    4    0    0  0.34290350866E-01 -0.46060971166E-01 -0.68866708574E-01  0.89667864355E-01  0.51100000000E-03 0.  1.
</event>
<event>
 7    1  0.1161093E+005  0.1043930E+01  0.7957747E-01            NaN
         13   -1    0    0    0    0  0.00000000000E+00  0.00000000000E+00  0.74505805969E-08  0.10566000000E+00  0.10566000000E+00 0. -1.
     999900   -1    0    0    0    0 -0.00000000000E+00 -0.00000000000E+00 -0.74505805969E-08  0.93827000000E+00  0.93827000000E+00 0. -1.
     999902    2    1    2    0    0 -0.20452534125E-01 -0.43014349483E-02 -0.11531712797E-01  0.10200597487E+01  0.10197804186E+01 0.  0.
         14    1    1    2    0    0  0.20452534125E-01  0.43014349483E-02  0.11531712797E-01  0.23870251251E-01  0.00000000000E+00 0.  1.
     999901    1    3    3    0    0 -0.47134110538E-01 -0.12188564120E+00  0.18859142658E-01  0.88985021277E+00  0.88000000000E+00 0.  1.
        -11    1    3    3    0    0 -0.53411390110E-02  0.42125623302E-01  0.87633127729E-03  0.42474992431E-01  0.51100000000E-03 0.  1.
         11    1    3    3    0    0  0.32022715424E-01  0.75458582951E-01 -0.31267186733E-01  0.87734543547E-01  0.51100000000E-03 0. -1.
</event>
<event>
 8    1  0.1161093E+005  0.1043930E+01  0.7957747E-01            NaN
         13   -1    0    0    0    0  0.00000000000E+00  0.00000000000E+00  0.74505805969E-08  0.10566000000E+00  0.10566000000E+00 0. -1.
     999900   -1    0    0    0    0 -0.00000000000E+00 -0.00000000000E+00 -0.74505805969E-08  0.93827000000E+00  0.93827000000E+00 0. -1.
     999902    2    1    2    0    0 -0.76039603334E-02 -0.16721977600E-01  0.16277953535E-01  0.10193858252E+01  0.10190903022E+01 0.  0.
     999903    2    3    3    0    0 -0.81133683245E-01  0.85615186148E-01  0.50851703628E-01  0.12973709704E+00  0.18253326567E-01 0.  0.
         14    1    1    2    0    0  0.76039603334E-02  0.16721977600E-01 -0.16277953535E-01  0.24544174847E-01  0.00000000000E+00 0.  1.
     999901    1    3    3    0    0  0.73529722912E-01 -0.10233716375E+00 -0.34573750093E-01  0.88964872811E+00  0.88000000000E+00 0. -1.
        -11    1    4    4    0    0 -0.36337183411E-01  0.51414666427E-01  0.25315336138E-01  0.67860048532E-01  0.51100000000E-03 0. -1.
         11    1    4    4    0    0 -0.44796499834E-01  0.34200519721E-01  0.25536367490E-01  0.61877048509E-01  0.51100000000E-03 0.  1.
</event>
<event>
 8    1  0.1161093E+005  0.1043930E+01  0.7957747E-01            NaN
         13   -1    0    0    0    0  0.00000000000E+00  0.00000000000E+00  0.74505805969E-08  0.10566000000E+00  0.10566000000E+00 0. -1.
     999900   -1    0    0    0    0 -0.00000000000E+00 -0.00000000000E+00 -0.74505805969E-08  0.93827000000E+00  0.93827000000E+00 0.  1.
     999902    2    1    2    0    0  0.21016787409E-01 -0.18483408343E-02  0.10813757056E-01  0.10202222152E+01  0.10199467189E+01 0.  0.
     999903    2    3    3    0    0 -0.10446379457E+00 -0.40905250601E-01 -0.58074510939E-01  0.12780055922E+00  0.19349682545E-01 0.  0.
         14    1    1    2    0    0 -0.21016787409E-01  0.18483408343E-02 -0.10813757056E-01  0.23707784766E-01  0.00000000000E+00 0.  1.
     999901    1    3    3    0    0  0.12548058198E+00  0.39056909766E-01  0.68888267995E-01  0.89242165601E+00  0.88000000000E+00 0. -1.
        -11    1    4    4    0    0 -0.25461382214E-01 -0.25270651310E-02 -0.17809406175E-01  0.31178584185E-01  0.51100000000E-03 0.  1.
         11    1    4    4    0    0 -0.79002412352E-01 -0.38378185470E-01 -0.40265104764E-01  0.96621975037E-01  0.51100000000E-03 0. -1.
</event>
<event>
 8    1  0.1161093E+005  0.1043930E+01  0.7957747E-01            NaN
         13   -1    0    0    0    0  0.00000000000E+00  0.00000000000E+00  0.74505805969E-08  0.10566000000E+00  0.10566000000E+00 0. -1.
     999900   -1    0    0    0    0 -0.00000000000E+00 -0.00000000000E+00 -0.74505805969E-08  0.93827000000E+00  0.93827000000E+00 0.  1.
     999902    2    1    2    0    0  0.17322782157E-03  0.18934449051E-01 -0.14640930990E-01  0.10199946657E+01  0.10197137921E+01 0.  0.
     999903    2    3    3    0    0  0.92991271006E-01  0.49516448584E-01 -0.77458724714E-01  0.13235931091E+00  0.20490924472E-01 0.  0.
         14    1    1    2    0    0 -0.17322782157E-03 -0.18934449051E-01  0.14640930990E-01  0.23935334320E-01  0.00000000000E+00 0. -1.
     999901    1    3    3    0    0 -0.92818043184E-01 -0.30581999533E-01  0.62817793723E-01  0.88763535477E+00  0.88000000000E+00 0.  1.
        -11    1    4    4    0    0  0.77961181916E-01  0.43417285821E-01 -0.73613376088E-01  0.11568144559E+00  0.51100000000E-03 0. -1.
         11    1    4    4    0    0  0.15030089089E-01  0.60991627626E-02 -0.38453486259E-02  0.16677865316E-01  0.51100000000E-03 0.  1.
</event>
<event>
 8    1  0.1161093E+005  0.1043930E+01  0.7957747E-01            NaN
         13   -1    0    0    0    0  0.00000000000E+00  0.00000000000E+00  0.74505805969E-08  0.10566000000E+00  0.10566000000E+00 0.  1.
     999900   -1    0    0    0    0 -0.00000000000E+00 -0.00000000000E+00 -0.74505805969E-08  0.93827000000E+00  0.93827000000E+00 0.  1.
     999902    2    1    2    0    0  0.31436085607E-02 -0.22977841528E-01  0.24826163204E-02  0.10206056166E+01  0.10203390602E+01 0.  0.
     999903    2    3    3    0    0  0.47577914908E-01 -0.54867394314E-01  0.10893666127E+00  0.13250437530E+00  0.20399126395E-01 0.  0.
         14    1    1    2    0    0 -0.31436085607E-02  0.22977841528E-01 -0.24826163204E-02  0.23324383376E-01  0.00000000000E+00 0.  1.
     999901    1    3    3    0    0 -0.44434306348E-01  0.31889552786E-01 -0.10645404495E+00  0.88810124133E+00  0.88000000000E+00 0.  1.
        -11    1    4    4    0    0  0.67506592947E-02  0.18558820663E-03  0.77988856761E-02  0.10329064947E-01  0.51100000000E-03 0. -1.
         11    1    4    4    0    0  0.40827255614E-01 -0.55052982521E-01  0.10113777560E+00  0.12217531035E+00  0.51100000000E-03 0.  1.
</event>
<event>
 8    1  0.1161093E+005  0.1043930E+01  0.7957747E-01            NaN
         13   -1    0    0    0    0  0.00000000000E+00  0.00000000000E+00  0.74505805969E-08  0.10566000000E+00  0.10566000000E+00 0. -1.
     999900   -1    0    0    0    0 -0.00000000000E+00 -0.00000000000E+00 -0.74505805969E-08  0.93827000000E+00  0.93827000000E+00 0.  1.
     999902    2    1    2    0    0  0.21878267899E-01 -0.77920763046E-02  0.14392290324E-02  0.10206609983E+01  0.10203957208E+01 0.  0.
     999903    2    3    3    0    0 -0.11604122719E+00 -0.51913189201E-01  0.35393130808E-02  0.12882420266E+00  0.20557306029E-01 0.  0.
         14    1    1    2    0    0 -0.21878267899E-01  0.77920763046E-02 -0.14392290324E-02  0.23269001689E-01  0.00000000000E+00 0. -1.
     999901    1    3    3    0    0  0.13791949509E+00  0.44121112897E-01 -0.21000840484E-02  0.89183679565E+00  0.88000000000E+00 0. -1.
        -11    1    4    4    0    0 -0.63179113654E-01 -0.23598703086E-01 -0.74539213580E-02  0.67855149061E-01  0.51100000000E-03 0.  1.
         11    1    4    4    0    0 -0.52862113540E-01 -0.28314486116E-01  0.10993234439E-01  0.60969053595E-01  0.51100000000E-03 0. -1.
</event>
<event>
 8    1  0.1161093E+005  0.1043930E+01  0.7957747E-01            NaN
         13   -1    0    0    0    0  0.00000000000E+00  0.00000000000E+00  0.74505805969E-08  0.10566000000E+00  0.10566000000E+00 0.  1.
     999900   -1    0    0    0    0 -0.00000000000E+00 -0.00000000000E+00 -0.74505805969E-08  0.93827000000E+00  0.93827000000E+00 0.  1.
     999902    2    1    2    0    0  0.17667400507E-01 -0.11457894609E-01 -0.37170106734E-02  0.10225469095E+01  0.10223233078E+01 0.  0.
     999903    2    3    3    0    0 -0.44325541771E-01 -0.78028560585E-01  0.95182314243E-01  0.13234701348E+00  0.20071101434E-01 0.  0.
         14    1    1    2    0    0 -0.17667400507E-01  0.11457894609E-01  0.37170106734E-02  0.21383090467E-01  0.00000000000E+00 0. -1.
     999901    1    3    3    0    0  0.61992942279E-01  0.66570665976E-01 -0.98899324916E-01  0.89019989605E+00  0.88000000000E+00 0.  1.
        -11    1    4    4    0    0 -0.31783808149E-01 -0.50622558809E-01  0.75700965889E-01  0.96455955122E-01  0.51100000000E-03 0.  1.
         11    1    4    4    0    0 -0.12541733623E-01 -0.27406001775E-01  0.19481348353E-01  0.35891058360E-01  0.51100000000E-03 0. -1.
</event>
<event>
 8    1  0.1161093E+005  0.1043930E+01  0.7957747E-01            NaN
         13   -1    0    0    0    0  0.00000000000E+00  0.00000000000E+00  0.74505805969E-08  0.10566000000E+00  0.10566000000E+00 0.  1.
     999900   -1    0    0    0    0 -0.00000000000E+00 -0.00000000000E+00 -0.74505805969E-08  0.93827000000E+00  0.93827000000E+00 0. -1.
     999902    2    1    2    0    0  0.14407136586E-01  0.85615119771E-02 -0.17850752369E-01  0.10194450162E+01  0.10191509342E+01 0.  0.
     999903    2    3    3    0    0 -0.25625148915E-01 -0.18260630385E-01 -0.12606304966E+00  0.13150813077E+00  0.20307562391E-01 0.  0.
         14    1    1    2    0    0 -0.14407136586E-01 -0.85615119771E-02  0.17850752369E-01  0.24484983808E-01  0.00000000000E+00 0.  1.
     999901    1    3    3    0    0  0.40032285501E-01  0.26822142362E-01  0.10821229729E+00  0.88793688542E+00  0.88000000000E+00 0.  1.
        -11    1    4    4    0    0 -0.20349352003E-01 -0.33310382853E-02 -0.56044904528E-01  0.59720050130E-01  0.51100000000E-03 0. -1.
         11    1    4    4    0    0 -0.52757969124E-02 -0.14929592100E-01 -0.70018145134E-01  0.71788080643E-01  0.51100000000E-03 0.  1.
</event>
<event>
 8    1  0.1161093E+005  0.1043930E+01  0.7957747E-01            NaN
         13   -1    0    0    0    0  0.00000000000E+00  0.00000000000E+00  0.74505805969E-08  0.10566000000E+00  0.10566000000E+00 0. -1.
     999900   -1    0    0    0    0 -0.00000000000E+00 -0.00000000000E+00 -0.74505805969E-08  0.93827000000E+00  0.93827000000E+00 0.  1.
     999902    2    1    2    0    0  0.10053420503E-02 -0.15754784959E-01  0.17745074614E-01  0.10201789656E+01  0.10199024513E+01 0.  0.
     999903    2    3    3    0    0 -0.12085897985E+00  0.28168029410E-01  0.35224320248E-01  0.13052417266E+00  0.19886578912E-01 0.  0.
         14    1    1    2    0    0 -0.10053420503E-02  0.15754784959E-01 -0.17745074614E-01  0.23751034394E-01  0.00000000000E+00 0.  1.
     999901    1    3    3    0    0  0.12186432190E+00 -0.43922814369E-01 -0.17479245634E-01  0.88965479294E+00  0.88000000000E+00 0.  1.
        -11    1    4    4    0    0 -0.50925199990E-01  0.66103384262E-02  0.23231394742E-01  0.56365161144E-01  0.51100000000E-03 0.  1.
         11    1    4    4    0    0 -0.69933779863E-01  0.21557690984E-01  0.11992925506E-01  0.74159011521E-01  0.51100000000E-03 0. -1.
</event>
<event>
 8    1  0.1161093E+005  0.1043930E+01  0.7957747E-01            NaN
         13   -1    0    0    0    0  0.00000000000E+00  0.00000000000E+00  0.74505805969E-08  0.10566000000E+00  0.10566000000E+00 0.  1.
     999900   -1    0    0    0    0 -0.00000000000E+00 -0.00000000000E+00 -0.74505805969E-08  0.93827000000E+00  0.93827000000E+00 0. -1.
     999902    2    1    2    0    0  0.20721679725E-01  0.11322609976E-01  0.52837403231E-02  0.10197327394E+01  0.10194456103E+01 0.  0.
     999903    2    3    3    0    0 -0.33451503344E-01 -0.12203701461E+00  0.38576635571E-02  0.12803685129E+00  0.19144652197E-01 0.  0.
         14    1    1    2    0    0 -0.20721679725E-01 -0.11322609976E-01 -0.52837403231E-02  0.24197260570E-01  0.00000000000E+00 0. -1.
     999901    1    3    3    0    0  0.54173183069E-01  0.13335962459E+00  0.14260767661E-02  0.89169588814E+00  0.88000000000E+00 0. -1.
        -11    1    4    4    0    0 -0.28592873154E-01 -0.11859788105E+00  0.39635333305E-02  0.12206138006E+00  0.51100000000E-03 0. -1.
         11    1    4    4    0    0 -0.48586301899E-02 -0.34391335662E-02 -0.10586977345E-03  0.59754712297E-02  0.51100000000E-03 0.  1.
</event>
<event>
 8    1  0.1161093E+005  0.1043930E+01  0.7957747E-01            NaN
         13   -1    0    0    0    0  0.00000000000E+00  0.00000000000E+00  0.74505805969E-08  0.10566000000E+00  0.10566000000E+00 0. -1.
     999900   -1    0    0    0    0 -0.00000000000E+00 -0.00000000000E+00 -0.74505805969E-08  0.93827000000E+00  0.93827000000E+00 0.  1.
     999902    2    1    2    0    0 -0.20971863514E-01 -0.10235166368E-01  0.59202775053E-02  0.10198545483E+01  0.10195703371E+01 0.  0.
     999903    2    3    3    0    0  0.10822503469E+00 -0.62064523715E-01 -0.23899782695E-01  0.12841337985E+00  0.18818429073E-01 0.  0.
         14    1    1    2    0    0  0.20971863514E-01  0.10235166368E-01 -0.59202775053E-02  0.24075451721E-01  0.00000000000E+00 0.  1.
     999901    1    3    3    0    0 -0.12919689820E+00  0.51829357347E-01  0.29820060200E-01  0.89144116843E+00  0.88000000000E+00 0. -1.
        -11    1    4    4    0    0  0.99375679490E-01 -0.62068675573E-01 -0.23735167443E-01  0.11954775387E+00  0.51100000000E-03 0. -1.
         11    1    4    4    0    0  0.88493552005E-02  0.41518584681E-05 -0.16461525106E-03  0.88656259725E-02  0.51100000000E-03 0.  1.
</event>
<event>
 8    1  0.1161093E+005  0.1043930E+01  0.7957747E-01            NaN
         13   -1    0    0    0    0  0.00000000000E+00  0.00000000000E+00  0.74505805969E-08  0.10566000000E+00  0.10566000000E+00 0. -1.
     999900   -1    0    0    0    0 -0.00000000000E+00 -0.00000000000E+00 -0.74505805969E-08  0.93827000000E+00  0.93827000000E+00 0. -1.
     999902    2    1    2    0    0  0.19083482934E-02  0.55816647588E-02  0.22453449472E-01  0.10207146136E+01  0.10204505711E+01 0.  0.
     999903    2    3    3    0    0  0.12971289244E+00 -0.33162703156E-04  0.58776260274E-02  0.13131015791E+00  0.19554424535E-01 0.  0.
         14    1    1    2    0    0 -0.19083482934E-02 -0.55816647588E-02 -0.22453449472E-01  0.23215386447E-01  0.00000000000E+00 0.  1.
     999901    1    3    3    0    0 -0.12780454414E+00  0.56148274620E-02  0.16575823445E-01  0.88940445564E+00  0.88000000000E+00 0.  1.
        -11    1    4    4    0    0  0.95678323255E-01  0.76865183070E-02  0.81508895135E-02  0.96333391020E-01  0.51100000000E-03 0. -1.
         11    1    4    4    0    0  0.34034569182E-01 -0.77196810102E-02 -0.22732634862E-02  0.34976766891E-01  0.51100000000E-03 0.  1.
</event>
<event>
 8    1  0.1161093E+005  0.1043930E+01  0.7957747E-01            NaN
         13   -1    0    0    0    0  0.00000000000E+00  0.00000000000E+00  0.74505805969E-08  0.10566000000E+00  0.10566000000E+00 0. -1.
     999900   -1    0    0    0    0 -0.00000000000E+00 -0.00000000000E+00 -0.74505805969E-08  0.93827000000E+00  0.93827000000E+00 0. -1.
     999902    2    1    2    0    0 -0.19288252560E-01  0.74658611052E-02 -0.11471530595E-01  0.10202789581E+01  0.10200047944E+01 0.  0.
     999903    2    3    3    0    0 -0.34768114531E-01  0.12226590722E+00 -0.31575374640E-01  0.13245980914E+00  0.19769241205E-01 0.  0.
         14    1    1    2    0    0  0.19288252560E-01 -0.74658611052E-02  0.11471530595E-01  0.23651041902E-01  0.00000000000E+00 0. -1.
     999901    1    3    3    0    0  0.15479861971E-01 -0.11480004611E+00  0.20103844046E-01  0.88781914896E+00  0.88000000000E+00 0. -1.
        -11    1    4    4    0    0 -0.35026079221E-01  0.11293215807E+00 -0.33538252424E-01  0.12290473566E+00  0.51100000000E-03 0.  1.
         11    1    4    4    0    0  0.25796468988E-03  0.93337491468E-02  0.19628777838E-02  0.95550734749E-02  0.51100000000E-03 0. -1.
</event>
<event>
 8    1  0.1217611E+005  0.1043930E+01  0.7957747E-01            NaN
         13   -1    0    0    0    0  0.00000000000E+00  0.00000000000E+00  0.74505805969E-08  0.10566000000E+00  0.10566000000E+00 0. -1.
     999900   -1    0    0    0    0 -0.00000000000E+00 -0.00000000000E+00 -0.74505805969E-08  0.93827000000E+00  0.93827000000E+00 0. -1.
     999902    2    1    2    0    0  0.18848931689E-01 -0.42323537560E-03 -0.14528315238E-01  0.10201280400E+01  0.10198503247E+01 0.  0.
     999903    2    3    3    0    0  0.52044412215E-01 -0.57675610725E-02  0.11696365892E+00  0.12972327759E+00  0.20143128730E-01 0.  0.
         14    1    1    2    0    0 -0.18848931689E-01  0.42323537560E-03  0.14528315238E-01  0.23801959954E-01  0.00000000000E+00 0. -1.
     999901    1    3    3    0    0 -0.33195480526E-01  0.53443256969E-02 -0.13149197416E+00  0.89040476246E+00  0.88000000000E+00 0. -1.
        -11    1    4    4    0    0  0.35368247277E-01  0.50765383761E-02  0.66805427679E-01  0.75762196679E-01  0.51100000000E-03 0. -1.
         11    1    4    4    0    0  0.16676164938E-01 -0.10844099449E-01  0.50158231246E-01  0.53961080906E-01  0.51100000000E-03 0.  1.
</event>
<event>
 8    1  0.1161093E+005  0.1043930E+01  0.7957747E-01            NaN
         13   -1    0    0    0    0  0.00000000000E+00  0.00000000000E+00  0.74505805969E-08  0.10566000000E+00  0.10566000000E+00 0. -1.
     999900   -1    0    0    0    0 -0.00000000000E+00 -0.00000000000E+00 -0.74505805969E-08  0.93827000000E+00  0.93827000000E+00 0. -1.
     999902    2    1    2    0    0  0.65470314491E-03 -0.21537607983E-01  0.10669581639E-01  0.10198855169E+01  0.10196020451E+01 0.  0.
     999903    2    3    3    0    0 -0.42996177895E-01  0.76546215122E-01  0.92527907593E-01  0.12958971142E+00  0.22892908515E-01 0.  0.
         14    1    1    2    0    0 -0.65470314491E-03  0.21537607983E-01 -0.10669581639E-01  0.24044483072E-01  0.00000000000E+00 0.  1.
     999901    1    3    3    0    0  0.43650881039E-01 -0.98083823105E-01 -0.81858325954E-01  0.89029580550E+00  0.88000000000E+00 0. -1.
        -11    1    4    4    0    0 -0.38730902774E-01  0.77176609496E-01  0.87266012747E-01  0.12276778887E+00  0.51100000000E-03 0.  1.
         11    1    4    4    0    0 -0.42652751206E-02 -0.63039437357E-03  0.52618948460E-02  0.68219225510E-02  0.51100000000E-03 0. -1.
</event>
<event>
 8    1  0.1161093E+005  0.1043930E+01  0.7957747E-01            NaN
         13   -1    0    0    0    0  0.00000000000E+00  0.00000000000E+00  0.74505805969E-08  0.10566000000E+00  0.10566000000E+00 0. -1.
     999900   -1    0    0    0    0 -0.00000000000E+00 -0.00000000000E+00 -0.74505805969E-08  0.93827000000E+00  0.93827000000E+00 0. -1.
     999902    2    1    2    0    0 -0.79122487580E-02  0.12210250516E-02  0.22938395083E-01  0.10196346393E+01  0.10193451492E+01 0.  0.
     999903    2    3    3    0    0  0.10161827411E-01  0.12635343452E+00 -0.18704607754E-01  0.12962400351E+00  0.19597621871E-01 0.  0.
         14    1    1    2    0    0  0.79122487580E-02 -0.12210250516E-02 -0.22938395083E-01  0.24295360701E-01  0.00000000000E+00 0.  1.
     999901    1    3    3    0    0 -0.18074076169E-01 -0.12513240947E+00  0.41643002837E-01  0.89001063579E+00  0.88000000000E+00 0.  1.
        -11    1    4    4    0    0  0.81789750774E-02  0.32663805842E-01 -0.11699616176E-01  0.35650553783E-01  0.51100000000E-03 0.  1.
         11    1    4    4    0    0  0.19828523336E-02  0.93689628681E-01 -0.70049915780E-02  0.93973449728E-01  0.51100000000E-03 0. -1.
</event>
<event>
 8    1  0.1161093E+005  0.1043930E+01  0.7957747E-01            NaN
         13   -1    0    0    0    0  0.00000000000E+00  0.00000000000E+00  0.74505805969E-08  0.10566000000E+00  0.10566000000E+00 0. -1.
     999900   -1    0    0    0    0 -0.00000000000E+00 -0.00000000000E+00 -0.74505805969E-08  0.93827000000E+00  0.93827000000E+00 0.  1.
     999902    2    1    2    0    0 -0.17384335707E-01 -0.10076099273E-01 -0.11613426404E-01  0.10207219286E+01  0.10204580545E+01 0.  0.
     999903    2    3    3    0    0 -0.12827279658E-01 -0.96679161457E-01 -0.88430360151E-01  0.13312872312E+00  0.19797195723E-01 0.  0.
         14    1    1    2    0    0  0.17384335707E-01  0.10076099273E-01  0.11613426404E-01  0.23208071384E-01  0.00000000000E+00 0.  1.
     999901    1    3    3    0    0 -0.45570560485E-02  0.86603062184E-01  0.76816933747E-01  0.88759320550E+00  0.88000000000E+00 0. -1.
        -11    1    4    4    0    0  0.17056650481E-02 -0.60141535480E-01 -0.54856146679E-01  0.81420952664E-01  0.51100000000E-03 0. -1.
         11    1    4    4    0    0 -0.14532944707E-01 -0.36537625977E-01 -0.33574213472E-01  0.51707770452E-01  0.51100000000E-03 0.  1.
</event>
<event>
 8    1  0.1161093E+005  0.1043930E+01  0.7957747E-01            NaN
         13   -1    0    0    0    0  0.00000000000E+00  0.00000000000E+00  0.74505805969E-08  0.10566000000E+00  0.10566000000E+00 0.  1.
     999900   -1    0    0    0    0 -0.00000000000E+00 -0.00000000000E+00 -0.74505805969E-08  0.93827000000E+00  0.93827000000E+00 0. -1.
     999902    2    1    2    0    0  0.14722825399E-01  0.72935908610E-02 -0.16896343263E-01  0.10203621305E+01  0.10200899142E+01 0.  0.
     999903    2    3    3    0    0 -0.89015772117E-01 -0.87580948854E-01 -0.25499440326E-01  0.12916244013E+00  0.20940014225E-01 0.  0.
         14    1    1    2    0    0 -0.14722825399E-01 -0.72935908610E-02  0.16896343263E-01  0.23567869464E-01  0.00000000000E+00 0. -1.
     999901    1    3    3    0    0  0.10373859752E+00  0.94874539715E-01  0.86030970623E-02  0.89119969041E+00  0.88000000000E+00 0.  1.
        -11    1    4    4    0    0 -0.64811302327E-01 -0.49869689874E-01 -0.17772316780E-01  0.83687557272E-01  0.51100000000E-03 0. -1.
         11    1    4    4    0    0 -0.24204469790E-01 -0.37711258980E-01 -0.77271235455E-02  0.45474882859E-01  0.51100000000E-03 0.  1.
</event>
<event>
 8    1  0.1161093E+005  0.1043930E+01  0.7957747E-01            NaN
         13   -1    0    0    0    0  0.00000000000E+00  0.00000000000E+00  0.74505805969E-08  0.10566000000E+00  0.10566000000E+00 0.  1.
     999900   -1    0    0    0    0 -0.00000000000E+00 -0.00000000000E+00 -0.74505805969E-08  0.93827000000E+00  0.93827000000E+00 0. -1.
     999902    2    1    2    0    0  0.19833622369E-02 -0.22241423829E-01 -0.78098136907E-02  0.10202739680E+01  0.10199996872E+01 0.  0.
     999903    2    3    3    0    0 -0.17737492346E-02  0.30106680005E-01 -0.12577797172E+00  0.13085228727E+00  0.19815765063E-01 0.  0.
         14    1    1    2    0    0 -0.19833622369E-02  0.22241423829E-01  0.78098136907E-02  0.23656031992E-01  0.00000000000E+00 0. -1.
     999901    1    3    3    0    0  0.37571114715E-02 -0.52348103834E-01  0.11796815803E+00  0.88942168074E+00  0.88000000000E+00 0.  1.
        -11    1    4    4    0    0  0.14572958711E-02  0.31913864249E-01 -0.10547543893E+00  0.11020865565E+00  0.51100000000E-03 0. -1.
         11    1    4    4    0    0 -0.32310451056E-02 -0.18071842443E-02 -0.20302532796E-01  0.20643631616E-01  0.51100000000E-03 0.  1.
</event>
<event>
 8    1  0.1161093E+005  0.1043930E+01  0.7957747E-01            NaN
         13   -1    0    0    0    0  0.00000000000E+00  0.00000000000E+00  0.74505805969E-08  0.10566000000E+00  0.10566000000E+00 0. -1.
     999900   -1    0    0    0    0 -0.00000000000E+00 -0.00000000000E+00 -0.74505805969E-08  0.93827000000E+00  0.93827000000E+00 0.  1.
     999902    2    1    2    0    0 -0.27933925760E-02 -0.17452978225E-02  0.22691096015E-01  0.10210010893E+01  0.10207435963E+01 0.  0.
     999903    2    3    3    0    0 -0.30408071682E-01  0.98811579538E-01 -0.75423955223E-01  0.12942898379E+00  0.19357421019E-01 0.  0.
         14    1    1    2    0    0  0.27933925760E-02  0.17452978225E-02 -0.22691096015E-01  0.22928910679E-01  0.00000000000E+00 0.  1.
     999901    1    3    3    0    0  0.27614679106E-01 -0.10055687736E+00  0.98115051238E-01  0.89157210553E+00  0.88000000000E+00 0.  1.
        -11    1    4    4    0    0 -0.22387822527E-01  0.40195420716E-01 -0.32420486846E-01  0.56287081399E-01  0.51100000000E-03 0.  1.
         11    1    4    4    0    0 -0.80202491542E-02  0.58616158822E-01 -0.43003468377E-01  0.73141902388E-01  0.51100000000E-03 0. -1.
</event>
<event>
 8    1  0.1280236E+005  0.1043930E+01  0.7957747E-01            NaN
         13   -1    0    0    0    0  0.00000000000E+00  0.00000000000E+00  0.74505805969E-08  0.10566000000E+00  0.10566000000E+00 0.  1.
     999900   -1    0    0    0    0 -0.00000000000E+00 -0.00000000000E+00 -0.74505805969E-08  0.93827000000E+00  0.93827000000E+00 0. -1.
     999902    2    1    2    0    0  0.21929914337E-01 -0.34290948458E-02 -0.71383368280E-02  0.10206140036E+01  0.10203476411E+01 0.  0.
     999903    2    3    3    0    0 -0.65584670256E-01  0.10804078266E+00 -0.17315075782E-01  0.12921740159E+00  0.20570982808E-01 0.  0.
         14    1    1    2    0    0 -0.21929914337E-01  0.34290948458E-02  0.71383368280E-02  0.23315996375E-01  0.00000000000E+00 0.  1.
     999901    1    3    3    0    0  0.87514584593E-01 -0.11146987750E+00  0.10176738954E-01  0.89139660204E+00  0.88000000000E+00 0. -1.
        -11    1    4    4    0    0 -0.56084962060E-01  0.77164971665E-01 -0.87644352809E-02  0.95796828069E-01  0.51100000000E-03 0.  1.
         11    1    4    4    0    0 -0.94997081961E-02  0.30875810994E-01 -0.85506405014E-02  0.33420573519E-01  0.51100000000E-03 0. -1.
</event>
<event>
 8    1  0.1161093E+005  0.1043930E+01  0.7957747E-01            NaN
         13   -1    0    0    0    0  0.00000000000E+00  0.00000000000E+00  0.74505805969E-08  0.10566000000E+00  0.10566000000E+00 0. -1.
     999900   -1    0    0    0    0 -0.00000000000E+00 -0.00000000000E+00 -0.74505805969E-08  0.93827000000E+00  0.93827000000E+00 0.  1.
     999902    2    1    2    0    0 -0.20918559360E-01 -0.84538038905E-02  0.72982432198E-02  0.10202167699E+01  0.10199411455E+01 0.  0.
     999903    2    3    3    0    0 -0.11819090843E+00 -0.25460435717E-01 -0.50329162531E-01  0.13282054879E+00  0.22157368002E-01 0.  0.
         14    1    1    2    0    0  0.20918559360E-01  0.84538038905E-02 -0.72982432198E-02  0.23713230062E-01  0.00000000000E+00 0.  1.
     999901    1    3    3    0    0  0.97272349069E-01  0.17006631827E-01  0.57627405751E-01  0.88739622115E+00  0.88000000000E+00 0. -1.
        -11    1    4    4    0    0 -0.33723835656E-01 -0.59369517287E-02 -0.38784811148E-02  0.34465174074E-01  0.51100000000E-03 0. -1.
         11    1    4    4    0    0 -0.84467072772E-01 -0.19523483989E-01 -0.46450681416E-01  0.98355374712E-01  0.51100000000E-03 0.  1.
</event>
<event>
 8    1  0.1161093E+005  0.1043930E+01  0.7957747E-01            NaN
         13   -1    0    0    0    0  0.00000000000E+00  0.00000000000E+00  0.74505805969E-08  0.10566000000E+00  0.10566000000E+00 0.  1.
     999900   -1    0    0    0    0 -0.00000000000E+00 -0.00000000000E+00 -0.74505805969E-08  0.93827000000E+00  0.93827000000E+00 0.  1.
     999902    2    1    2    0    0 -0.17393229301E-01 -0.14124702393E-01 -0.78846835007E-02  0.10201771080E+01  0.10199005500E+01 0.  0.
     999903    2    3    3    0    0 -0.10381536700E+00 -0.78348181268E-01 -0.18641755269E-02  0.13359395477E+00  0.30459836956E-01 0.  0.
         14    1    1    2    0    0  0.17393229301E-01  0.14124702393E-01  0.78846835007E-02  0.23752891973E-01  0.00000000000E+00 0. -1.
     999901    1    3    3    0    0  0.86422137699E-01  0.64223478875E-01 -0.60205079738E-02  0.88658315326E+00  0.88000000000E+00 0.  1.
        -11    1    4    4    0    0 -0.58344414989E-01 -0.37248325236E-01 -0.15184310506E-01  0.70868419622E-01  0.51100000000E-03 0.  1.
         11    1    4    4    0    0 -0.45470952011E-01 -0.41099856032E-01  0.13320134979E-01  0.62725535147E-01  0.51100000000E-03 0. -1.
</event>
<event>
 8    1  0.1161093E+005  0.1043930E+01  0.7957747E-01            NaN
         13   -1    0    0    0    0  0.00000000000E+00  0.00000000000E+00  0.74505805969E-08  0.10566000000E+00  0.10566000000E+00 0.  1.
     999900   -1    0    0    0    0 -0.00000000000E+00 -0.00000000000E+00 -0.74505805969E-08  0.93827000000E+00  0.93827000000E+00 0.  1.
     999902    2    1    2    0    0  0.24284453578E-01  0.41591316044E-03 -0.16456436010E-02  0.10195862983E+01  0.10192956411E+01 0.  0.
     999903    2    3    3    0    0  0.80246973645E-01  0.10140253565E+00  0.15719580987E-01  0.13187482908E+00  0.20538118291E-01 0.  0.
         14    1    1    2    0    0 -0.24284453578E-01 -0.41591316044E-03  0.16456436010E-02  0.24343701694E-01  0.00000000000E+00 0.  1.
     999901    1    3    3    0    0 -0.55962520068E-01 -0.10098662249E+00 -0.17365224588E-01  0.88771146923E+00  0.88000000000E+00 0. -1.
        -11    1    4    4    0    0  0.19746689925E-01  0.22253436770E-01  0.12281101487E-01  0.32190585360E-01  0.51100000000E-03 0.  1.
         11    1    4    4    0    0  0.60500283721E-01  0.79149098877E-01  0.34384794998E-02  0.99684243718E-01  0.51100000000E-03 0. -1.
</event>
<event>
 8    1  0.1161093E+005  0.1043930E+01  0.7957747E-01            NaN
         13   -1    0    0    0    0  0.00000000000E+00  0.00000000000E+00  0.74505805969E-08  0.10566000000E+00  0.10566000000E+00 0.  1.
     999900   -1    0    0    0    0 -0.00000000000E+00 -0.00000000000E+00 -0.74505805969E-08  0.93827000000E+00  0.93827000000E+00 0.  1.
     999902    2    1    2    0    0  0.61536039392E-02  0.17956591597E-01 -0.14397622929E-01  0.10201056937E+01  0.10198274505E+01 0.  0.
     999903    2    3    3    0    0 -0.10976075163E+00 -0.63052383681E-01 -0.13114121746E-01  0.12881436129E+00  0.19953290435E-01 0.  0.
         14    1    1    2    0    0 -0.61536039392E-02 -0.17956591597E-01  0.14397622929E-01  0.23824306270E-01  0.00000000000E+00 0.  1.
     999901    1    3    3    0    0  0.11591435557E+00  0.81008975278E-01 -0.12835011829E-02  0.89129133244E+00  0.88000000000E+00 0. -1.
        -11    1    4    4    0    0 -0.21208057251E-01 -0.62341226273E-02  0.32022600036E-02  0.22341923987E-01  0.51100000000E-03 0.  1.
         11    1    4    4    0    0 -0.88552694382E-01 -0.56818261053E-01 -0.16316381750E-01  0.10647243731E+00  0.51100000000E-03 0. -1.
</event>
<event>
 8    1  0.1161093E+005  0.1043930E+01  0.7957747E-01            NaN
         13   -1    0    0    0    0  0.00000000000E+00  0.00000000000E+00  0.74505805969E-08  0.10566000000E+00  0.10566000000E+00 0. -1.
     999900   -1    0    0    0    0 -0.00000000000E+00 -0.00000000000E+00 -0.74505805969E-08  0.93827000000E+00  0.93827000000E+00 0. -1.
     999902    2    1    2    0    0  0.81829518801E-02  0.10159751147E-01 -0.20276162109E-01  0.10198197533E+01  0.10195347102E+01 0.  0.
     999903    2    3    3    0    0  0.31494435977E-01  0.12397190941E+00  0.21250154108E-01  0.13121350329E+00  0.20111702475E-01 0.  0.
         14    1    1    2    0    0 -0.81829518801E-02 -0.10159751147E-01  0.20276162109E-01  0.24110246675E-01  0.00000000000E+00 0.  1.
     999901    1    3    3    0    0 -0.23311484096E-01 -0.11381215826E+00 -0.41526316217E-01  0.88860625003E+00  0.88000000000E+00 0. -1.
        -11    1    4    4    0    0  0.28012903124E-01  0.76089178709E-01  0.18224329713E-01  0.83106396701E-01  0.51100000000E-03 0.  1.
         11    1    4    4    0    0  0.34815328523E-02  0.47882730700E-01  0.30258243946E-02  0.48107106591E-01  0.51100000000E-03 0. -1.
</event>
<event>
 8    1  0.1161093E+005  0.1043930E+01  0.7957747E-01            NaN
         13   -1    0    0    0    0  0.00000000000E+00  0.00000000000E+00  0.74505805969E-08  0.10566000000E+00  0.10566000000E+00 0.  1.
     999900   -1    0    0    0    0 -0.00000000000E+00 -0.00000000000E+00 -0.74505805969E-08  0.93827000000E+00  0.93827000000E+00 0.  1.
     999902    2    1    2    0    0  0.13748568828E-01  0.20915195864E-01  0.11956388084E-01  0.10161915109E+01  0.10158128583E+01 0.  0.
     999903    2    3    3    0    0 -0.81164369960E-01 -0.90573765739E-01  0.19990345057E-02  0.12403827101E+00  0.24294743170E-01 0.  0.
         14    1    1    2    0    0 -0.13748568828E-01 -0.20915195864E-01 -0.11956388084E-01  0.27738489124E-01  0.00000000000E+00 0. -1.
     999901    1    3    3    0    0  0.94912938788E-01  0.11148896160E+00  0.99573535783E-02  0.89215323986E+00  0.88000000000E+00 0.  1.
        -11    1    4    4    0    0 -0.22322898972E-01 -0.10618652561E-01 -0.55010158971E-03  0.24731181401E-01  0.51100000000E-03 0. -1.
         11    1    4    4    0    0 -0.58841470988E-01 -0.79955113178E-01  0.25491360954E-02  0.99307089612E-01  0.51100000000E-03 0.  1.
</event>
<event>
 8    1  0.1161093E+005  0.1043930E+01  0.7957747E-01            NaN
         13   -1    0    0    0    0  0.00000000000E+00  0.00000000000E+00  0.74505805969E-08  0.10566000000E+00  0.10566000000E+00 0. -1.
     999900   -1    0    0    0    0 -0.00000000000E+00 -0.00000000000E+00 -0.74505805969E-08  0.93827000000E+00  0.93827000000E+00 0.  1.
     999902    2    1    2    0    0 -0.18830135145E-01 -0.13755674944E-01 -0.40703127599E-02  0.10202580751E+01  0.10199834213E+01 0.  0.
     999903    2    3    3    0    0  0.15705360383E-01 -0.12575731462E+00  0.31475824268E-01  0.13177588867E+00  0.17680407111E-01 0.  0.
         14    1    1    2    0    0  0.18830135145E-01  0.13755674944E-01  0.40703127599E-02  0.23671924904E-01  0.00000000000E+00 0. -1.
     999901    1    3    3    0    0 -0.34535495528E-01  0.11200163968E+00 -0.35546137028E-01  0.88848218643E+00  0.88000000000E+00 0.  1.
        -11    1    4    4    0    0 -0.18972625507E-02 -0.55249760220E-01  0.14076557207E-01  0.57048630075E-01  0.51100000000E-03 0.  1.
         11    1    4    4    0    0  0.17602622934E-01 -0.70507554400E-01  0.17399267061E-01  0.74727258593E-01  0.51100000000E-03 0. -1.
</event>
<event>
 8    1  0.1161093E+005  0.1043930E+01  0.7957747E-01            NaN
         13   -1    0    0    0    0  0.00000000000E+00  0.00000000000E+00  0.74505805969E-08  0.10566000000E+00  0.10566000000E+00 0.  1.
     999900   -1    0    0    0    0 -0.00000000000E+00 -0.00000000000E+00 -0.74505805969E-08  0.93827000000E+00  0.93827000000E+00 0.  1.
     999902    2    1    2    0    0  0.12911353164E-01 -0.33493080650E-02  0.19388621411E-01  0.10203962042E+01  0.10201247835E+01 0.  0.
     999903    2    3    3    0    0  0.22673768547E-01 -0.26972004785E-01  0.12710614149E+00  0.13345967845E+00  0.20345165169E-01 0.  0.
         14    1    1    2    0    0 -0.12911353164E-01  0.33493080650E-02 -0.19388621411E-01  0.23533795811E-01  0.00000000000E+00 0. -1.
     999901    1    3    3    0    0 -0.97624153824E-02  0.23622696720E-01 -0.10771752008E+00  0.88693652574E+00  0.88000000000E+00 0.  1.
        -11    1    4    4    0    0  0.17883132747E-01 -0.12990530205E-01  0.10158869712E+00  0.10396674861E+00  0.51100000000E-03 0. -1.
         11    1    4    4    0    0  0.47906358001E-02 -0.13981474580E-01  0.25517444368E-01  0.29492929845E-01  0.51100000000E-03 0.  1.
</event>
<event>
 8    1  0.1161093E+005  0.1043930E+01  0.7957747E-01            NaN
         13   -1    0    0    0    0  0.00000000000E+00  0.00000000000E+00  0.74505805969E-08  0.10566000000E+00  0.10566000000E+00 0.  1.
     999900   -1    0    0    0    0 -0.00000000000E+00 -0.00000000000E+00 -0.74505805969E-08  0.93827000000E+00  0.93827000000E+00 0.  1.
     999902    2    1    2    0    0 -0.12351585493E-01  0.97325518841E-02  0.18317299141E-01  0.10197885900E+01  0.10195028007E+01 0.  0.
     999903    2    3    3    0    0 -0.34672000661E-02  0.63079072589E-01  0.11518056943E+00  0.13282338394E+00  0.19608591792E-01 0.  0.
         14    1    1    2    0    0  0.12351585493E-01 -0.97325518841E-02 -0.18317299141E-01  0.24141410029E-01  0.00000000000E+00 0. -1.
     999901    1    3    3    0    0 -0.88843854269E-02 -0.53346520705E-01 -0.96863270290E-01  0.88696520603E+00  0.88000000000E+00 0.  1.
        -11    1    4    4    0    0 -0.19885608745E-02  0.54662580762E-01  0.82107116926E-01  0.98659981152E-01  0.51100000000E-03 0. -1.
         11    1    4    4    0    0 -0.14786391916E-02  0.84164918264E-02  0.33073452505E-01  0.34163402789E-01  0.51100000000E-03 0.  1.
</event>
<event>
 8    1  0.1161093E+005  0.1043930E+01  0.7957747E-01            NaN
         13   -1    0    0    0    0  0.00000000000E+00  0.00000000000E+00  0.74505805969E-08  0.10566000000E+00  0.10566000000E+00 0.  1.
     999900   -1    0    0    0    0 -0.00000000000E+00 -0.00000000000E+00 -0.74505805969E-08  0.93827000000E+00  0.93827000000E+00 0.  1.
     999902    2    1    2    0    0  0.94511284905E-02  0.21551591291E-01 -0.92410552597E-03  0.10203790151E+01  0.10201071932E+01 0.  0.
     999903    2    3    3    0    0  0.32358730849E-01 -0.75193330125E-01  0.98197758142E-01  0.12925080780E+00  0.19022283101E-01 0.  0.
         14    1    1    2    0    0 -0.94511284905E-02 -0.21551591291E-01  0.92410552597E-03  0.23550984861E-01  0.00000000000E+00 0. -1.
     999901    1    3    3    0    0 -0.22907602358E-01  0.96744921416E-01 -0.99121863668E-01  0.89112820734E+00  0.88000000000E+00 0.  1.
        -11    1    4    4    0    0  0.34606554152E-01 -0.65881397569E-01  0.85875238824E-01  0.11363445736E+00  0.51100000000E-03 0.  1.
         11    1    4    4    0    0 -0.22478233031E-02 -0.93119325564E-02  0.12322519318E-01  0.15616350434E-01  0.51100000000E-03 0. -1.
</event>
<event>
 8    1  0.1161093E+005  0.1043930E+01  0.7957747E-01            NaN
         13   -1    0    0    0    0  0.00000000000E+00  0.00000000000E+00  0.74505805969E-08  0.10566000000E+00  0.10566000000E+00 0.  1.
     999900   -1    0    0    0    0 -0.00000000000E+00 -0.00000000000E+00 -0.74505805969E-08  0.93827000000E+00  0.93827000000E+00 0.  1.
     999902    2    1    2    0    0 -0.18813017396E-01 -0.14212735360E-01  0.37279810989E-02  0.10200589021E+01  0.10197795519E+01 0.  0.
     999903    2    3    3    0    0 -0.75733125965E-01  0.74393203872E-01 -0.72838881961E-01  0.13047844162E+00  0.21195892303E-01 0.  0.
         14    1    1    2    0    0  0.18813017396E-01  0.14212735360E-01 -0.37279810989E-02  0.23871097860E-01  0.00000000000E+00 0.  1.
     999901    1    3    3    0    0  0.56920108569E-01 -0.88605939232E-01  0.76566863060E-01  0.88958046052E+00  0.88000000000E+00 0. -1.
        -11    1    4    4    0    0 -0.42062990176E-01  0.27079016545E-01 -0.30261566284E-01  0.58468724927E-01  0.51100000000E-03 0. -1.
         11    1    4    4    0    0 -0.33670135789E-01  0.47314187327E-01 -0.42577315677E-01  0.72009716690E-01  0.51100000000E-03 0.  1.
</event>
<event>
 8    1  0.1161093E+005  0.1043930E+01  0.7957747E-01            NaN
         13   -1    0    0    0    0  0.00000000000E+00  0.00000000000E+00  0.74505805969E-08  0.10566000000E+00  0.10566000000E+00 0. -1.
     999900   -1    0    0    0    0 -0.00000000000E+00 -0.00000000000E+00 -0.74505805969E-08  0.93827000000E+00  0.93827000000E+00 0.  1.
     999902    2    1    2    0    0 -0.23608179526E-01  0.23014044580E-02  0.50356772078E-02  0.10196812753E+01  0.10193929089E+01 0.  0.
     999903    2    3    3    0    0 -0.73905470533E-01  0.10746441052E+00 -0.27926505842E-02  0.13195927040E+00  0.19870381109E-01 0.  0.
         14    1    1    2    0    0  0.23608179526E-01 -0.23014044580E-02 -0.50356772078E-02  0.24248724666E-01  0.00000000000E+00 0. -1.
     999901    1    3    3    0    0  0.50297291007E-01 -0.10516300606E+00  0.78283277920E-02  0.88772200493E+00  0.88000000000E+00 0. -1.
        -11    1    4    4    0    0 -0.38255452268E-01  0.39231967341E-01  0.18873658470E-02  0.54831105775E-01  0.51100000000E-03 0. -1.
         11    1    4    4    0    0 -0.35650018265E-01  0.68232443174E-01 -0.46800164311E-02  0.77128164626E-01  0.51100000000E-03 0.  1.
</event>
<event>
 8    1  0.1161093E+005  0.1043930E+01  0.7957747E-01            NaN
         13   -1    0    0    0    0  0.00000000000E+00  0.00000000000E+00  0.74505805969E-08  0.10566000000E+00  0.10566000000E+00 0.  1.
     999900   -1    0    0    0    0 -0.00000000000E+00 -0.00000000000E+00 -0.74505805969E-08  0.93827000000E+00  0.93827000000E+00 0. -1.
     999902    2    1    2    0    0  0.22663633696E-01 -0.60696892699E-02  0.74499395785E-03  0.10204558347E+01  0.10201858037E+01 0.  0.
     999903    2    3    3    0    0 -0.72297586654E-01 -0.99722326554E-01  0.35634291438E-01  0.12972259017E+00  0.19663779537E-01 0.  0.
         14    1    1    2    0    0 -0.22663633696E-01  0.60696892699E-02 -0.74499395785E-03  0.23474165291E-01  0.00000000000E+00 0. -1.
     999901    1    3    3    0    0  0.94961220350E-01  0.93652637284E-01 -0.34889297480E-01  0.89073324453E+00  0.88000000000E+00 0.  1.
        -11    1    4    4    0    0 -0.45569254333E-01 -0.75132476258E-01  0.30621447911E-01  0.93055790374E-01  0.51100000000E-03 0.  1.
         11    1    4    4    0    0 -0.26728332322E-01 -0.24589850297E-01  0.50128435272E-02  0.36666799799E-01  0.51100000000E-03 0. -1.
</event>
<event>
 8    1  0.1161093E+005  0.1043930E+01  0.7957747E-01            NaN
         13   -1    0    0    0    0  0.00000000000E+00  0.00000000000E+00  0.74505805969E-08  0.10566000000E+00  0.10566000000E+00 0. -1.
     999900   -1    0    0    0    0 -0.00000000000E+00 -0.00000000000E+00 -0.74505805969E-08  0.93827000000E+00  0.93827000000E+00 0.  1.
     999902    2    1    2    0    0  0.82349103063E-02  0.55543576234E-02  0.21085038277E-01  0.10206224159E+01  0.10203562478E+01 0.  0.
     999903    2    3    3    0    0  0.11724467371E+00  0.55417373374E-01  0.18243049618E-01  0.13249093593E+00  0.20090805306E-01 0.  0.
         14    1    1    2    0    0 -0.82349103063E-02 -0.55543576234E-02 -0.21085038277E-01  0.23307584077E-01  0.00000000000E+00 0.  1.
     999901    1    3    3    0    0 -0.10900976341E+00 -0.49863015751E-01  0.28419886593E-02  0.88813147999E+00  0.88000000000E+00 0.  1.
        -11    1    4    4    0    0  0.61199903762E-01  0.21862723323E-01  0.12873164646E-02  0.65002501461E-01  0.51100000000E-03 0.  1.
         11    1    4    4    0    0  0.56044769952E-01  0.33554650051E-01  0.16955733153E-01  0.67488434467E-01  0.51100000000E-03 0. -1.
</event>
<event>
 8    1  0.1161093E+005  0.1043930E+01  0.7957747E-01            NaN
         13   -1    0    0    0    0  0.00000000000E+00  0.00000000000E+00  0.74505805969E-08  0.10566000000E+00  0.10566000000E+00 0. -1.
     999900   -1    0    0    0    0 -0.00000000000E+00 -0.00000000000E+00 -0.74505805969E-08  0.93827000000E+00  0.93827000000E+00 0.  1.
     999902    2    1    2    0    0 -0.50157339894E-02 -0.22319407762E-01 -0.37116666070E-02  0.10207547973E+01  0.10204916787E+01 0.  0.
     999903    2    3    3    0    0  0.12170417392E+00  0.16150045181E-01  0.37419439705E-01  0.12989588493E+00  0.19999913614E-01 0.  0.
         14    1    1    2    0    0  0.50157339894E-02  0.22319407762E-01  0.37116666070E-02  0.23175202681E-01  0.00000000000E+00 0. -1.
     999901    1    3    3    0    0 -0.12671990791E+00 -0.38469452943E-01 -0.41131106312E-01  0.89085891239E+00  0.88000000000E+00 0. -1.
        -11    1    4    4    0    0  0.47477347806E-01  0.15997359105E-01  0.17028459243E-01  0.52917327958E-01  0.51100000000E-03 0. -1.
         11    1    4    4    0    0  0.74226826119E-01  0.15268607625E-03  0.20390980462E-01  0.76978556975E-01  0.51100000000E-03 0.  1.
</event>
<event>
 8    1  0.1161093E+005  0.1043930E+01  0.7957747E-01            NaN
         13   -1    0    0    0    0  0.00000000000E+00  0.00000000000E+00  0.74505805969E-08  0.10566000000E+00  0.10566000000E+00 0.  1.
     999900   -1    0    0    0    0 -0.00000000000E+00 -0.00000000000E+00 -0.74505805969E-08  0.93827000000E+00  0.93827000000E+00 0. -1.
     999902    2    1    2    0    0  0.15708683788E-01  0.17784408461E-01 -0.58381733352E-02  0.10194937114E+01  0.10192008121E+01 0.  0.
     999903    2    3    3    0    0  0.38256640758E-01 -0.11989755798E+00  0.14689705205E-01  0.12826639586E+00  0.19937048329E-01 0.  0.
         14    1    1    2    0    0 -0.15708683788E-01 -0.17784408461E-01  0.58381733352E-02  0.24436288559E-01  0.00000000000E+00 0.  1.
     999901    1    3    3    0    0 -0.22547956970E-01  0.13768196644E+00 -0.20527878540E-01  0.89122731558E+00  0.88000000000E+00 0. -1.
        -11    1    4    4    0    0 -0.15892643983E-02 -0.10475387306E-01  0.39524714102E-02  0.11320011121E-01  0.51100000000E-03 0. -1.
         11    1    4    4    0    0  0.39845905156E-01 -0.10942217067E+00  0.10737233795E-01  0.11694638474E+00  0.51100000000E-03 0.  1.
</event>
<event>
 8    1  0.1161093E+005  0.1043930E+01  0.7957747E-01            NaN
         13   -1    0    0    0    0  0.00000000000E+00  0.00000000000E+00  0.74505805969E-08  0.10566000000E+00  0.10566000000E+00 0.  1.
     999900   -1    0    0    0    0 -0.00000000000E+00 -0.00000000000E+00 -0.74505805969E-08  0.93827000000E+00  0.93827000000E+00 0. -1.
     999902    2    1    2    0    0 -0.56521368401E-02  0.17251798871E-01  0.14792902425E-01  0.10205120330E+01  0.10202433084E+01 0.  0.
     999903    2    3    3    0    0  0.16665188092E-01 -0.12462524177E+00 -0.16164520033E-01  0.12833182720E+00  0.19964638370E-01 0.  0.
         14    1    1    2    0    0  0.56521368401E-02 -0.17251798871E-01 -0.14792902425E-01  0.23417966976E-01  0.00000000000E+00 0. -1.
     999901    1    3    3    0    0 -0.22317324932E-01  0.14187704064E+00  0.30957422459E-01  0.89218020582E+00  0.88000000000E+00 0.  1.
        -11    1    4    4    0    0 -0.25128223499E-02 -0.18190744661E-01 -0.74764556951E-02  0.19833708131E-01  0.51100000000E-03 0. -1.
         11    1    4    4    0    0  0.19178010442E-01 -0.10643449711E+00 -0.86880643384E-02  0.10849811907E+00  0.51100000000E-03 0.  1.
</event>
<event>
 8    1  0.1161093E+005  0.1043930E+01  0.7957747E-01            NaN
         13   -1    0    0    0    0  0.00000000000E+00  0.00000000000E+00  0.74505805969E-08  0.10566000000E+00  0.10566000000E+00 0.  1.
     999900   -1    0    0    0    0 -0.00000000000E+00 -0.00000000000E+00 -0.74505805969E-08  0.93827000000E+00  0.93827000000E+00 0.  1.
     999902    2    1    2    0    0  0.22039930283E-01 -0.68622215311E-02 -0.97647249793E-02  0.10188661123E+01  0.10185577825E+01 0.  0.
     999903    2    3    3    0    0 -0.37174008149E-02  0.96372683716E-01 -0.83681071213E-01  0.12938058012E+00  0.20863834687E-01 0.  0.
         14    1    1    2    0    0 -0.22039930283E-01  0.68622215311E-02  0.97647249793E-02  0.25063887670E-01  0.00000000000E+00 0.  1.
     999901    1    3    3    0    0  0.25757331098E-01 -0.10323490525E+00  0.73916346234E-01  0.88948553221E+00  0.88000000000E+00 0. -1.
        -11    1    4    4    0    0  0.16280226427E-02  0.22613811499E-01 -0.93596065420E-02  0.24533615385E-01  0.51100000000E-03 0. -1.
         11    1    4    4    0    0 -0.53454234576E-02  0.73758872217E-01 -0.74321464671E-01  0.10484696474E+00  0.51100000000E-03 0.  1.
</event>
<event>
 8    1  0.1161093E+005  0.1043930E+01  0.7957747E-01            NaN
         13   -1    0    0    0    0  0.00000000000E+00  0.00000000000E+00  0.74505805969E-08  0.10566000000E+00  0.10566000000E+00 0.  1.
     999900   -1    0    0    0    0 -0.00000000000E+00 -0.00000000000E+00 -0.74505805969E-08  0.93827000000E+00  0.93827000000E+00 0.  1.
     999902    2    1    2    0    0 -0.15293344583E-01 -0.10579752292E-01  0.14599578944E-01  0.10202875540E+01  0.10200135919E+01 0.  0.
     999903    2    3    3    0    0 -0.10972947757E+00 -0.54648859868E-01 -0.45204047840E-01  0.13212273640E+00  0.19645747666E-01 0.  0.
         14    1    1    2    0    0  0.15293344583E-01  0.10579752292E-01 -0.14599578944E-01  0.23642445992E-01  0.00000000000E+00 0. -1.
     999901    1    3    3    0    0  0.94436132984E-01  0.44069107575E-01  0.59803626785E-01  0.88816481761E+00  0.88000000000E+00 0.  1.
        -11    1    4    4    0    0 -0.44801910210E-01 -0.29447233371E-01 -0.27510970465E-01  0.60261640607E-01  0.51100000000E-03 0. -1.
         11    1    4    4    0    0 -0.64927567357E-01 -0.25201626497E-01 -0.17693077376E-01  0.71861095796E-01  0.51100000000E-03 0.  1.
</event>
<event>
 8    1  0.1161093E+005  0.1043930E+01  0.7957747E-01            NaN
         13   -1    0    0    0    0  0.00000000000E+00  0.00000000000E+00  0.74505805969E-08  0.10566000000E+00  0.10566000000E+00 0.  1.
     999900   -1    0    0    0    0 -0.00000000000E+00 -0.00000000000E+00 -0.74505805969E-08  0.93827000000E+00  0.93827000000E+00 0.  1.
     999902    2    1    2    0    0 -0.10604555017E-01  0.34405825749E-02  0.24108873477E-01  0.10173681481E+01  0.10170213453E+01 0.  0.
     999903    2    3    3    0    0 -0.55728115227E-01  0.64570458648E-01 -0.91469063924E-01  0.12656443401E+00  0.19416470970E-01 0.  0.
         14    1    1    2    0    0  0.10604555017E-01 -0.34405825749E-02 -0.24108873477E-01  0.26561851891E-01  0.00000000000E+00 0. -1.
     999901    1    3    3    0    0  0.45123560211E-01 -0.61129876073E-01  0.11557793740E+00  0.89080371410E+00  0.88000000000E+00 0. -1.
        -11    1    4    4    0    0 -0.47354390602E-01  0.58175661250E-01 -0.69805339563E-01  0.10246898274E+00  0.51100000000E-03 0.  1.
         11    1    4    4    0    0 -0.83737246252E-02  0.63947973980E-02 -0.21663724360E-01  0.24095451272E-01  0.51100000000E-03 0. -1.
</event>
<event>
 8    1  0.1161093E+005  0.1043930E+01  0.7957747E-01            NaN
         13   -1    0    0    0    0  0.00000000000E+00  0.00000000000E+00  0.74505805969E-08  0.10566000000E+00  0.10566000000E+00 0. -1.
     999900   -1    0    0    0    0 -0.00000000000E+00 -0.00000000000E+00 -0.74505805969E-08  0.93827000000E+00  0.93827000000E+00 0.  1.
     999902    2    1    2    0    0 -0.41413378540E-03  0.24101333390E-01  0.25789758919E-02  0.10196875394E+01  0.10193993237E+01 0.  0.
     999903    2    3    3    0    0 -0.68059995487E-01 -0.91639784635E-01  0.51438375813E-01  0.12819485299E+00  0.27531812755E-01 0.  0.
         14    1    1    2    0    0  0.41413378540E-03 -0.24101333390E-01 -0.25789758919E-02  0.24242460573E-01  0.00000000000E+00 0. -1.
     999901    1    3    3    0    0  0.67645861702E-01  0.11574111803E+00 -0.48859399922E-01  0.89149268644E+00  0.88000000000E+00 0. -1.
        -11    1    4    4    0    0 -0.28363362869E-01 -0.60964714515E-01  0.30309655256E-01  0.73757122313E-01  0.51100000000E-03 0.  1.
         11    1    4    4    0    0 -0.39696632618E-01 -0.30675070121E-01  0.21128720558E-01  0.54437730679E-01  0.51100000000E-03 0. -1.
</event>
<event>
 8    1  0.1161093E+005  0.1043930E+01  0.7957747E-01            NaN
         13   -1    0    0    0    0  0.00000000000E+00  0.00000000000E+00  0.74505805969E-08  0.10566000000E+00  0.10566000000E+00 0. -1.
     999900   -1    0    0    0    0 -0.00000000000E+00 -0.00000000000E+00 -0.74505805969E-08  0.93827000000E+00  0.93827000000E+00 0. -1.
     999902    2    1    2    0    0 -0.13657261464E-01  0.87144870051E-02 -0.16197657185E-01  0.10210208932E+01  0.10207638499E+01 0.  0.
     999903    2    3    3    0    0 -0.75363136432E-02 -0.78071979879E-02 -0.13139953892E+00  0.13333744423E+00  0.19881821905E-01 0.  0.
         14    1    1    2    0    0  0.13657261464E-01 -0.87144870051E-02  0.16197657185E-01  0.22909106764E-01  0.00000000000E+00 0. -1.
     999901    1    3    3    0    0 -0.61209478210E-02  0.16521684993E-01  0.11520188174E+00  0.88768344900E+00  0.88000000000E+00 0.  1.
        -11    1    4    4    0    0  0.63903812664E-02 -0.47455475333E-02 -0.35707051512E-01  0.36587044740E-01  0.51100000000E-03 0. -1.
         11    1    4    4    0    0 -0.13926694910E-01 -0.30616504546E-02 -0.95692487409E-01  0.96750399493E-01  0.51100000000E-03 0.  1.
</event>
<event>
 8    1  0.1161093E+005  0.1043930E+01  0.7957747E-01            NaN
         13   -1    0    0    0    0  0.00000000000E+00  0.00000000000E+00  0.74505805969E-08  0.10566000000E+00  0.10566000000E+00 0. -1.
     999900   -1    0    0    0    0 -0.00000000000E+00 -0.00000000000E+00 -0.74505805969E-08  0.93827000000E+00  0.93827000000E+00 0. -1.
     999902    2    1    2    0    0  0.29622003197E-02 -0.13777237955E-02  0.22359181215E-01  0.10213334131E+01  0.10210834124E+01 0.  0.
     999903    2    3    3    0    0  0.68770342906E-02 -0.12784132609E+00 -0.20581918985E-01  0.13124785167E+00  0.20290020271E-01 0.  0.
         14    1    1    2    0    0 -0.29622003197E-02  0.13777237955E-02 -0.22359181215E-01  0.22596586871E-01  0.00000000000E+00 0.  1.
     999901    1    3    3    0    0 -0.39148339709E-02  0.12646360229E+00  0.42941100200E-01  0.89008556146E+00  0.88000000000E+00 0. -1.
        -11    1    4    4    0    0 -0.20578982463E-02 -0.94308142066E-01 -0.94729697733E-02  0.94806428487E-01  0.51100000000E-03 0.  1.
         11    1    4    4    0    0  0.89349325370E-02 -0.33533184022E-01 -0.11108949212E-01  0.36441423184E-01  0.51100000000E-03 0. -1.
</event>
<event>
 8    1  0.1161093E+005  0.1043930E+01  0.7957747E-01            NaN
         13   -1    0    0    0    0  0.00000000000E+00  0.00000000000E+00  0.74505805969E-08  0.10566000000E+00  0.10566000000E+00 0.  1.
     999900   -1    0    0    0    0 -0.00000000000E+00 -0.00000000000E+00 -0.74505805969E-08  0.93827000000E+00  0.93827000000E+00 0.  1.
     999902    2    1    2    0    0 -0.23455196371E-01 -0.22643790558E-02 -0.46725611005E-02  0.10199069595E+01  0.10196239991E+01 0.  0.
     999903    2    3    3    0    0  0.10625324874E-02 -0.43822447051E-01 -0.12166187061E+00  0.13085426666E+00  0.19992311094E-01 0.  0.
         14    1    1    2    0    0  0.23455196371E-01  0.22643790558E-02  0.46725611005E-02  0.24023040535E-01  0.00000000000E+00 0. -1.
     999901    1    3    3    0    0 -0.24517728858E-01  0.41558067995E-01  0.11698930951E+00  0.88905269280E+00  0.88000000000E+00 0. -1.
        -11    1    4    4    0    0  0.74638749873E-02 -0.34773844703E-01 -0.76744088394E-01  0.84586322355E-01  0.51100000000E-03 0. -1.
         11    1    4    4    0    0 -0.64013424999E-02 -0.90486023481E-02 -0.44917782214E-01  0.46267944305E-01  0.51100000000E-03 0.  1.
</event>
<event>
 8    1  0.1161093E+005  0.1043930E+01  0.7957747E-01            NaN
         13   -1    0    0    0    0  0.00000000000E+00  0.00000000000E+00  0.74505805969E-08  0.10566000000E+00  0.10566000000E+00 0.  1.
     999900   -1    0    0    0    0 -0.00000000000E+00 -0.00000000000E+00 -0.74505805969E-08  0.93827000000E+00  0.93827000000E+00 0. -1.
     999902    2    1    2    0    0  0.22878178245E-01  0.84562485394E-03 -0.35123937572E-02  0.10207683284E+01  0.10205055204E+01 0.  0.
     999903    2    3    3    0    0 -0.49199492291E-01 -0.11650695192E+00 -0.24496891837E-01  0.12980976201E+00  0.16000522409E-01 0.  0.
         14    1    1    2    0    0 -0.22878178245E-01 -0.84562485394E-03  0.35123937572E-02  0.23161671596E-01  0.00000000000E+00 0.  1.
     999901    1    3    3    0    0  0.72077670537E-01  0.11735257677E+00  0.20984498080E-01  0.89095856639E+00  0.88000000000E+00 0.  1.
        -11    1    4    4    0    0 -0.41229977331E-01 -0.83307355101E-01 -0.13452691329E-01  0.93921576167E-01  0.51100000000E-03 0. -1.
         11    1    4    4    0    0 -0.79695149604E-02 -0.33199596817E-01 -0.11044200508E-01  0.35888185847E-01  0.51100000000E-03 0.  1.
</event>
<event>
 8    1  0.1161093E+005  0.1043930E+01  0.7957747E-01            NaN
         13   -1    0    0    0    0  0.00000000000E+00  0.00000000000E+00  0.74505805969E-08  0.10566000000E+00  0.10566000000E+00 0.  1.
     999900   -1    0    0    0    0 -0.00000000000E+00 -0.00000000000E+00 -0.74505805969E-08  0.93827000000E+00  0.93827000000E+00 0. -1.
     999902    2    1    2    0    0  0.44035131120E-02  0.98940341958E-02 -0.19848589136E-01  0.10213191767E+01  0.10210688573E+01 0.  0.
     999903    2    3    3    0    0 -0.44505576284E-01 -0.75589459235E-01  0.92086053634E-01  0.12877848241E+00  0.20237183376E-01 0.  0.
         14    1    1    2    0    0 -0.44035131120E-02 -0.98940341958E-02  0.19848589136E-01  0.22610823317E-01  0.00000000000E+00 0.  1.
     999901    1    3    3    0    0  0.48909089396E-01  0.85483493431E-01 -0.11193464277E+00  0.89254069427E+00  0.88000000000E+00 0. -1.
        -11    1    4    4    0    0 -0.29048733548E-01 -0.30927602803E-01  0.38120606574E-01  0.57041978423E-01  0.51100000000E-03 0.  1.
         11    1    4    4    0    0 -0.15456842736E-01 -0.44661856432E-01  0.53965447060E-01  0.71736503990E-01  0.51100000000E-03 0. -1.
</event>
<event>
 8    1  0.1161093E+005  0.1043930E+01  0.7957747E-01            NaN
         13   -1    0    0    0    0  0.00000000000E+00  0.00000000000E+00  0.74505805969E-08  0.10566000000E+00  0.10566000000E+00 0.  1.
     999900   -1    0    0    0    0 -0.00000000000E+00 -0.00000000000E+00 -0.74505805969E-08  0.93827000000E+00  0.93827000000E+00 0.  1.
     999902    2    1    2    0    0  0.16338939668E-01 -0.64981286855E-03  0.17030616764E-01  0.10203201480E+01  0.10200469495E+01 0.  0.
     999903    2    3    3    0    0 -0.35474515824E-01 -0.83159257112E-01  0.94244423342E-01  0.13158260825E+00  0.16064499540E-01 0.  0.
         14    1    1    2    0    0 -0.16338939668E-01  0.64981286855E-03 -0.17030616764E-01  0.23609852046E-01  0.00000000000E+00 0. -1.
     999901    1    3    3    0    0  0.51813455493E-01  0.82509444244E-01 -0.77213806578E-01  0.88873753971E+00  0.88000000000E+00 0.  1.
        -11    1    4    4    0    0 -0.17228785173E-01 -0.48374298626E-01  0.42772998767E-01  0.66833332631E-01  0.51100000000E-03 0.  1.
         11    1    4    4    0    0 -0.18245730652E-01 -0.34784958486E-01  0.51471424576E-01  0.64749275615E-01  0.51100000000E-03 0. -1.
</event>
<event>
 8    1  0.1161093E+005  0.1043930E+01  0.7957747E-01            NaN
         13   -1    0    0    0    0  0.00000000000E+00  0.00000000000E+00  0.74505805969E-08  0.10566000000E+00  0.10566000000E+00 0. -1.
     999900   -1    0    0    0    0 -0.00000000000E+00 -0.00000000000E+00 -0.74505805969E-08  0.93827000000E+00  0.93827000000E+00 0.  1.
     999902    2    1    2    0    0  0.19923879749E-01 -0.11202691268E-01 -0.46045303244E-02  0.10206134184E+01  0.10203470424E+01 0.  0.
     999903    2    3    3    0    0 -0.90936634071E-01  0.26655076868E-01 -0.86737797180E-01  0.12905908042E+00  0.12362695477E-01 0.  0.
         14    1    1    2    0    0 -0.19923879749E-01  0.11202691268E-01  0.46045303244E-02  0.23316581555E-01  0.00000000000E+00 0.  1.
     999901    1    3    3    0    0  0.11086051382E+00 -0.37857768136E-01  0.82133266855E-01  0.89155433803E+00  0.88000000000E+00 0.  1.
        -11    1    4    4    0    0 -0.77892260428E-02  0.54659235279E-02 -0.61417093954E-02  0.11337110640E-01  0.51100000000E-03 0. -1.
         11    1    4    4    0    0 -0.83147408028E-01  0.21189153340E-01 -0.80596087784E-01  0.11772196978E+00  0.51100000000E-03 0.  1.
</event>
<event>
 8    1  0.1161093E+005  0.1043930E+01  0.7957747E-01            NaN
         13   -1    0    0    0    0  0.00000000000E+00  0.00000000000E+00  0.74505805969E-08  0.10566000000E+00  0.10566000000E+00 0. -1.
     999900   -1    0    0    0    0 -0.00000000000E+00 -0.00000000000E+00 -0.74505805969E-08  0.93827000000E+00  0.93827000000E+00 0. -1.
     999902    2    1    2    0    0 -0.18244193360E-01 -0.33810155125E-02  0.15742475979E-01  0.10195967428E+01  0.10193063379E+01 0.  0.
     999903    2    3    3    0    0 -0.25195450824E-01 -0.11038901272E+00 -0.61410663075E-01  0.12973628275E+00  0.15481881389E-01 0.  0.
         14    1    1    2    0    0  0.18244193360E-01  0.33810155125E-02 -0.15742475979E-01  0.24333257226E-01  0.00000000000E+00 0.  1.
     999901    1    3    3    0    0  0.69512574633E-02  0.10700799721E+00  0.77153139053E-01  0.88986046002E+00  0.88000000000E+00 0.  1.
        -11    1    4    4    0    0 -0.92987410475E-02 -0.15784473699E-01 -0.89190636292E-02  0.20382026691E-01  0.51100000000E-03 0.  1.
         11    1    4    4    0    0 -0.15896709776E-01 -0.94604539021E-01 -0.52491599445E-01  0.10935425606E+00  0.51100000000E-03 0. -1.
</event>
<event>
 8    1  0.1161093E+005  0.1043930E+01  0.7957747E-01            NaN
         13   -1    0    0    0    0  0.00000000000E+00  0.00000000000E+00  0.74505805969E-08  0.10566000000E+00  0.10566000000E+00 0. -1.
     999900   -1    0    0    0    0 -0.00000000000E+00 -0.00000000000E+00 -0.74505805969E-08  0.93827000000E+00  0.93827000000E+00 0. -1.
     999902    2    1    2    0    0 -0.62774954614E-02  0.23841365406E-01  0.20265102104E-02  0.10191928943E+01  0.10188926496E+01 0.  0.
     999903    2    3    3    0    0 -0.12747840971E+00 -0.10990990982E-02 -0.18139265403E-01  0.13030687976E+00  0.19972406024E-01 0.  0.
         14    1    1    2    0    0  0.62774954614E-02 -0.23841365406E-01 -0.20265102104E-02  0.24737105678E-01  0.00000000000E+00 0. -1.
     999901    1    3    3    0    0  0.12120091425E+00  0.24940464505E-01  0.20165775614E-01  0.88888601457E+00  0.88000000000E+00 0.  1.
        -11    1    4    4    0    0 -0.44597634364E-01 -0.81904082338E-02 -0.90615775223E-03  0.45355418869E-01  0.51100000000E-03 0.  1.
         11    1    4    4    0    0 -0.82880775342E-01  0.70913091356E-02 -0.17233107651E-01  0.84951460887E-01  0.51100000000E-03 0. -1.
</event>
<event>
 8    1  0.1161093E+005  0.1043930E+01  0.7957747E-01            NaN
         13   -1    0    0    0    0  0.00000000000E+00  0.00000000000E+00  0.74505805969E-08  0.10566000000E+00  0.10566000000E+00 0.  1.
     999900   -1    0    0    0    0 -0.00000000000E+00 -0.00000000000E+00 -0.74505805969E-08  0.93827000000E+00  0.93827000000E+00 0.  1.
     999902    2    1    2    0    0  0.36122890231E-02 -0.18857770727E-01  0.16781381015E-01  0.10184294334E+01  0.10181101276E+01 0.  0.
     999903    2    3    3    0    0  0.36723185595E-01 -0.12454960552E+00  0.34194873238E-02  0.13138623511E+00  0.19734570823E-01 0.  0.
         14    1    1    2    0    0 -0.36122890231E-02  0.18857770727E-01 -0.16781381015E-01  0.25500566612E-01  0.00000000000E+00 0. -1.
     999901    1    3    3    0    0 -0.33110896572E-01  0.10569183480E+00  0.13361893691E-01  0.88704319828E+00  0.88000000000E+00 0.  1.
        -11    1    4    4    0    0  0.29893845951E-01 -0.68365880384E-01 -0.88836545225E-03  0.74622958536E-01  0.51100000000E-03 0. -1.
         11    1    4    4    0    0  0.68293396444E-02 -0.56183725139E-01  0.43078527761E-02  0.56763276570E-01  0.51100000000E-03 0.  1.
</event>
<event>
 8    1  0.1161093E+005  0.1043930E+01  0.7957747E-01            NaN
         13   -1    0    0    0    0  0.00000000000E+00  0.00000000000E+00  0.74505805969E-08  0.10566000000E+00  0.10566000000E+00 0. -1.
     999900   -1    0    0    0    0 -0.00000000000E+00 -0.00000000000E+00 -0.74505805969E-08  0.93827000000E+00  0.93827000000E+00 0.  1.
     999902    2    1    2    0    0 -0.21675356076E-01  0.10037019897E-01 -0.23750222055E-02  0.10199257595E+01  0.10196432471E+01 0.  0.
     999903    2    3    3    0    0 -0.27743725026E-01 -0.50213883669E-01  0.11512214081E+00  0.13005353287E+00  0.19226692815E-01 0.  0.
         14    1    1    2    0    0  0.21675356076E-01 -0.10037019897E-01  0.23750222055E-02  0.24004240456E-01  0.00000000000E+00 0. -1.
     999901    1    3    3    0    0  0.60683689508E-02  0.60250903566E-01 -0.11749716302E+00  0.88987222667E+00  0.88000000000E+00 0. -1.
        -11    1    4    4    0    0 -0.19799144327E-01 -0.41932271236E-01  0.73770464877E-01  0.87135894419E-01  0.51100000000E-03 0.  1.
         11    1    4    4    0    0 -0.79445806991E-02 -0.82816124335E-02  0.41351675933E-01  0.42917638454E-01  0.51100000000E-03 0. -1.
</event>
<event>
 8    1  0.1161093E+005  0.1043930E+01  0.7957747E-01            NaN
         13   -1    0    0    0    0  0.00000000000E+00  0.00000000000E+00  0.74505805969E-08  0.10566000000E+00  0.10566000000E+00 0.  1.
     999900   -1    0    0    0    0 -0.00000000000E+00 -0.00000000000E+00 -0.74505805969E-08  0.93827000000E+00  0.93827000000E+00 0.  1.
     999902    2    1    2    0    0  0.14795205566E-01  0.19523430936E-01 -0.15908545645E-02  0.10193822245E+01  0.10190866138E+01 0.  0.
     999903    2    3    3    0    0  0.35914744002E-01  0.50041403429E-01  0.11385707914E+00  0.13106606067E+00  0.20515040708E-01 0.  0.
         14    1    1    2    0    0 -0.14795205566E-01 -0.19523430936E-01  0.15908545645E-02  0.24547775490E-01  0.00000000000E+00 0. -1.
     999901    1    3    3    0    0 -0.21119538436E-01 -0.30517972493E-01 -0.11544793370E+00  0.88831616384E+00  0.88000000000E+00 0.  1.
        -11    1    4    4    0    0  0.12922607915E-01  0.51531303066E-02  0.32313456862E-01  0.35184785955E-01  0.51100000000E-03 0. -1.
         11    1    4    4    0    0  0.22992136087E-01  0.44888273123E-01  0.81543622274E-01  0.95881274712E-01  0.51100000000E-03 0.  1.
</event>
<event>
 8    1  0.1161093E+005  0.1043930E+01  0.7957747E-01            NaN
         13   -1    0    0    0    0  0.00000000000E+00  0.00000000000E+00  0.74505805969E-08  0.10566000000E+00  0.10566000000E+00 0.  1.
     999900   -1    0    0    0    0 -0.00000000000E+00 -0.00000000000E+00 -0.74505805969E-08  0.93827000000E+00  0.93827000000E+00 0. -1.
     999902    2    1    2    0    0  0.84118520975E-02  0.18670834057E-01 -0.99909043125E-02  0.10211445338E+01  0.10208902887E+01 0.  0.
     999903    2    3    3    0    0  0.10052747865E+00 -0.80832453006E-01 -0.61852271512E-02  0.13075098265E+00  0.20442676063E-01 0.  0.
         14    1    1    2    0    0 -0.84118520975E-02 -0.18670834057E-01  0.99909043125E-02  0.22785466181E-01  0.00000000000E+00 0.  1.
     999901    1    3    3    0    0 -0.92115626556E-01  0.99503287063E-01 -0.38056771614E-02  0.89039355117E+00  0.88000000000E+00 0.  1.
        -11    1    4    4    0    0  0.34201755223E-01 -0.19335056515E-01  0.50104807303E-02  0.39610232376E-01  0.51100000000E-03 0. -1.
         11    1    4    4    0    0  0.66325723431E-01 -0.61497396490E-01 -0.11195707882E-01  0.91140750269E-01  0.51100000000E-03 0.  1.
</event>
<event>
 8    1  0.1161093E+005  0.1043930E+01  0.7957747E-01            NaN
         13   -1    0    0    0    0  0.00000000000E+00  0.00000000000E+00  0.74505805969E-08  0.10566000000E+00  0.10566000000E+00 0.  1.
     999900   -1    0    0    0    0 -0.00000000000E+00 -0.00000000000E+00 -0.74505805969E-08  0.93827000000E+00  0.93827000000E+00 0. -1.
     999902    2    1    2    0    0 -0.69097507585E-02 -0.26972911604E-02 -0.22165897800E-01  0.10205559319E+01  0.10202882255E+01 0.  0.
     999903    2    3    3    0    0 -0.34052882539E-01  0.86022207718E-01  0.87394116914E-01  0.12892187247E+00  0.20583937898E-01 0.  0.
         14    1    1    2    0    0  0.69097507585E-02  0.26972911604E-02  0.22165897800E-01  0.23374068118E-01  0.00000000000E+00 0.  1.
     999901    1    3    3    0    0  0.27143131781E-01 -0.88719498879E-01 -0.10956001471E+00  0.89163405941E+00  0.88000000000E+00 0. -1.
        -11    1    4    4    0    0 -0.12508042718E-01  0.12904810824E-01  0.11421547167E-01  0.21300190979E-01  0.51100000000E-03 0.  1.
         11    1    4    4    0    0 -0.21544839821E-01  0.73117396894E-01  0.75972569747E-01  0.10762168149E+00  0.51100000000E-03 0. -1.
</event>
